Title
82282
    1SAPS     N    1   0.830   3.931  11.308 -0.4916  0.0806 -0.1729
    1SAPS   HN1    2   0.847   3.843  11.362 -2.0397 -0.1235  0.0281
    1SAPS   HN2    3   0.839   3.911  11.207 -0.4074  1.3075 -0.4233
    1SAPS   HN3    4   0.900   4.002  11.337  0.0712  0.0732 -1.4678
    1SAPS   C12    5   0.694   3.970  11.343 -0.4384 -0.1444 -0.6938
    1SAPS  H12A    6   0.629   3.887  11.321  0.0612 -0.8288  0.3330
    1SAPS   C13    7   0.695   3.999  11.495  0.0842 -1.0840  0.1569
    1SAPS  O13A    8   0.791   3.973  11.569  0.2110  0.3944  0.0517
    1SAPS  O13B    9   0.584   4.021  11.546  0.6519 -0.3835 -0.0159
    1SAPS   C11   10   0.655   4.099  11.264  0.2179 -0.3381 -0.1868
    1SAPS  H11A   11   0.740   4.168  11.248  1.4646 -1.1744  2.2829
    1SAPS  H11B   12   0.589   4.164  11.325  0.0791  1.1458 -1.8336
    1SAPS     P   13   0.503   4.176  11.064 -0.0267 -0.3711 -0.1068
    1SAPS   O13   14   0.364   4.140  11.021 -0.2161 -0.2544  0.0218
    1SAPS   O14   15   0.507   4.310  11.138  0.6834  0.0933  0.2348
    1SAPS   O12   16   0.583   4.067  11.146  0.4221  0.2989 -0.0849
    1SAPS   O11   17   0.589   4.186  10.926  0.0281 -0.6747 -0.3677
    1SAPS    C1   18   0.715   4.126  10.921 -0.1636  0.0074  0.3701
    1SAPS    HA   19   0.787   4.166  10.996  0.3884 -1.6889  0.7979
    1SAPS    HB   20   0.711   4.015  10.922  0.1896 -0.0465 -1.0175
    1SAPS    C2   21   0.779   4.163  10.781  0.1492 -0.2380 -0.4335
    1SAPS    HS   22   0.890   4.161  10.780  0.2320  1.8168 -1.5996
    1SAPS   O21   23   0.735   4.293  10.742 -0.1859 -0.6797  0.2700
    1SAPS   C21   24   0.788   4.383  10.820 -0.3328 -0.6360 -0.6211
    1SAPS   O22   25   0.872   4.371  10.911  0.0793 -0.2254 -0.5526
    1SAPS   C22   26   0.725   4.514  10.787  0.0473 -0.1060  0.2667
    1SAPS   H2R   27   0.619   4.508  10.755  0.1785  1.0446 -0.4791
    1SAPS   H2S   28   0.737   4.576  10.878  0.0044  0.9573 -0.4282
    1SAPS    C3   29   0.723   4.063  10.674 -0.2175  0.5378  0.1021
    1SAPS    HX   30   0.612   4.067  10.675 -0.3786 -2.1672  0.0428
    1SAPS    HY   31   0.752   3.963  10.712 -1.8047  0.2786  0.7208
    1SAPS   O31   32   0.779   4.088  10.547 -0.4955 -0.0368 -0.0756
    1SAPS   C31   33   0.698   4.161  10.461  0.0138  0.4248  0.1458
    1SAPS   O32   34   0.584   4.199  10.488  0.2443 -0.2646  0.4070
    1SAPS   C32   35   0.773   4.191  10.332 -0.0739 -0.3176 -0.3223
    1SAPS   H2X   36   0.873   4.143  10.335  0.8808  1.6310  0.1826
    1SAPS   H2Y   37   0.790   4.300  10.325  0.2240 -0.4367 -1.5575
    1SAPS   C23   38   0.801   4.582  10.669 -0.0942  0.1446 -0.4778
    1SAPS   H3R   39   0.794   4.533  10.570  3.2337 -0.1284 -0.7083
    1SAPS   H3S   40   0.910   4.584  10.692  0.4838  0.5350 -2.9498
    1SAPS   C24   41   0.776   4.725  10.666  0.4357  0.6962  0.0471
    1SAPS   H4R   42   0.821   4.779  10.580 -3.2875  3.4381 -0.4212
    1SAPS   H4S   43   0.813   4.763  10.764  0.8675 -1.8283  0.9436
    1SAPS   C25   44   0.626   4.741  10.650 -0.3420 -0.4929 -0.0338
    1SAPS   H5R   45   0.563   4.729  10.739  1.8173 -1.8876  1.3988
    1SAPS   C26   46   0.557   4.753  10.534 -0.5826 -0.9946  0.6901
    1SAPS   H6R   47   0.448   4.750  10.542 -1.0368  1.9236 -2.1247
    1SAPS   C27   48   0.619   4.755  10.402  0.4699  0.3680  0.8699
    1SAPS   H7R   49   0.702   4.682  10.395 -0.2531 -0.3334 -1.1903
    1SAPS   H7S   50   0.676   4.849  10.388 -0.3760  0.6032 -1.5297
    1SAPS   C28   51   0.509   4.742  10.292  0.0352  0.0732 -0.4511
    1SAPS   H8R   52   0.476   4.840  10.253 -1.9505  0.2789  1.5805
    1SAPS   C29   53   0.448   4.632  10.247  0.0891  0.1687 -1.1243
    1SAPS   H9R   54   0.379   4.627  10.161  0.6900 -3.0625 -1.5479
    1SAPS  C210   55   0.467   4.489  10.299  0.4778 -0.3211  0.0084
    1SAPS  H10R   56   0.541   4.488  10.382 -1.0233 -2.8893  1.4461
    1SAPS  H10S   57   0.500   4.420  10.218 -0.9945  1.8217 -2.5779
    1SAPS  C211   58   0.342   4.442  10.364 -0.1515  0.1152  0.2726
    1SAPS  H11R   59   0.331   4.463  10.472  0.8942 -1.0264  0.6233
    1SAPS  C212   60   0.251   4.363  10.303 -0.6930 -0.0736 -0.2173
    1SAPS  H12R   61   0.161   4.329  10.356 -2.1424 -0.1772 -2.6156
    1SAPS  C213   62   0.255   4.317  10.158  0.1962  0.7359 -0.5210
    1SAPS  H13R   63   0.224   4.211  10.146  1.7930  0.2758 -0.8626
    1SAPS  H13S   64   0.355   4.319  10.109  1.4469  0.4554  1.8883
    1SAPS  C214   65   0.159   4.397  10.076  0.0949 -0.7586  0.4578
    1SAPS  H14R   66   0.057   4.405  10.116 -0.0045  1.8203 -0.1662
    1SAPS  C215   67   0.187   4.478   9.969 -0.4249  0.7989 -0.1848
    1SAPS  H15R   68   0.111   4.539   9.918 -0.6170  0.3676 -0.4217
    1SAPS  C216   69   0.322   4.491   9.910 -0.0782  0.1650 -0.4005
    1SAPS  H16R   70   0.404   4.464   9.981  0.6501  1.9628 -0.4968
    1SAPS  H16S   71   0.345   4.598   9.894 -2.1201  0.5892 -0.7127
    1SAPS  C217   72   0.344   4.413   9.779  0.2148 -0.6483 -0.3902
    1SAPS  H17R   73   0.275   4.327   9.789 -0.6851  0.0331 -0.5887
    1SAPS  H17S   74   0.449   4.382   9.759 -0.6191 -3.1484 -1.1745
    1SAPS  C218   75   0.273   4.479   9.657 -0.1433  0.4304 -0.0881
    1SAPS  H18R   76   0.294   4.588   9.655  0.4237  0.3150 -1.7369
    1SAPS  H18S   77   0.165   4.485   9.683  0.2872  0.8837  1.7829
    1SAPS  C219   78   0.291   4.404   9.529  0.0521 -0.3488  0.1300
    1SAPS  H19R   79   0.284   4.294   9.542 -0.4483 -0.1521  1.7199
    1SAPS  H19S   80   0.383   4.441   9.478 -1.4657  2.0093 -1.1280
    1SAPS  C220   81   0.181   4.450   9.434 -0.1187 -0.3465  0.0267
    1SAPS  H20R   82   0.152   4.556   9.453  2.1350  0.1259  1.1140
    1SAPS  H20S   83   0.086   4.397   9.457  0.0394 -2.4805 -3.4732
    1SAPS  H20T   84   0.198   4.437   9.325  0.0285  1.5863 -0.2214
    1SAPS   C33   85   0.701   4.148  10.205  0.3687  0.0657 -0.6347
    1SAPS   H3X   86   0.613   4.215  10.202  1.8054  2.3458  2.8275
    1SAPS   H3Y   87   0.657   4.047  10.216 -0.8015  0.6291 -0.0182
    1SAPS   C34   88   0.786   4.152  10.076 -0.4818  0.5649 -0.3206
    1SAPS   H4X   89   0.857   4.069  10.095  0.8010  1.5183 -0.7906
    1SAPS   H4Y   90   0.846   4.244  10.057 -0.9898  0.7380 -1.1535
    1SAPS   C35   91   0.687   4.125   9.960 -0.1456 -0.4794  0.2650
    1SAPS   H5X   92   0.608   4.204   9.966 -0.5253 -0.5766 -2.1183
    1SAPS   H5Y   93   0.645   4.023   9.970 -1.9462  0.1902 -0.1367
    1SAPS   C36   94   0.754   4.132   9.815  0.0554 -1.4674  1.1462
    1SAPS   H6X   95   0.807   4.037   9.790  2.0625 -0.1573  0.0919
    1SAPS   H6Y   96   0.835   4.208   9.830 -1.6101  0.4966  0.6320
    1SAPS   C37   97   0.655   4.161   9.700 -0.4889  0.1830 -0.3807
    1SAPS   H7X   98   0.610   4.262   9.703 -1.0637 -0.0139 -1.5541
    1SAPS   H7Y   99   0.565   4.096   9.710 -1.8713  1.5238 -2.9524
    1SAPS   C38  100   0.707   4.152   9.556  0.8509  0.0779  0.7389
    1SAPS   H8X  101   0.764   4.059   9.535  0.1943 -0.2852  0.5304
    1SAPS   H8Y  102   0.777   4.234   9.533  1.9578 -1.3089 -1.1697
    1SAPS   C39  103   0.594   4.141   9.449 -0.1271 -0.2811 -0.2350
    1SAPS   H9X  104   0.524   4.226   9.464  1.0114  0.6323  0.0609
    1SAPS   H9Y  105   0.537   4.047   9.461  1.3843 -1.1866  0.1247
    1SAPS  C310  106   0.633   4.151   9.299 -1.0157 -0.0453  0.1464
    1SAPS  H10X  107   0.695   4.242   9.284 -1.2439  0.1912  0.6049
    1SAPS  H10Y  108   0.547   4.167   9.230 -0.1208 -0.0149 -0.9864
    1SAPS  C311  109   0.708   4.023   9.256 -1.1369  0.5015  0.1318
    1SAPS  H11X  110   0.653   3.933   9.291  0.7882  0.3166  2.9627
    1SAPS  H11Y  111   0.810   4.032   9.299 -0.3417  1.7799 -1.8591
    1SAPS  C312  112   0.738   4.002   9.104 -0.0949 -0.3389 -0.8501
    1SAPS  H12X  113   0.798   3.910   9.089  0.3402  0.2655 -3.2668
    1SAPS  H12Y  114   0.811   4.080   9.072  0.1831 -0.2056  0.0786
    1SAPS  C313  115   0.608   4.007   9.015 -0.3371 -0.2383 -0.4828
    1SAPS  H13X  116   0.567   4.110   9.027 -0.4033  0.0440 -2.7143
    1SAPS  H13Y  117   0.531   3.930   9.037  1.6082 -2.9233 -2.5098
    1SAPS  C314  118   0.636   3.974   8.864  0.3690 -0.1051 -0.1556
    1SAPS  H14X  119   0.729   4.034   8.851  0.8818 -0.6309  0.9930
    1SAPS  H14Y  120   0.563   4.026   8.799 -0.7414  0.4030  1.4420
    1SAPS  C315  121   0.672   3.831   8.832 -0.2354  0.0907 -0.4584
    1SAPS  H15X  122   0.576   3.776   8.831 -0.5848  0.7024 -1.8014
    1SAPS  H15Y  123   0.737   3.795   8.914  2.4424 -0.1652 -2.5567
    1SAPS  C316  124   0.744   3.793   8.703 -0.2273  0.3962  0.4832
    1SAPS  H16X  125   0.685   3.840   8.621 -0.3476  0.5001  0.6269
    1SAPS  H16Y  126   0.727   3.685   8.687 -0.7907  0.0134  3.2429
    1SAPS  C317  127   0.892   3.821   8.693 -1.1550  0.0784  0.0618
    1SAPS  H17X  128   0.954   3.781   8.776  0.9445  3.5091  0.3095
    1SAPS  H17Y  129   0.901   3.931   8.694  2.0999 -0.0956 -0.3978
    1SAPS  C318  130   0.965   3.773   8.566  0.0080 -0.1941  0.3049
    1SAPS  H18X  131   1.073   3.793   8.580  0.0989 -0.2886 -0.2217
    1SAPS  H18Y  132   0.935   3.831   8.476 -0.8206  0.0135  0.7014
    1SAPS  H18Z  133   0.953   3.664   8.552  0.7195 -0.4567  1.6576
    2SAPS     N  134   5.880   4.960  10.943 -0.6501  0.3935 -0.7824
    2SAPS   HN1  135   5.923   5.021  11.016  0.8137  1.5348 -2.5046
    2SAPS   HN2  136   5.929   4.980  10.854  0.1200 -0.3239 -0.5331
    2SAPS   HN3  137   5.779   4.981  10.928 -0.2943 -0.3724 -5.5635
    2SAPS   C12  138   5.919   4.822  10.974  0.3786  0.4380 -0.3474
    2SAPS  H12A  139   6.027   4.826  10.977  0.3379  2.2248 -0.3473
    2SAPS   C13  140   5.875   4.767  11.111 -0.1527 -1.3150 -0.2306
    2SAPS  O13A  141   5.805   4.843  11.191 -0.0467 -0.0444  0.1091
    2SAPS  O13B  142   5.936   4.668  11.156 -0.1347 -0.3185  0.5610
    2SAPS   C11  143   5.869   4.722  10.862 -0.0977 -0.4925 -0.0964
    2SAPS  H11A  144   5.760   4.709  10.875 -0.2936 -0.5961 -1.7322
    2SAPS  H11B  145   5.933   4.637  10.893  0.1216  0.2527  1.6305
    2SAPS     P  146   5.965   4.670  10.627 -0.1897 -0.3185 -0.4127
    2SAPS   O13  147   6.107   4.701  10.656  0.1647  0.3491  0.2911
    2SAPS   O14  148   5.908   4.540  10.654  0.2361 -0.5864  0.2951
    2SAPS   O12  149   5.891   4.765  10.728  0.1140 -0.9684 -0.4035
    2SAPS   O11  150   5.921   4.719  10.485 -0.1869 -0.0108  0.4925
    2SAPS    C1  151   5.877   4.851  10.471 -0.4104 -0.0130  0.1004
    2SAPS    HA  152   5.799   4.888  10.541 -0.1499  1.9031 -0.5638
    2SAPS    HB  153   5.963   4.922  10.480 -0.7803  0.5050 -0.4163
    2SAPS    C2  154   5.830   4.878  10.323  0.4773 -0.0571  0.4481
    2SAPS    HS  155   5.822   4.989  10.311  0.2415  0.2242  2.7112
    2SAPS   O21  156   5.706   4.811  10.288  0.2697  0.4473  0.4047
    2SAPS   C21  157   5.597   4.878  10.316  0.0213 -0.0683 -0.4779
    2SAPS   O22  158   5.596   4.986  10.379 -0.3107 -0.2766  0.3502
    2SAPS   C22  159   5.468   4.813  10.261 -0.0141  0.1706 -0.1939
    2SAPS   H2R  160   5.484   4.778  10.156  1.8604 -2.2511  0.8162
    2SAPS   H2S  161   5.457   4.724  10.326 -0.3832 -1.1118 -1.9182
    2SAPS    C3  162   5.942   4.825  10.229  0.1779 -0.0245  0.0952
    2SAPS    HX  163   5.970   4.721  10.258  2.4627  0.7128  0.7991
    2SAPS    HY  164   6.032   4.887  10.253 -0.7388  1.5155 -0.3124
    2SAPS   O31  165   5.915   4.846  10.091  0.0551  0.5231 -0.1712
    2SAPS   C31  166   5.862   4.746  10.036  0.2282  1.0970  0.0766
    2SAPS   O32  167   5.833   4.636  10.081 -0.3236 -0.4355  0.4179
    2SAPS   C32  168   5.839   4.777   9.890 -0.7294 -0.4064 -0.4964
    2SAPS   H2X  169   5.876   4.694   9.826 -0.0322 -0.6940  0.2646
    2SAPS   H2Y  170   5.893   4.867   9.855  2.0286 -1.9844 -0.5689
    2SAPS   C23  171   5.337   4.896  10.277  0.1151 -0.3213  0.7228
    2SAPS   H3R  172   5.340   4.953  10.372 -2.0780 -1.1042  1.3239
    2SAPS   H3S  173   5.259   4.816  10.282 -1.3381  0.9490 -0.3543
    2SAPS   C24  174   5.305   4.992  10.158  0.2860  0.6328 -0.2445
    2SAPS   H4R  175   5.197   5.015  10.167  0.1319  0.0513 -0.6006
    2SAPS   H4S  176   5.308   4.937  10.062 -0.5213 -0.0142  0.0814
    2SAPS   C25  177   5.374   5.119  10.154 -0.3657 -0.6004 -0.5073
    2SAPS   H5R  178   5.383   5.172  10.250  3.0838 -4.4434  1.5795
    2SAPS   C26  179   5.426   5.178  10.039  0.0951  0.0712 -0.1587
    2SAPS   H6R  180   5.502   5.255  10.057  0.9018 -1.4507  4.4064
    2SAPS   C27  181   5.416   5.112   9.904 -0.0288 -0.4663 -0.1046
    2SAPS   H7R  182   5.311   5.084   9.883  0.3624 -3.3382  1.2576
    2SAPS   H7S  183   5.477   5.019   9.910  0.1987 -0.3232 -0.1841
    2SAPS   C28  184   5.462   5.204   9.789  0.2198  0.2123 -0.6259
    2SAPS   H8R  185   5.447   5.309   9.820  0.0290 -0.2544  0.9348
    2SAPS   C29  186   5.504   5.178   9.663 -0.0277 -0.4893 -0.6175
    2SAPS   H9R  187   5.545   5.265   9.610 -0.2089 -0.0092  0.0245
    2SAPS  C210  188   5.517   5.039   9.614  0.3113  0.3120  0.4731
    2SAPS  H10R  189   5.434   4.983   9.661 -0.1853  0.3969 -0.3011
    2SAPS  H10S  190   5.612   5.009   9.664  1.2201  0.7348 -0.9312
    2SAPS  C211  191   5.519   5.016   9.463 -0.6987  0.4143 -0.6376
    2SAPS  H11R  192   5.469   5.082   9.390 -0.8970 -1.1150 -1.9319
    2SAPS  C212  193   5.589   4.914   9.409  0.1143  0.6741  0.1808
    2SAPS  H12R  194   5.596   4.900   9.300 -0.1044 -0.4576  0.3004
    2SAPS  C213  195   5.672   4.816   9.498  0.0782 -0.4257  0.2366
    2SAPS  H13R  196   5.603   4.788   9.581 -0.2384  0.8779  0.4362
    2SAPS  H13S  197   5.766   4.847   9.549  0.9407 -4.2589  1.2540
    2SAPS  C214  198   5.706   4.695   9.415 -0.0221  0.5432 -0.5780
    2SAPS  H14R  199   5.640   4.651   9.339  0.7395 -3.6488  0.9006
    2SAPS  C215  200   5.838   4.643   9.414 -0.6372 -0.1081  0.4041
    2SAPS  H15R  201   5.856   4.564   9.340  0.2492 -0.3419  0.8578
    2SAPS  C216  202   5.966   4.685   9.494  0.8723 -0.8035 -0.6703
    2SAPS  H16R  203   5.936   4.743   9.585 -3.4096 -1.4498 -1.4787
    2SAPS  H16S  204   6.033   4.747   9.431 -0.1824  0.9851 -0.1380
    2SAPS  C217  205   6.049   4.565   9.551 -0.0101 -0.0707 -1.1393
    2SAPS  H17R  206   5.997   4.467   9.556  1.6269 -0.9494 -0.3305
    2SAPS  H17S  207   6.088   4.588   9.653 -1.0182 -1.0875 -0.5000
    2SAPS  C218  208   6.163   4.530   9.454 -0.8331 -0.0121  0.0031
    2SAPS  H18R  209   6.258   4.585   9.474  0.3570 -2.4338  1.4350
    2SAPS  H18S  210   6.123   4.549   9.352 -0.4018  0.1642 -0.1381
    2SAPS  C219  211   6.184   4.378   9.461  0.9018  0.3507 -0.5409
    2SAPS  H19R  212   6.250   4.339   9.381 -0.0117 -2.3861 -0.0420
    2SAPS  H19S  213   6.086   4.332   9.437  0.9543  0.8323 -1.7617
    2SAPS  C220  214   6.234   4.308   9.589 -0.2176 -0.2512  0.6682
    2SAPS  H20R  215   6.190   4.340   9.685 -0.7957  2.0966 -0.3164
    2SAPS  H20S  216   6.343   4.327   9.600  0.7378 -2.2461 -3.2738
    2SAPS  H20T  217   6.220   4.198   9.576 -0.0981 -0.2883  0.8642
    2SAPS   C33  218   5.689   4.815   9.868 -0.2338 -0.0062  0.3161
    2SAPS   H3X  219   5.675   4.859   9.767  2.6437  0.2135 -0.0540
    2SAPS   H3Y  220   5.667   4.893   9.945  0.4850  0.6532 -0.1393
    2SAPS   C34  221   5.595   4.697   9.884  0.2449 -0.2715  0.7219
    2SAPS   H4X  222   5.591   4.683   9.994  0.2860 -0.9907  0.6375
    2SAPS   H4Y  223   5.639   4.610   9.831  0.0149 -0.4783  0.8662
    2SAPS   C35  224   5.443   4.712   9.849 -0.4676  0.3440  0.1070
    2SAPS   H5X  225   5.452   4.739   9.742  1.8618 -1.1139 -0.1325
    2SAPS   H5Y  226   5.403   4.793   9.914 -0.0068 -1.2754  2.5566
    2SAPS   C36  227   5.354   4.589   9.877 -0.0834  0.9588 -0.2976
    2SAPS   H6X  228   5.248   4.624   9.873  0.1822  1.8653  0.2415
    2SAPS   H6Y  229   5.380   4.541   9.974 -0.5776  0.6303 -0.3263
    2SAPS   C37  230   5.373   4.462   9.783  0.4816 -0.6366  0.1679
    2SAPS   H7X  231   5.303   4.388   9.827  0.8095 -0.7283  0.5365
    2SAPS   H7Y  232   5.478   4.436   9.805  0.2098 -1.9682 -0.0289
    2SAPS   C38  233   5.335   4.503   9.639  0.1565  0.3317 -0.2579
    2SAPS   H8X  234   5.427   4.559   9.609  0.8199 -0.2675  0.6081
    2SAPS   H8Y  235   5.244   4.567   9.636 -0.1599 -0.0859  0.4903
    2SAPS   C39  236   5.330   4.380   9.545  0.1152 -0.1344 -0.3205
    2SAPS   H9X  237   5.240   4.318   9.564 -0.4770  0.5491 -0.8524
    2SAPS   H9Y  238   5.418   4.315   9.565 -0.5898 -1.7589 -2.1387
    2SAPS  C310  239   5.351   4.418   9.400 -0.1855 -0.1442 -0.6318
    2SAPS  H10X  240   5.439   4.482   9.380  0.9409 -1.6514 -0.6256
    2SAPS  H10Y  241   5.267   4.483   9.367  0.3658 -0.3456 -2.5369
    2SAPS  C311  242   5.361   4.291   9.312  0.4585 -0.6356  0.4167
    2SAPS  H11X  243   5.285   4.213   9.334 -0.0333 -0.5630 -0.9210
    2SAPS  H11Y  244   5.461   4.244   9.325  0.4949 -0.2745  1.5205
    2SAPS  C312  245   5.350   4.327   9.162 -0.3659 -0.2701  0.2721
    2SAPS  H12X  246   5.258   4.383   9.137 -0.6592 -0.0986  1.6746
    2SAPS  H12Y  247   5.341   4.229   9.111  2.1019 -0.5355  0.2069
    2SAPS  C313  248   5.464   4.414   9.097 -0.2165 -0.5879  0.3260
    2SAPS  H13X  249   5.564   4.372   9.121 -0.1478 -0.9870 -0.6164
    2SAPS  H13Y  250   5.464   4.517   9.139  0.9201 -0.6616  0.5521
    2SAPS  C314  251   5.462   4.432   8.936 -0.0820  0.4234 -0.3949
    2SAPS  H14X  252   5.365   4.482   8.911  0.3343  1.2046 -0.4784
    2SAPS  H14Y  253   5.455   4.328   8.897 -0.0574  0.0362  0.5877
    2SAPS  C315  254   5.586   4.518   8.896  0.3011  0.3947 -0.7138
    2SAPS  H15X  255   5.679   4.459   8.909  0.9278  1.5739  0.3926
    2SAPS  H15Y  256   5.580   4.607   8.963 -0.2931 -0.6765  0.7192
    2SAPS  C316  257   5.599   4.564   8.751  0.4535 -0.6378  0.7068
    2SAPS  H16X  258   5.509   4.627   8.736  0.7042 -0.6264 -0.8200
    2SAPS  H16Y  259   5.600   4.483   8.675  0.5867 -1.2553  1.3490
    2SAPS  C317  260   5.715   4.664   8.749  0.2844 -0.6718  0.2087
    2SAPS  H17X  261   5.804   4.622   8.800  0.8880  1.3110  0.8939
    2SAPS  H17Y  262   5.686   4.754   8.808 -1.4554 -2.2268  1.8507
    2SAPS  C318  263   5.760   4.714   8.607 -0.3352 -0.7163  0.4428
    2SAPS  H18X  264   5.862   4.756   8.617 -0.4997 -0.1274 -0.3048
    2SAPS  H18Y  265   5.696   4.786   8.552  0.2939  0.2654  0.9749
    2SAPS  H18Z  266   5.776   4.627   8.540 -0.5036  0.3600 -1.0483
    3SAPS     N  267   5.999   6.580  10.999  0.5751  0.0422 -0.4446
    3SAPS   HN1  268   5.934   6.641  10.945 -1.0552  0.6040  2.0047
    3SAPS   HN2  269   5.951   6.554  11.088  1.5831  0.2099  0.1552
    3SAPS   HN3  270   6.086   6.632  11.019  1.1892 -0.6422 -1.2593
    3SAPS   C12  271   6.058   6.458  10.923  0.2251 -0.3628  0.1230
    3SAPS  H12A  272   6.075   6.491  10.821  0.6663  0.5169  0.4734
    3SAPS   C13  273   6.196   6.421  10.978 -0.6135 -0.2316  0.4531
    3SAPS  O13A  274   6.246   6.472  11.082  0.2906 -0.2751 -0.3647
    3SAPS  O13B  275   6.250   6.320  10.917  0.0325 -0.8260 -0.6705
    3SAPS   C11  276   5.955   6.342  10.926  0.0556 -0.1648  0.1845
    3SAPS  H11A  277   5.931   6.314  11.031 -0.7859 -0.3142 -0.0481
    3SAPS  H11B  278   6.001   6.257  10.872  0.1460 -0.0755  0.1204
    3SAPS     P  279   5.727   6.266  10.836 -0.2075  0.0503  0.0158
    3SAPS   O13  280   5.798   6.136  10.839 -0.1594 -0.2900  0.3307
    3SAPS   O14  281   5.629   6.290  10.944  0.2327  0.1614 -0.1257
    3SAPS   O12  282   5.835   6.381  10.856  0.4747 -0.3070  0.2105
    3SAPS   O11  283   5.674   6.301  10.695  1.3493  0.0624  0.5852
    3SAPS    C1  284   5.777   6.330  10.589  0.5806 -0.2112 -0.5738
    3SAPS    HA  285   5.767   6.437  10.564 -1.7454 -0.4694 -1.0081
    3SAPS    HB  286   5.882   6.299  10.609  0.5755  0.0273 -0.1556
    3SAPS    C2  287   5.739   6.250  10.463  0.2477 -0.0510  0.0029
    3SAPS    HS  288   5.779   6.147  10.472  0.7346  0.1035 -0.3398
    3SAPS   O21  289   5.794   6.312  10.344  0.1375 -0.4316 -0.1679
    3SAPS   C21  290   5.912   6.278  10.306 -0.2535  0.4787 -0.2067
    3SAPS   O22  291   5.991   6.212  10.363 -0.6487  0.5427  0.0809
    3SAPS   C22  292   5.943   6.345  10.175  0.2141 -0.3091  0.2856
    3SAPS   H2R  293   5.854   6.352  10.110  1.0833 -1.8218 -1.1411
    3SAPS   H2S  294   5.971   6.452  10.188  0.4591 -0.0886 -1.8278
    3SAPS    C3  295   5.583   6.232  10.451 -0.2037  0.4656  0.0506
    3SAPS    HX  296   5.544   6.335  10.461 -0.9696  0.5260 -2.7063
    3SAPS    HY  297   5.555   6.166  10.536 -0.7340  2.5557  1.5806
    3SAPS   O31  298   5.538   6.179  10.320 -0.3395  0.1212  0.2363
    3SAPS   C31  299   5.574   6.047  10.304 -0.1188 -0.5409 -0.2183
    3SAPS   O32  300   5.610   5.974  10.395  0.5089  0.0815 -0.3154
    3SAPS   C32  301   5.566   6.011  10.156 -0.5541  1.0290  0.5733
    3SAPS   H2X  302   5.460   6.019  10.123 -0.5761  3.6225  1.0644
    3SAPS   H2Y  303   5.586   5.902  10.155 -1.2028  0.9087  0.4088
    3SAPS   C23  304   6.057   6.273  10.099 -0.2195 -0.9220 -0.2082
    3SAPS   H3R  305   6.021   6.185  10.042  0.7342 -2.4905  1.5017
    3SAPS   H3S  306   6.128   6.225  10.170 -0.5470  2.9513  3.1416
    3SAPS   C24  307   6.121   6.362   9.987  0.1499 -0.1845 -0.1304
    3SAPS   H4R  308   6.036   6.410   9.935 -1.3303  0.2189  2.4804
    3SAPS   H4S  309   6.184   6.296   9.923  1.0817 -0.5833  1.1347
    3SAPS   C25  310   6.210   6.459  10.064  0.2599  0.2270  0.6558
    3SAPS   H5R  311   6.173   6.502  10.159 -1.8621 -0.2321  0.0986
    3SAPS   C26  312   6.317   6.513  10.003 -0.1897 -0.4438 -0.2828
    3SAPS   H6R  313   6.378   6.580  10.066  0.1781  0.7265 -1.8197
    3SAPS   C27  314   6.376   6.490   9.867 -0.2331 -0.0954  0.1787
    3SAPS   H7R  315   6.402   6.383   9.856  1.6122  0.3763 -0.2798
    3SAPS   H7S  316   6.474   6.541   9.856 -1.2897  1.8314 -0.7875
    3SAPS   C28  317   6.293   6.549   9.749  0.9461 -0.6071 -0.4265
    3SAPS   H8R  318   6.230   6.636   9.770 -0.7106 -0.7121 -4.1926
    3SAPS   C29  319   6.272   6.493   9.629 -0.5758  0.6528 -0.1517
    3SAPS   H9R  320   6.228   6.544   9.543 -0.7509 -0.2545 -0.6142
    3SAPS  C210  321   6.333   6.354   9.594 -0.0113  0.5817 -0.0743
    3SAPS  H10R  322   6.349   6.287   9.681 -1.7024  1.5826  1.0526
    3SAPS  H10S  323   6.431   6.380   9.548 -0.3115  1.3134 -0.3173
    3SAPS  C211  324   6.247   6.273   9.500  0.0458 -0.3099 -0.0428
    3SAPS  H11R  325   6.177   6.208   9.554  0.6996 -1.5202 -0.6283
    3SAPS  C212  326   6.271   6.256   9.368 -0.4604  0.0329 -0.2455
    3SAPS  H12R  327   6.198   6.193   9.315 -0.1182  0.4787 -1.2880
    3SAPS  C213  328   6.372   6.321   9.280 -0.5127 -0.2061 -0.1200
    3SAPS  H13R  329   6.441   6.382   9.342 -1.9084  1.2362  0.0777
    3SAPS  H13S  330   6.316   6.401   9.228 -2.1215 -1.4558 -0.4145
    3SAPS  C214  331   6.450   6.223   9.199 -0.1845 -0.5796  0.5308
    3SAPS  H14R  332   6.502   6.147   9.259  1.4925  0.4360  0.4249
    3SAPS  C215  333   6.480   6.249   9.073  0.0267 -0.1678  0.2193
    3SAPS  H15R  334   6.552   6.189   9.016  0.2802 -0.2826  0.6562
    3SAPS  C216  335   6.433   6.366   8.984 -0.5533  0.3409  0.4969
    3SAPS  H16R  336   6.499   6.393   8.899 -0.1905 -0.5307  0.4935
    3SAPS  H16S  337   6.433   6.465   9.035 -2.2120  0.3339  0.5694
    3SAPS  C217  338   6.284   6.333   8.945  0.2568  0.3683 -0.1189
    3SAPS  H17R  339   6.225   6.284   9.025 -0.4495 -1.5529 -1.7477
    3SAPS  H17S  340   6.275   6.268   8.856 -2.2908  0.3197  0.0982
    3SAPS  C218  341   6.218   6.469   8.919 -0.0197  0.3710 -0.3014
    3SAPS  H18R  342   6.284   6.536   8.860  0.6326  0.3308  0.3669
    3SAPS  H18S  343   6.208   6.515   9.019 -0.9216  0.3050 -0.3565
    3SAPS  C219  344   6.076   6.467   8.853  0.3858 -0.7086 -0.1701
    3SAPS  H19R  345   6.028   6.567   8.849 -0.1100 -0.8659  1.3514
    3SAPS  H19S  346   6.009   6.405   8.916  1.0238  0.6514  1.9251
    3SAPS  C220  347   6.069   6.387   8.721  0.2520 -0.2913  0.1453
    3SAPS  H20R  348   6.109   6.284   8.724 -0.0603 -0.4191 -0.0849
    3SAPS  H20S  349   6.121   6.435   8.635  0.0611  0.7720  0.5991
    3SAPS  H20T  350   5.961   6.372   8.699  0.1661  0.4549  0.0157
    3SAPS   C33  351   5.668   6.090  10.074 -0.0212 -0.1155  0.3671
    3SAPS   H3X  352   5.776   6.072  10.093  0.7248  2.5671 -0.8804
    3SAPS   H3Y  353   5.639   6.194  10.103 -2.0845 -0.3869 -0.5714
    3SAPS   C34  354   5.667   6.087   9.916  0.3747 -0.4189 -0.9968
    3SAPS   H4X  355   5.559   6.093   9.892 -0.0439  0.2957  0.8922
    3SAPS   H4Y  356   5.700   5.989   9.876  3.9242  0.5474 -0.7268
    3SAPS   C35  357   5.755   6.199   9.853 -0.6804 -0.5107 -0.1489
    3SAPS   H5X  358   5.859   6.171   9.880 -0.6525 -1.7810 -1.4501
    3SAPS   H5Y  359   5.740   6.298   9.902 -1.1901  0.2159 -1.7253
    3SAPS   C36  360   5.730   6.220   9.705 -0.8663  0.5337 -0.7649
    3SAPS   H6X  361   5.626   6.243   9.672 -1.4223  1.7427  1.6025
    3SAPS   H6Y  362   5.752   6.121   9.660  1.3742  0.5220  0.2488
    3SAPS   C37  363   5.831   6.316   9.648 -0.3947 -0.7707  0.7122
    3SAPS   H7X  364   5.929   6.264   9.639  0.1473  0.4765 -1.3825
    3SAPS   H7Y  365   5.854   6.406   9.709  0.6846 -2.1804  2.5192
    3SAPS   C38  366   5.795   6.360   9.507 -0.0956  0.0742 -0.3703
    3SAPS   H8X  367   5.842   6.460   9.494 -0.5233  0.6388  1.9743
    3SAPS   H8Y  368   5.685   6.372   9.498 -0.4124  0.7805  3.0789
    3SAPS   C39  369   5.824   6.250   9.395 -0.5137  0.3152 -0.0031
    3SAPS   H9X  370   5.793   6.146   9.418  0.3219 -0.1821 -1.0310
    3SAPS   H9Y  371   5.935   6.248   9.398 -0.4846  1.3044  0.0017
    3SAPS  C310  372   5.757   6.285   9.262  0.2811 -0.7633  0.2260
    3SAPS  H10X  373   5.648   6.295   9.282  0.3790  0.0552  0.4073
    3SAPS  H10Y  374   5.782   6.200   9.195  1.2011 -1.2635  1.1857
    3SAPS  C311  375   5.807   6.421   9.194  0.1245 -0.5316  0.4938
    3SAPS  H11X  376   5.882   6.389   9.118  1.6497 -1.0277  2.1565
    3SAPS  H11Y  377   5.855   6.487   9.269  0.5183  1.2637 -1.2320
    3SAPS  C312  378   5.706   6.500   9.112 -0.3050  1.0272 -0.8577
    3SAPS  H12X  379   5.610   6.503   9.167 -0.5710 -1.5943 -1.0620
    3SAPS  H12Y  380   5.693   6.441   9.018 -2.0086  0.1194 -0.1019
    3SAPS  C313  381   5.757   6.635   9.073  0.0802 -0.2680 -0.4159
    3SAPS  H13X  382   5.862   6.625   9.038 -0.3382 -2.7484 -1.1507
    3SAPS  H13Y  383   5.756   6.694   9.167  2.2318 -0.4358 -0.2405
    3SAPS  C314  384   5.678   6.705   8.968  0.6108 -0.1433 -0.0508
    3SAPS  H14X  385   5.719   6.808   8.953  0.4682 -0.2089 -0.9514
    3SAPS  H14Y  386   5.572   6.711   9.000  0.8286 -1.3070  0.9791
    3SAPS  C315  387   5.678   6.643   8.827  0.7896 -0.2433 -0.3518
    3SAPS  H15X  388   5.628   6.544   8.834  0.6268 -0.2214 -1.1262
    3SAPS  H15Y  389   5.785   6.634   8.799  1.2979  0.4675  1.2697
    3SAPS  C316  390   5.602   6.725   8.720 -0.9497  0.3542 -1.0851
    3SAPS  H16X  391   5.623   6.681   8.619  3.2562  1.5205 -0.9257
    3SAPS  H16Y  392   5.652   6.824   8.710 -0.7913  0.3035 -0.8209
    3SAPS  C317  393   5.453   6.732   8.743 -0.3556  0.2043  0.1318
    3SAPS  H17X  394   5.424   6.775   8.842 -1.7520  3.2139 -1.4541
    3SAPS  H17Y  395   5.417   6.627   8.741  0.8672 -0.2202 -1.4969
    3SAPS  C318  396   5.390   6.822   8.641  0.3902  0.1752  0.3067
    3SAPS  H18X  397   5.280   6.806   8.646  0.1628  1.7733  1.1929
    3SAPS  H18Y  398   5.418   6.783   8.541 -0.3379 -3.1840  1.2777
    3SAPS  H18Z  399   5.416   6.930   8.650  3.0825 -0.5622  2.7964
    4SAPS     N  400   2.046   0.683  10.800 -0.5011 -0.0960 -0.4931
    4SAPS   HN1  401   1.998   0.596  10.830  1.2150 -0.8452  0.2057
    4SAPS   HN2  402   1.982   0.734  10.736 -2.9756 -1.0748  1.0676
    4SAPS   HN3  403   2.126   0.657  10.739  1.5332  1.8885  1.1395
    4SAPS   C12  404   2.084   0.777  10.910 -0.4643  0.0040  0.0310
    4SAPS  H12A  405   2.000   0.772  10.978 -0.1885 -1.7490  0.2937
    4SAPS   C13  406   2.218   0.747  10.991 -0.6790  0.6303  0.6898
    4SAPS  O13A  407   2.284   0.643  10.952 -0.4017  0.4042 -0.2797
    4SAPS  O13B  408   2.260   0.828  11.072 -0.6642  0.5422 -0.4566
    4SAPS   C11  409   2.080   0.922  10.846  0.6515 -0.6953  0.2131
    4SAPS  H11A  410   2.157   0.936  10.768  0.2050 -0.5499 -0.2111
    4SAPS  H11B  411   2.086   0.989  10.935  0.0306  1.7534 -1.4751
    4SAPS     P  412   1.921   1.099  10.736 -0.2627  0.1458 -0.0673
    4SAPS   O13  413   1.803   1.152  10.807  0.0811 -0.1876 -0.0899
    4SAPS   O14  414   2.044   1.174  10.734  0.2976 -0.9608  0.0941
    4SAPS   O12  415   1.950   0.948  10.789  0.4781 -0.4586  0.1126
    4SAPS   O11  416   1.873   1.067  10.591  0.2109 -0.5648  0.2032
    4SAPS    C1  417   1.944   0.977  10.506 -0.4131  0.6956 -0.0228
    4SAPS    HA  418   2.017   1.040  10.450 -0.4241  0.0292 -0.8006
    4SAPS    HB  419   1.995   0.902  10.570  1.0660  1.8925  0.2614
    4SAPS    C2  420   1.854   0.907  10.406 -0.3431  0.7104  0.0355
    4SAPS    HS  421   1.910   0.844  10.334 -0.2902  0.5606  0.2080
    4SAPS   O21  422   1.786   1.010  10.330  0.0464 -0.1570  0.0646
    4SAPS   C21  423   1.858   1.063  10.225  0.1332 -0.8358 -0.2039
    4SAPS   O22  424   1.950   1.009  10.171 -0.8110 -0.0051  0.1274
    4SAPS   C22  425   1.773   1.187  10.184  0.0693 -0.1946 -0.0936
    4SAPS   H2R  426   1.752   1.250  10.273 -0.7078 -0.5541 -0.0083
    4SAPS   H2S  427   1.836   1.244  10.113  1.3143 -1.9191 -0.4218
    4SAPS    C3  428   1.755   0.806  10.476 -0.0684 -0.0257 -0.0370
    4SAPS    HX  429   1.692   0.864  10.546  0.5210 -0.4254  0.8417
    4SAPS    HY  430   1.820   0.732  10.528 -0.2213 -0.0966  0.0535
    4SAPS   O31  431   1.675   0.741  10.381  0.0973  0.0469 -0.3369
    4SAPS   C31  432   1.550   0.786  10.366  0.6677 -0.3933  0.5393
    4SAPS   O32  433   1.493   0.882  10.416 -0.2006  0.2815 -0.1611
    4SAPS   C32  434   1.474   0.695  10.260 -0.5794  0.0632  0.2011
    4SAPS   H2X  435   1.370   0.730  10.245  0.1245  1.9972 -0.3726
    4SAPS   H2Y  436   1.468   0.598  10.316  1.2597  0.7800  1.7499
    4SAPS   C23  437   1.633   1.139  10.127 -0.9030  0.1805  0.1117
    4SAPS   H3R  438   1.566   1.228  10.125 -2.6049 -1.0470 -0.5455
    4SAPS   H3S  439   1.593   1.063  10.198 -1.8546  0.9136  0.3891
    4SAPS   C24  440   1.653   1.083   9.988  0.0782  0.2770  1.2063
    4SAPS   H4R  441   1.570   1.011   9.969 -1.4717  2.0694  0.9055
    4SAPS   H4S  442   1.751   1.031   9.998 -0.5557 -1.1909  0.2571
    4SAPS   C25  443   1.655   1.187   9.876  0.0428  0.2164 -1.0892
    4SAPS   H5R  444   1.728   1.265   9.900  0.2745 -0.6303  1.2806
    4SAPS   C26  445   1.597   1.179   9.755 -0.4775  0.0900 -0.9763
    4SAPS   H6R  446   1.632   1.259   9.687  1.7800 -0.2128 -0.2518
    4SAPS   C27  447   1.528   1.056   9.702 -0.4644  0.0841  0.3497
    4SAPS   H7R  448   1.436   1.083   9.647  0.9800  1.8258 -1.3873
    4SAPS   H7S  449   1.490   0.991   9.783  0.6980 -0.9957  0.0716
    4SAPS   C28  450   1.631   0.978   9.626  0.0378 -0.9621  0.0411
    4SAPS   H8R  451   1.683   0.902   9.685 -0.5787 -0.6878  0.9597
    4SAPS   C29  452   1.659   0.984   9.497 -0.3598 -0.2109  0.7633
    4SAPS   H9R  453   1.755   0.942   9.464 -0.1684  1.0502 -0.3649
    4SAPS  C210  454   1.587   1.077   9.393 -0.9306 -0.0641 -0.0850
    4SAPS  H10R  455   1.672   1.108   9.329  0.3766 -2.1873  0.5043
    4SAPS  H10S  456   1.542   1.165   9.443  0.5985  0.9643 -0.4344
    4SAPS  C211  457   1.487   1.009   9.302  0.8096  0.5134 -0.6181
    4SAPS  H11R  458   1.395   0.986   9.357  0.8710  2.7378  0.5310
    4SAPS  C212  459   1.486   0.982   9.171 -0.7481 -0.5233 -0.2214
    4SAPS  H12R  460   1.406   0.922   9.126 -2.2362  0.6821  0.7119
    4SAPS  C213  461   1.594   1.017   9.072 -0.3245 -0.2533 -0.2127
    4SAPS  H13R  462   1.617   0.937   8.997  0.0289 -0.8823  0.5499
    4SAPS  H13S  463   1.690   1.034   9.126  0.3098  2.9872 -2.1383
    4SAPS  C214  464   1.562   1.147   9.008 -0.0061 -0.6639 -0.0647
    4SAPS  H14R  465   1.529   1.230   9.074 -1.4848 -0.4740 -0.9933
    4SAPS  C215  466   1.562   1.182   8.875 -1.2754  0.0448 -0.2737
    4SAPS  H15R  467   1.526   1.279   8.838 -0.0823  0.7692  0.4140
    4SAPS  C216  468   1.601   1.091   8.765 -0.0550 -0.4274  0.2310
    4SAPS  H16R  469   1.621   0.990   8.808  0.7350 -0.2440  0.2975
    4SAPS  H16S  470   1.694   1.119   8.711  0.4249 -0.3371  1.0868
    4SAPS  C217  471   1.481   1.077   8.666  0.3949 -0.1193  0.4480
    4SAPS  H17R  472   1.470   1.175   8.616 -0.0219 -0.0975  0.5789
    4SAPS  H17S  473   1.392   1.043   8.722  0.0437 -1.1596 -0.7057
    4SAPS  C218  474   1.502   0.965   8.565 -0.4027 -0.0551  0.2404
    4SAPS  H18R  475   1.430   0.970   8.480 -0.9987 -1.8885  0.5813
    4SAPS  H18S  476   1.470   0.868   8.609  1.1066 -0.5763  0.2812
    4SAPS  C219  477   1.638   0.938   8.495 -0.4047  0.7396 -0.2809
    4SAPS  H19R  478   1.730   0.939   8.558 -0.0458 -0.3689 -0.7664
    4SAPS  H19S  479   1.671   1.021   8.429  2.1650 -1.0545 -1.4504
    4SAPS  C220  480   1.650   0.806   8.424  0.1045  0.3656  0.7675
    4SAPS  H20R  481   1.742   0.818   8.362  0.7524  0.1971  1.6845
    4SAPS  H20S  482   1.564   0.804   8.354  2.0413  1.4480 -1.7966
    4SAPS  H20T  483   1.647   0.720   8.494  0.3824  0.0624  0.4107
    4SAPS   C33  484   1.549   0.694  10.124 -0.7160 -0.4829 -0.8685
    4SAPS   H3X  485   1.658   0.703  10.145 -0.6355 -1.0671 -1.0155
    4SAPS   H3Y  486   1.523   0.781  10.060 -1.8626  0.2445  0.5361
    4SAPS   C34  487   1.528   0.562  10.044 -0.6731 -0.0504 -0.8255
    4SAPS   H4X  488   1.511   0.474  10.110  1.0357  0.3300  0.1791
    4SAPS   H4Y  489   1.608   0.541   9.969 -1.5305  2.9761 -2.7572
    4SAPS   C35  490   1.399   0.566   9.968 -0.4304 -0.0043 -0.2689
    4SAPS   H5X  491   1.321   0.617  10.030  1.0515  2.0268  0.0177
    4SAPS   H5Y  492   1.361   0.468   9.933  1.8368 -0.5920 -1.2254
    4SAPS   C36  493   1.399   0.649   9.833  0.5745  0.3303 -0.2660
    4SAPS   H6X  494   1.491   0.617   9.780  0.4906 -3.3895  1.5531
    4SAPS   H6Y  495   1.389   0.757   9.859 -3.2072 -0.4582  2.3288
    4SAPS   C37  496   1.277   0.626   9.736  0.3519 -0.7671 -0.3654
    4SAPS   H7X  497   1.177   0.648   9.780  0.8449 -1.9075  1.3958
    4SAPS   H7Y  498   1.276   0.519   9.707  1.2706 -0.6464 -0.8822
    4SAPS   C38  499   1.298   0.707   9.606  0.1119 -0.1216  0.1553
    4SAPS   H8X  500   1.409   0.705   9.596  0.0499 -0.2239 -0.6103
    4SAPS   H8Y  501   1.266   0.812   9.620 -1.2411 -0.2795 -1.3662
    4SAPS   C39  502   1.222   0.652   9.485  0.2218 -0.2614 -0.1288
    4SAPS   H9X  503   1.245   0.714   9.396 -1.4301  1.2843  0.4323
    4SAPS   H9Y  504   1.112   0.663   9.503  0.4992  1.4700  0.8462
    4SAPS  C310  505   1.255   0.505   9.459 -0.7346 -0.0829  0.2134
    4SAPS  H10X  506   1.206   0.441   9.536 -0.1848  0.9023  1.4137
    4SAPS  H10Y  507   1.366   0.497   9.465 -0.6723  1.2587  1.4575
    4SAPS  C311  508   1.203   0.460   9.320  0.2908 -0.3851  0.0434
    4SAPS  H11X  509   1.238   0.526   9.238  2.5893 -1.0025  0.4535
    4SAPS  H11Y  510   1.094   0.477   9.327 -0.1643 -2.4266 -1.2840
    4SAPS  C312  511   1.237   0.316   9.290  0.0327 -0.0894 -0.4657
    4SAPS  H12X  512   1.205   0.249   9.372  1.0987 -0.4360 -0.3141
    4SAPS  H12Y  513   1.347   0.307   9.279 -0.0707  0.4170 -2.1721
    4SAPS  C313  514   1.162   0.268   9.165 -0.4123 -0.6215 -0.2024
    4SAPS  H13X  515   1.206   0.329   9.084 -2.7648  1.6067  0.0344
    4SAPS  H13Y  516   1.054   0.291   9.182 -0.1647  0.4896 -0.0901
    4SAPS  C314  517   1.168   0.117   9.142 -0.0678 -0.3400 -0.2125
    4SAPS  H14X  518   1.141   0.051   9.227  1.4873 -2.7514 -1.4678
    4SAPS  H14Y  519   1.276   0.108   9.118 -0.0614 -1.2226  0.1220
    4SAPS  C315  520   1.090   0.069   9.021 -0.5849 -0.5927  0.0151
    4SAPS  H15X  521   0.986   0.107   9.020 -0.8590 -1.3199 -0.9993
    4SAPS  H15Y  522   1.080  -0.041   9.011  0.1555 -0.5042 -2.5143
    4SAPS  C316  523   1.150   0.135   8.899 -0.1148 -0.5954 -0.0513
    4SAPS  H16X  524   1.138   0.245   8.889 -2.5580 -0.8167 -0.0438
    4SAPS  H16Y  525   1.072   0.112   8.823 -1.6760  2.1350  0.5692
    4SAPS  C317  526   1.282   0.089   8.848 -0.9870  0.3169 -0.5600
    4SAPS  H17X  527   1.280  -0.021   8.862 -0.8485  0.2660 -0.9282
    4SAPS  H17Y  528   1.357   0.126   8.921 -3.2984 -0.4826  2.4229
    4SAPS  C318  529   1.310   0.120   8.706  0.0834 -0.3924 -0.0625
    4SAPS  H18X  530   1.300   0.231   8.701  0.5535 -0.3030  0.8751
    4SAPS  H18Y  531   1.242   0.063   8.639 -0.3108  0.6224 -0.5508
    4SAPS  H18Z  532   1.413   0.097   8.673  0.3807 -1.2602  1.4184
    5SAPS     N  533   6.039   1.001  11.280 -0.1708  0.1669 -1.2931
    5SAPS   HN1  534   6.077   0.946  11.360  1.4308  3.7022  0.6023
    5SAPS   HN2  535   6.113   1.063  11.242 -0.5419  0.3462 -1.7307
    5SAPS   HN3  536   5.965   1.054  11.331  1.2933 -0.4897  1.7353
    5SAPS   C12  537   5.989   0.902  11.182  0.4255  0.1354 -0.4985
    5SAPS  H12A  538   6.057   0.819  11.184  0.5724  0.2635 -0.1120
    5SAPS   C13  539   5.838   0.864  11.205 -0.6235 -0.1154 -0.4549
    5SAPS  O13A  540   5.785   0.893  11.318  0.2428 -0.4441  0.7668
    5SAPS  O13B  541   5.799   0.768  11.127 -0.2233  0.1691 -0.1655
    5SAPS   C11  542   5.984   0.972  11.046  0.2632  0.5406 -0.4673
    5SAPS  H11A  543   5.916   1.059  11.049 -2.2918 -1.3494 -0.1773
    5SAPS  H11B  544   5.950   0.898  10.970 -1.1874 -0.7539  1.3537
    5SAPS     P  545   6.223   0.931  10.935 -0.1503 -0.2074  0.2673
    5SAPS   O13  546   6.347   1.000  10.918 -0.1836 -0.1662  0.3871
    5SAPS   O14  547   6.239   0.799  10.998 -0.2523 -0.3765 -0.1304
    5SAPS   O12  548   6.121   1.021  11.018  0.0847  0.5095  0.1113
    5SAPS   O11  549   6.152   0.903  10.796 -0.6220 -0.0939 -0.0252
    5SAPS    C1  550   6.111   1.009  10.712 -0.2441 -0.3433  0.5882
    5SAPS    HA  551   6.074   1.098  10.766  1.9384  0.8241  0.2723
    5SAPS    HB  552   6.189   1.037  10.638  0.6735 -1.7559  0.9675
    5SAPS    C2  553   5.997   0.967  10.611  0.7301  0.4038 -0.3817
    5SAPS    HS  554   5.914   0.936  10.678  1.3954 -2.2183 -0.6277
    5SAPS   O21  555   6.039   0.861  10.528 -0.1617 -0.1693  0.2088
    5SAPS   C21  556   5.947   0.777  10.494  0.4387  0.1331  0.1524
    5SAPS   O22  557   5.831   0.770  10.537 -0.4872  0.8690 -0.0760
    5SAPS   C22  558   5.997   0.686  10.378 -0.4408  0.2930  0.0909
    5SAPS   H2R  559   5.995   0.752  10.288  2.4720  0.8191  0.3111
    5SAPS   H2S  560   6.104   0.657  10.388 -0.0678  1.8627  0.9240
    5SAPS    C3  561   5.953   1.089  10.524  1.0570  0.1979  0.1489
    5SAPS    HX  562   5.962   1.183  10.582  1.3700  1.8521 -2.4356
    5SAPS    HY  563   5.845   1.069  10.503  0.9896  0.2186  0.4711
    5SAPS   O31  564   6.039   1.107  10.408 -0.0912 -0.6345  0.1295
    5SAPS   C31  565   5.981   1.087  10.289  0.7935  0.0004  0.3235
    5SAPS   O32  566   5.871   1.035  10.272  0.2998 -0.1195  0.1683
    5SAPS   C32  567   6.064   1.151  10.173  0.4335 -0.3284  0.0197
    5SAPS   H2X  568   6.173   1.137  10.191  0.5107 -0.3303 -0.4366
    5SAPS   H2Y  569   6.044   1.260  10.174  0.1388 -0.3793  1.0282
    5SAPS   C23  570   5.914   0.558  10.346 -0.3687 -0.2858 -0.2442
    5SAPS   H3R  571   5.804   0.573  10.345 -0.2676  0.7892  1.2325
    5SAPS   H3S  572   5.936   0.483  10.425 -0.8206 -0.4408 -0.2646
    5SAPS   C24  573   5.950   0.502  10.204  0.2709  0.3861  0.2449
    5SAPS   H4R  574   5.902   0.403  10.194 -2.0650  1.3071  1.4075
    5SAPS   H4S  575   6.056   0.470  10.208 -0.3064 -1.8342 -0.6217
    5SAPS   C25  576   5.900   0.581  10.089  0.4604 -0.0081 -0.5157
    5SAPS   H5R  577   5.790   0.590  10.089  0.5233  0.8538 -0.6287
    5SAPS   C26  578   5.974   0.646  10.002  0.5265  0.3773 -0.5245
    5SAPS   H6R  579   5.917   0.686   9.916  0.6631  1.4282 -0.1489
    5SAPS   C27  580   6.122   0.655   9.989 -0.0228  0.6296  0.1501
    5SAPS   H7R  581   6.166   0.682  10.087 -0.7039  1.1046  0.3333
    5SAPS   H7S  582   6.137   0.739   9.919 -2.5994  1.2729  0.2621
    5SAPS   C28  583   6.192   0.528   9.948 -0.3911  0.3886 -0.2941
    5SAPS   H8R  584   6.241   0.463  10.022  2.2245  1.1801 -1.2126
    5SAPS   C29  585   6.207   0.485   9.821  0.4267  0.4965  0.2153
    5SAPS   H9R  586   6.270   0.394   9.820  2.1834  1.6618 -0.8933
    5SAPS  C210  587   6.161   0.547   9.686 -0.0330  0.0078 -0.4481
    5SAPS  H10R  588   6.254   0.569   9.629  1.5480 -5.1156 -0.3543
    5SAPS  H10S  589   6.106   0.642   9.703 -1.7109 -1.0622  0.3535
    5SAPS  C211  590   6.076   0.444   9.609 -0.7668 -0.2722  0.4696
    5SAPS  H11R  591   6.069   0.342   9.651 -0.3623  0.5718  2.7332
    5SAPS  C212  592   5.999   0.467   9.498  0.6877 -0.1618 -0.3572
    5SAPS  H12R  593   5.935   0.383   9.465 -0.2557  0.6906 -0.7446
    5SAPS  C213  594   5.975   0.594   9.416 -0.9376 -0.0685  0.8378
    5SAPS  H13R  595   6.020   0.685   9.459 -1.5530  0.7072 -0.1212
    5SAPS  H13S  596   5.866   0.616   9.419 -0.7992  1.0338 -0.6721
    5SAPS  C214  597   6.018   0.585   9.262 -0.2764 -0.5873 -0.5761
    5SAPS  H14R  598   6.101   0.657   9.247  0.1577 -1.2017 -1.1594
    5SAPS  C215  599   5.970   0.507   9.156  0.2516 -0.1474 -0.0576
    5SAPS  H15R  600   6.022   0.515   9.060 -0.1120  2.3695 -0.1057
    5SAPS  C216  601   5.857   0.411   9.179  0.4417  0.5829 -0.3842
    5SAPS  H16R  602   5.824   0.410   9.285 -1.3130  0.9507 -0.8829
    5SAPS  H16S  603   5.880   0.308   9.146  0.3467 -0.2275  1.9007
    5SAPS  C217  604   5.726   0.452   9.113 -0.8151  0.7256  0.1175
    5SAPS  H17R  605   5.717   0.563   9.118 -2.1893  0.6200  0.2427
    5SAPS  H17S  606   5.635   0.410   9.161 -1.0208  1.0382  0.0114
    5SAPS  C218  607   5.721   0.425   8.956 -0.8502 -0.3728 -0.0378
    5SAPS  H18R  608   5.656   0.497   8.901 -1.5919 -0.2782  0.9275
    5SAPS  H18S  609   5.825   0.443   8.924 -1.1679 -0.3354 -1.0842
    5SAPS  C219  610   5.690   0.282   8.912 -0.0972 -0.3352 -0.2858
    5SAPS  H19R  611   5.750   0.215   8.977  0.8083  1.5750  0.9199
    5SAPS  H19S  612   5.723   0.265   8.807  0.9081  0.5979 -0.1326
    5SAPS  C220  613   5.537   0.258   8.916 -0.7507  0.1779  0.4620
    5SAPS  H20R  614   5.494   0.283   9.015  0.3479  1.9583  0.5383
    5SAPS  H20S  615   5.512   0.155   8.881 -0.3695  0.8655 -2.0463
    5SAPS  H20T  616   5.488   0.322   8.840  0.4616  0.9131  0.2719
    5SAPS   C33  617   6.013   1.095  10.035 -0.0243 -0.1071 -0.4753
    5SAPS   H3X  618   5.905   1.120  10.024 -0.1698 -0.2596  0.5085
    5SAPS   H3Y  619   6.014   0.984  10.028 -2.0963 -0.0608 -2.8514
    5SAPS   C34  620   6.078   1.164   9.914 -0.1470  0.7909  0.2456
    5SAPS   H4X  621   6.186   1.139   9.906  0.1979  2.5532 -1.2758
    5SAPS   H4Y  622   6.069   1.275   9.919 -1.8269  0.6650  0.4470
    5SAPS   C35  623   6.012   1.123   9.776  0.0992 -0.5734  0.2088
    5SAPS   H5X  624   6.040   1.191   9.693 -1.3768 -2.7543 -2.2426
    5SAPS   H5Y  625   5.903   1.134   9.798  0.0743 -1.6173  0.7097
    5SAPS   C36  626   6.043   0.972   9.735 -0.0804 -0.1931 -0.2767
    5SAPS   H6X  627   6.083   0.928   9.829 -2.6794 -0.3250  0.8852
    5SAPS   H6Y  628   6.119   0.969   9.655  0.9248  3.3387  0.3862
    5SAPS   C37  629   5.912   0.895   9.705 -0.3258 -0.1232  0.0813
    5SAPS   H7X  630   5.827   0.925   9.771 -1.0081  0.6171 -1.0893
    5SAPS   H7Y  631   5.936   0.789   9.728  0.5014  0.0843  0.2298
    5SAPS   C38  632   5.864   0.904   9.556 -0.2335 -0.3429  0.1849
    5SAPS   H8X  633   5.765   0.853   9.562 -1.7339  2.2397 -1.0359
    5SAPS   H8Y  634   5.954   0.862   9.506  0.4472  0.7103  0.4939
    5SAPS   C39  635   5.851   1.038   9.498 -0.5376 -0.4692 -0.3382
    5SAPS   H9X  636   5.946   1.096   9.496  0.0631 -1.4481 -1.1946
    5SAPS   H9Y  637   5.784   1.090   9.570 -1.2437  1.2223 -2.1215
    5SAPS  C310  638   5.799   1.054   9.359  0.0735  0.1706  0.2872
    5SAPS  H10X  639   5.803   1.162   9.334 -1.4203  1.0005  3.2121
    5SAPS  H10Y  640   5.696   1.014   9.352  0.4168 -0.8896  1.0533
    5SAPS  C311  641   5.895   0.980   9.261  0.2289  0.2566  1.0541
    5SAPS  H11X  642   5.920   0.878   9.296 -1.2145 -0.0225  1.3243
    5SAPS  H11Y  643   5.993   1.033   9.258  0.4591 -0.1815  0.6111
    5SAPS  C312  644   5.841   0.989   9.117  0.5283  1.0200  0.7875
    5SAPS  H12X  645   5.930   0.966   9.054  0.7237  0.6153  1.2018
    5SAPS  H12Y  646   5.800   1.091   9.100 -1.1377  0.6872  2.4429
    5SAPS  C313  647   5.722   0.895   9.090  0.6658  0.4091  0.1102
    5SAPS  H13X  648   5.638   0.929   9.155  1.1845 -1.4953  1.8827
    5SAPS  H13Y  649   5.739   0.788   9.115  0.9566 -0.3153 -2.8111
    5SAPS  C314  650   5.673   0.893   8.941  0.0406 -0.6930 -0.5805
    5SAPS  H14X  651   5.756   0.857   8.878  0.5045 -0.9976  0.1961
    5SAPS  H14Y  652   5.652   1.001   8.923 -0.4423 -0.7151 -0.1950
    5SAPS  C315  653   5.541   0.829   8.919 -0.4894 -0.0737 -0.1021
    5SAPS  H15X  654   5.464   0.899   8.960 -0.0043 -0.2597  1.1783
    5SAPS  H15Y  655   5.548   0.730   8.968  0.2406 -1.4776 -2.9042
    5SAPS  C316  656   5.510   0.799   8.772  0.4695 -0.0612  0.5774
    5SAPS  H16X  657   5.406   0.759   8.763 -0.2579  1.2394  2.4788
    5SAPS  H16Y  658   5.576   0.718   8.735  1.8636  1.6617 -0.9084
    5SAPS  C317  659   5.533   0.916   8.678 -0.1294  0.3880 -0.1310
    5SAPS  H17X  660   5.641   0.941   8.675  0.3867 -1.5248  0.8640
    5SAPS  H17Y  661   5.465   1.003   8.695 -0.8984  0.1580 -1.7949
    5SAPS  C318  662   5.507   0.871   8.534 -0.0018  0.2069  1.0914
    5SAPS  H18X  663   5.513   0.951   8.458 -1.2030 -1.8413 -1.3113
    5SAPS  H18Y  664   5.402   0.835   8.526 -1.2903  3.9282 -5.0469
    5SAPS  H18Z  665   5.571   0.784   8.507 -2.4227 -0.7809 -2.1250
    6SAPS     N  666   4.003   6.235  10.703  0.0989 -0.1426  0.6747
    6SAPS   HN1  667   3.996   6.137  10.668 -2.2583  0.1088  0.2706
    6SAPS   HN2  668   3.987   6.308  10.630 -0.0035  2.2829  2.9886
    6SAPS   HN3  669   4.099   6.252  10.738  1.2075 -1.9049 -1.2596
    6SAPS   C12  670   3.909   6.260  10.816 -0.2506  0.0115  0.1333
    6SAPS  H12A  671   3.931   6.199  10.902 -1.3438  0.3285  0.6615
    6SAPS   C13  672   3.903   6.405  10.870 -0.1315 -0.2279  0.1762
    6SAPS  O13A  673   3.986   6.489  10.825  0.0674  0.7514  0.9551
    6SAPS  O13B  674   3.810   6.440  10.948  0.1432 -0.1594 -0.2791
    6SAPS   C11  675   3.769   6.226  10.756  0.2045  0.3385 -0.0830
    6SAPS  H11A  676   3.736   6.291  10.673  1.2190 -0.7765 -1.4207
    6SAPS  H11B  677   3.699   6.236  10.841  1.5328  2.2075  0.8449
    6SAPS     P  678   3.641   6.021  10.660  0.2725  0.0931  0.0331
    6SAPS   O13  679   3.679   5.878  10.641  0.0470 -0.2164  0.3702
    6SAPS   O14  680   3.535   6.039  10.752 -0.1722 -0.0014 -0.2783
    6SAPS   O12  681   3.774   6.092  10.717 -0.5321 -0.1106  0.6202
    6SAPS   O11  682   3.614   6.102  10.523 -0.1735  0.3921 -0.2971
    6SAPS    C1  683   3.723   6.131  10.436  0.3807  0.9908 -0.2161
    6SAPS    HA  684   3.684   6.203  10.361 -0.7024 -0.8352 -1.4858
    6SAPS    HB  685   3.807   6.188  10.480  0.4250  0.3691  0.5349
    6SAPS    C2  686   3.772   6.002  10.356  0.0714 -0.2709 -0.3402
    6SAPS    HS  687   3.833   5.940  10.425 -0.0363 -0.7265 -0.6515
    6SAPS   O21  688   3.851   6.063  10.255  0.7820  0.5128  0.0287
    6SAPS   C21  689   3.932   5.980  10.195 -0.2702 -1.1358 -0.3002
    6SAPS   O22  690   3.950   5.865  10.230 -0.0783  0.4905  0.4019
    6SAPS   C22  691   3.996   6.061  10.088  0.1828 -0.0423 -0.4963
    6SAPS   H2R  692   3.915   6.107  10.026 -1.1333 -0.8639  0.5645
    6SAPS   H2S  693   4.050   6.142  10.141 -0.7920 -0.0782  0.6004
    6SAPS    C3  694   3.657   5.926  10.288 -0.1204  0.6327  0.1318
    6SAPS    HX  695   3.610   5.872  10.373  2.3061 -1.0706  0.4772
    6SAPS    HY  696   3.685   5.850  10.211 -0.9239  1.9212 -1.5003
    6SAPS   O31  697   3.557   6.014  10.233 -0.4660 -0.4148 -0.3121
    6SAPS   C31  698   3.577   6.043  10.105 -0.3956  0.1393 -0.0888
    6SAPS   O32  699   3.666   5.997  10.043  0.2563 -1.1030  0.4230
    6SAPS   C32  700   3.462   6.123  10.043 -0.5768 -0.0929  0.9608
    6SAPS   H2X  701   3.495   6.227  10.024 -1.2810  0.3241  1.9411
    6SAPS   H2Y  702   3.373   6.131  10.110 -0.6422  0.8470  0.7718
    6SAPS   C23  703   4.092   5.985   9.999  0.8160 -0.9348 -0.1915
    6SAPS   H3R  704   4.157   5.930  10.070  2.5687  0.8875 -0.2913
    6SAPS   H3S  705   4.155   6.055   9.940 -0.0573 -1.1526 -1.4094
    6SAPS   C24  706   4.030   5.887   9.897 -0.1732  0.6874  0.0106
    6SAPS   H4R  707   3.970   5.821   9.963  1.5697 -2.4440 -1.3348
    6SAPS   H4S  708   4.107   5.828   9.843 -1.1984  0.7808 -1.6315
    6SAPS   C25  709   3.932   5.957   9.805 -0.3092  0.5343 -0.2465
    6SAPS   H5R  710   3.849   5.992   9.867 -1.1816 -0.6394 -0.7248
    6SAPS   C26  711   3.934   5.974   9.672  0.5724 -0.3344  0.0962
    6SAPS   H6R  712   3.848   6.026   9.626  0.0154 -2.1457 -1.0281
    6SAPS   C27  713   4.045   5.933   9.581 -0.1958  0.3561  1.1860
    6SAPS   H7R  714   4.012   5.839   9.531 -0.3971  0.7307  0.6057
    6SAPS   H7S  715   4.142   5.924   9.634  0.8146  1.7170 -0.3646
    6SAPS   C28  716   4.062   6.036   9.474  0.0954 -0.3592  0.7483
    6SAPS   H8R  717   4.082   6.136   9.515 -0.7571 -0.4147  1.3085
    6SAPS   C29  718   4.047   6.021   9.340 -0.4212 -0.2301  0.4313
    6SAPS   H9R  719   4.059   6.107   9.272 -0.9990  1.5266  2.4238
    6SAPS  C210  720   4.006   5.899   9.261  0.1164 -0.0180  0.3151
    6SAPS  H10R  721   4.026   5.807   9.320 -0.0915 -0.7536 -0.7270
    6SAPS  H10S  722   4.069   5.898   9.169  1.8078 -0.8815  1.4278
    6SAPS  C211  723   3.862   5.898   9.229 -0.2575  0.3454  0.8355
    6SAPS  H11R  724   3.795   5.928   9.311 -2.9331 -1.0416 -0.7200
    6SAPS  C212  725   3.792   5.868   9.118  0.1606 -0.1186  0.1587
    6SAPS  H12R  726   3.682   5.869   9.124  0.1250 -0.4575 -0.3904
    6SAPS  C213  727   3.854   5.812   8.984 -0.2216  0.0419  0.0571
    6SAPS  H13R  728   3.801   5.719   8.954 -0.0553  0.5704 -2.0210
    6SAPS  H13S  729   3.962   5.793   8.997 -0.1992 -1.8389 -2.1902
    6SAPS  C214  730   3.829   5.913   8.866  0.5228  0.2049  0.1269
    6SAPS  H14R  731   3.802   6.016   8.892  0.9550 -0.0927  1.9522
    6SAPS  C215  732   3.850   5.876   8.741 -0.0935  1.0361  0.1061
    6SAPS  H15R  733   3.841   5.945   8.656  2.5721  0.6733 -0.5695
    6SAPS  C216  734   3.905   5.745   8.698  0.8930  0.2450  0.1411
    6SAPS  H16R  735   3.829   5.701   8.630 -0.3886  0.0750  1.6168
    6SAPS  H16S  736   3.916   5.669   8.778 -1.6799 -2.0002 -1.4727
    6SAPS  C217  737   4.038   5.751   8.623  0.3644  0.1861 -0.2775
    6SAPS  H17R  738   4.080   5.651   8.600  0.6008  0.2734 -0.2324
    6SAPS  H17S  739   4.109   5.814   8.681 -1.2738  4.8887 -2.8257
    6SAPS  C218  740   4.027   5.819   8.482  0.4019 -0.2382  0.2058
    6SAPS  H18R  741   4.123   5.800   8.430 -1.0524 -1.0457 -2.3596
    6SAPS  H18S  742   4.015   5.927   8.509  1.1111 -0.7340  2.7553
    6SAPS  C219  743   3.915   5.760   8.396  0.4068  0.1218  0.8481
    6SAPS  H19R  744   3.823   5.820   8.414 -0.5465 -1.4996  1.6159
    6SAPS  H19S  745   3.887   5.654   8.416  2.1476 -0.4445  0.4824
    6SAPS  C220  746   3.956   5.752   8.247  0.0151  0.1236 -0.1348
    6SAPS  H20R  747   3.872   5.699   8.197  1.4757 -2.7552  0.2358
    6SAPS  H20S  748   4.046   5.688   8.238 -1.0865 -1.7074  1.0807
    6SAPS  H20T  749   3.962   5.856   8.209 -3.1913  1.3015  2.1567
    6SAPS   C33  750   3.410   6.040   9.926  0.3777  0.6983 -0.1020
    6SAPS   H3X  751   3.370   5.940   9.954  0.6380  0.8974  0.9996
    6SAPS   H3Y  752   3.494   6.020   9.856  0.8429  1.4442  0.2414
    6SAPS   C34  753   3.298   6.114   9.852 -0.2751 -0.2397 -0.7318
    6SAPS   H4X  754   3.342   6.211   9.820 -0.2870 -0.3504 -1.0851
    6SAPS   H4Y  755   3.217   6.134   9.925 -0.0842 -2.5535  0.1897
    6SAPS   C35  756   3.232   6.047   9.729  0.6914 -0.5172 -0.1872
    6SAPS   H5X  757   3.140   6.106   9.711 -0.1922 -1.5536  0.8700
    6SAPS   H5Y  758   3.200   5.944   9.754  0.8324 -0.3729  0.6107
    6SAPS   C36  759   3.328   6.055   9.608  0.1311 -0.0967  0.6557
    6SAPS   H6X  760   3.417   5.988   9.612  0.2342  0.0172  0.3228
    6SAPS   H6Y  761   3.364   6.158   9.589  1.3300 -1.0380 -3.1767
    6SAPS   C37  762   3.258   6.015   9.482  0.2845 -0.1205 -0.7331
    6SAPS   H7X  763   3.182   6.089   9.448 -0.5092 -1.2067 -1.3484
    6SAPS   H7Y  764   3.195   5.929   9.511  0.1462  0.7142  1.6706
    6SAPS   C38  765   3.354   6.000   9.364 -0.4588  0.2319 -0.3633
    6SAPS   H8X  766   3.418   5.913   9.388  0.8445  1.3260  0.2708
    6SAPS   H8Y  767   3.410   6.094   9.345 -1.3524  0.7390 -0.5336
    6SAPS   C39  768   3.274   5.973   9.235  0.7012 -0.2275  0.0523
    6SAPS   H9X  769   3.206   6.060   9.226 -0.7615 -1.3820 -0.3186
    6SAPS   H9Y  770   3.218   5.880   9.255 -0.4551  0.6099  0.7819
    6SAPS  C310  771   3.351   5.950   9.109 -0.5248 -0.2172  0.2326
    6SAPS  H10X  772   3.416   5.863   9.133 -1.0709 -1.0369 -1.1571
    6SAPS  H10Y  773   3.413   6.039   9.083 -3.9562  2.2047 -0.3343
    6SAPS  C311  774   3.266   5.896   8.991  0.2953 -0.6056 -0.6466
    6SAPS  H11X  775   3.194   5.976   8.964 -0.6389 -1.3872 -0.5343
    6SAPS  H11Y  776   3.201   5.818   9.036 -0.6091  0.5015  0.0183
    6SAPS  C312  777   3.355   5.845   8.879  0.2328 -0.1381  0.4810
    6SAPS  H12X  778   3.444   5.786   8.912  0.0219 -0.7958 -0.1072
    6SAPS  H12Y  779   3.397   5.922   8.812  0.4161  0.3782  1.1783
    6SAPS  C313  780   3.263   5.757   8.793 -0.0009 -0.4555  0.3482
    6SAPS  H13X  781   3.171   5.812   8.763  1.2182  1.6523  0.3236
    6SAPS  H13Y  782   3.225   5.668   8.848 -1.5424  0.4711  0.8402
    6SAPS  C314  783   3.329   5.713   8.658 -0.2194  0.0340 -0.2215
    6SAPS  H14X  784   3.408   5.639   8.685 -0.3879 -0.2784 -0.5809
    6SAPS  H14Y  785   3.367   5.811   8.620 -0.7391  1.8758  3.4731
    6SAPS  C315  786   3.231   5.660   8.551 -0.7848  0.0937 -0.0948
    6SAPS  H15X  787   3.141   5.724   8.555 -0.3796  0.8186 -1.5605
    6SAPS  H15Y  788   3.209   5.552   8.569 -2.9288  0.2695 -1.3060
    6SAPS  C316  789   3.291   5.692   8.405  0.3803 -0.0796 -0.2679
    6SAPS  H16X  790   3.300   5.802   8.398 -1.7542  0.0675 -1.1286
    6SAPS  H16Y  791   3.206   5.672   8.336  0.0463 -0.9580  0.3814
    6SAPS  C317  792   3.425   5.622   8.370 -0.4993 -0.5333 -0.0052
    6SAPS  H17X  793   3.388   5.524   8.332 -4.4092  0.4690  0.8238
    6SAPS  H17Y  794   3.481   5.598   8.463  0.0191 -0.5989 -0.3327
    6SAPS  C318  795   3.517   5.680   8.262  0.4354 -0.4071 -0.0906
    6SAPS  H18X  796   3.541   5.786   8.282 -2.6368  0.4113 -0.1917
    6SAPS  H18Y  797   3.458   5.680   8.168  0.6203 -1.6652 -0.2233
    6SAPS  H18Z  798   3.609   5.621   8.243 -0.2334 -1.1954 -0.9598
    7SAPS     N  799   0.551   6.727  10.824  0.2975  0.3188 -0.0376
    7SAPS   HN1  800   0.621   6.679  10.884  0.5033 -2.1797 -2.0774
    7SAPS   HN2  801   0.566   6.686  10.729  2.7656 -0.4578  0.6127
    7SAPS   HN3  802   0.575   6.828  10.817 -0.4112  0.4913 -0.0351
    7SAPS   C12  803   0.411   6.709  10.879  0.4741 -0.1721  0.0316
    7SAPS  H12A  804   0.388   6.604  10.890 -1.2161  0.0319 -1.0753
    7SAPS   C13  805   0.381   6.783  11.013  0.3425 -0.2666  0.8164
    7SAPS  O13A  806   0.476   6.837  11.077  0.1174  0.2545  0.5844
    7SAPS  O13B  807   0.273   6.757  11.063  0.3038  0.0186 -0.2728
    7SAPS   C11  808   0.321   6.743  10.763  0.4421  0.0389 -0.1185
    7SAPS  H11A  809   0.342   6.847  10.731 -2.4659  0.5397 -0.6801
    7SAPS  H11B  810   0.217   6.748  10.802  0.3535 -1.6922 -0.0286
    7SAPS     P  811   0.221   6.670  10.529 -0.0349  0.1956  0.2252
    7SAPS   O13  812   0.263   6.565  10.429  0.2288  0.2939 -0.1765
    7SAPS   O14  813   0.081   6.669  10.584 -0.3020 -0.3180 -0.3406
    7SAPS   O12  814   0.324   6.651  10.657  0.1472 -0.0420  0.0859
    7SAPS   O11  815   0.254   6.809  10.485 -0.3819  0.2043  0.0185
    7SAPS    C1  816   0.375   6.854  10.435  0.5578  0.4595  0.0707
    7SAPS    HA  817   0.412   6.946  10.484  0.3682  0.7458 -0.3113
    7SAPS    HB  818   0.454   6.778  10.447  0.9905  0.6640 -1.3161
    7SAPS    C2  819   0.381   6.895  10.288  0.6597  0.5762  0.4260
    7SAPS    HS  820   0.456   6.976  10.277  1.2082 -0.0169 -0.3003
    7SAPS   O21  821   0.254   6.940  10.232  0.1645  0.7179  0.0252
    7SAPS   C21  822   0.216   7.056  10.274  0.0860 -0.4196 -0.1794
    7SAPS   O22  823   0.273   7.139  10.342  0.0586 -0.3715  0.1933
    7SAPS   C22  824   0.074   7.082  10.224 -0.0180 -0.4679  0.0340
    7SAPS   H2R  825   0.008   6.997  10.251 -1.3370 -0.2767 -2.3383
    7SAPS   H2S  826   0.041   7.179  10.266 -2.5875 -0.3380 -2.0295
    7SAPS    C3  827   0.416   6.768  10.203 -1.0780 -0.3596  0.0081
    7SAPS    HX  828   0.335   6.693  10.217 -1.7686  0.6394  1.6849
    7SAPS    HY  829   0.509   6.719  10.239 -0.5827  0.3902 -0.2259
    7SAPS   O31  830   0.437   6.809  10.060  0.4204  0.0282 -0.0861
    7SAPS   C31  831   0.470   6.694   9.990 -0.2511  0.4895 -0.0815
    7SAPS   O32  832   0.504   6.590  10.041  0.1105  0.2821  0.3235
    7SAPS   C32  833   0.450   6.722   9.848 -0.5457  0.2434 -0.3022
    7SAPS   H2X  834   0.502   6.816   9.819 -1.4157  1.2886  1.4135
    7SAPS   H2Y  835   0.342   6.735   9.825 -0.9162 -3.3354 -1.3083
    7SAPS   C23  836   0.064   7.095  10.071 -0.2597 -0.1529  0.3428
    7SAPS   H3R  837   0.121   7.014  10.021  0.1067  0.9196 -1.0730
    7SAPS   H3S  838   0.114   7.190  10.043  0.5821 -0.2344  1.5303
    7SAPS   C24  839  -0.084   7.091  10.011  0.5462  0.7590 -0.2339
    7SAPS   H4R  840  -0.135   7.002  10.054 -1.4645  1.0125 -1.9329
    7SAPS   H4S  841  -0.076   7.070   9.903 -2.8987 -1.3720 -0.2395
    7SAPS   C25  842  -0.164   7.217  10.030  0.3939  0.8286  0.0769
    7SAPS   H5R  843  -0.186   7.245  10.134 -0.2378 -0.4267  0.3111
    7SAPS   C26  844  -0.226   7.295   9.943  0.5918 -0.3885  0.2245
    7SAPS   H6R  845  -0.286   7.377   9.985  1.1598 -0.0872  0.4703
    7SAPS   C27  846  -0.224   7.286   9.793  0.2162  0.2607  0.3258
    7SAPS   H7R  847  -0.316   7.235   9.757  2.1061 -2.1865 -1.3129
    7SAPS   H7S  848  -0.134   7.229   9.765  0.0105  0.4403 -0.7253
    7SAPS   C28  849  -0.209   7.409   9.709 -0.3667  0.2554 -0.2060
    7SAPS   H8R  850  -0.172   7.500   9.760  0.4697 -0.3684  0.3311
    7SAPS   C29  851  -0.235   7.416   9.578  0.3932  0.1455 -0.6984
    7SAPS   H9R  852  -0.223   7.512   9.525  4.5702  0.6447  0.7895
    7SAPS  C210  853  -0.258   7.292   9.496  0.1716  0.3894  0.6759
    7SAPS  H10R  854  -0.273   7.200   9.557 -2.0538  1.6373  2.1312
    7SAPS  H10S  855  -0.165   7.270   9.440 -1.1460 -1.6336 -0.8800
    7SAPS  C211  856  -0.378   7.308   9.411  0.2227 -0.5510  0.2766
    7SAPS  H11R  857  -0.470   7.311   9.470  0.9928  3.2519  1.6065
    7SAPS  C212  858  -0.380   7.315   9.275  0.4272 -0.1780  0.3899
    7SAPS  H12R  859  -0.475   7.328   9.220  1.6575  0.9802 -1.5962
    7SAPS  C213  860  -0.261   7.314   9.180  0.2630 -0.4025 -0.4973
    7SAPS  H13R  861  -0.163   7.334   9.229  0.4633 -1.8238 -0.2761
    7SAPS  H13S  862  -0.273   7.407   9.122 -0.4046  0.3692  0.8277
    7SAPS  C214  863  -0.262   7.189   9.081  0.1256 -0.0907  0.5010
    7SAPS  H14R  864  -0.208   7.100   9.116  0.4312 -1.0562 -2.1994
    7SAPS  C215  865  -0.330   7.181   8.960  0.2431  0.1928  0.4618
    7SAPS  H15R  866  -0.323   7.090   8.899  1.2198 -0.1820  1.1074
    7SAPS  C216  867  -0.419   7.298   8.918  0.4109 -0.3038  0.1486
    7SAPS  H16R  868  -0.384   7.333   8.819 -1.2193  1.2878  0.0921
    7SAPS  H16S  869  -0.418   7.385   8.988 -1.7362 -0.2346  0.1489
    7SAPS  C217  870  -0.570   7.264   8.908  0.1250  0.3905  0.1585
    7SAPS  H17R  871  -0.620   7.358   8.877 -1.3980 -0.5373 -0.3148
    7SAPS  H17S  872  -0.602   7.235   9.010 -0.1859 -1.5061 -0.4446
    7SAPS  C218  873  -0.614   7.161   8.805 -0.2234  0.0263  0.2171
    7SAPS  H18R  874  -0.722   7.137   8.809  0.0041 -1.2533 -0.8366
    7SAPS  H18S  875  -0.551   7.074   8.833  0.9967  0.6344 -0.5239
    7SAPS  C219  876  -0.583   7.203   8.659 -0.6428 -0.6268  0.0217
    7SAPS  H19R  877  -0.472   7.217   8.655 -0.9021  4.1130  2.5862
    7SAPS  H19S  878  -0.622   7.306   8.644  1.4132 -0.0114 -1.5785
    7SAPS  C220  879  -0.646   7.115   8.554 -0.4780  0.5794 -0.2107
    7SAPS  H20R  880  -0.611   7.010   8.568 -1.4309  0.2583 -0.1818
    7SAPS  H20S  881  -0.623   7.137   8.448  2.9144 -3.2687 -0.5388
    7SAPS  H20T  882  -0.757   7.115   8.560 -0.5502 -1.0808 -0.7887
    7SAPS   C33  883   0.493   6.602   9.750 -0.1045  0.0791 -0.1841
    7SAPS   H3X  884   0.453   6.506   9.787 -1.5456  0.6931 -0.1088
    7SAPS   H3Y  885   0.603   6.590   9.737 -0.2704  0.3378 -2.2806
    7SAPS   C34  886   0.446   6.612   9.603 -0.1006 -0.3393  0.0847
    7SAPS   H4X  887   0.475   6.710   9.560 -0.5628 -0.3645 -0.2901
    7SAPS   H4Y  888   0.335   6.618   9.602 -0.0848 -0.0797 -0.0151
    7SAPS   C35  889   0.499   6.501   9.519  0.5411  0.4580  0.4305
    7SAPS   H5X  890   0.475   6.396   9.549  1.6531 -0.1929 -0.8409
    7SAPS   H5Y  891   0.609   6.516   9.516  0.5778  0.1335 -1.9806
    7SAPS   C36  892   0.453   6.505   9.375 -0.0233 -0.7197 -0.0323
    7SAPS   H6X  893   0.482   6.605   9.336  0.3756 -0.5739  0.6085
    7SAPS   H6Y  894   0.342   6.496   9.372 -0.3735  2.1600  1.0649
    7SAPS   C37  895   0.505   6.380   9.297 -0.4473 -1.1645 -0.4794
    7SAPS   H7X  896   0.493   6.295   9.368 -2.1457  0.2894  1.0786
    7SAPS   H7Y  897   0.614   6.392   9.275 -0.5398 -0.0752 -0.3939
    7SAPS   C38  898   0.416   6.358   9.177  0.0939  0.1353  0.5901
    7SAPS   H8X  899   0.309   6.371   9.206 -0.0572  0.0520  0.0853
    7SAPS   H8Y  900   0.443   6.256   9.144  2.1801  0.5565  0.8872
    7SAPS   C39  901   0.431   6.464   9.076  0.1740  0.4831  0.0070
    7SAPS   H9X  902   0.482   6.555   9.115 -1.0180  1.3524 -0.4028
    7SAPS   H9Y  903   0.336   6.505   9.036  2.4044  2.8426 -3.4100
    7SAPS  C310  904   0.516   6.419   8.959  0.4717 -0.5672  0.2258
    7SAPS  H10X  905   0.471   6.323   8.925  2.0941 -1.8693  1.5658
    7SAPS  H10Y  906   0.615   6.397   9.004  0.4551 -1.1927 -0.0313
    7SAPS  C311  907   0.531   6.514   8.840 -0.1984  0.3730  0.1036
    7SAPS  H11X  908   0.596   6.466   8.764  0.6212  0.5001  0.7097
    7SAPS  H11Y  909   0.592   6.598   8.878  0.4152  0.5359 -1.1923
    7SAPS  C312  910   0.398   6.557   8.775  0.2152  0.8252 -0.2459
    7SAPS  H12X  911   0.335   6.612   8.848 -2.6558 -0.7151 -1.3751
    7SAPS  H12Y  912   0.351   6.462   8.740  1.5886 -0.3548  0.9575
    7SAPS  C313  913   0.427   6.648   8.654 -0.4650  0.6311  0.2407
    7SAPS  H13X  914   0.496   6.596   8.586 -0.9990 -0.1665  0.3003
    7SAPS  H13Y  915   0.485   6.730   8.702  0.8149 -1.5870  2.7310
    7SAPS  C314  916   0.299   6.701   8.588 -0.3888 -0.2674 -0.5930
    7SAPS  H14X  917   0.240   6.744   8.672 -0.7554 -0.3069 -0.8293
    7SAPS  H14Y  918   0.241   6.611   8.556  0.6129 -0.4226 -2.0140
    7SAPS  C315  919   0.302   6.801   8.474 -0.6033 -0.0959  0.0737
    7SAPS  H15X  920   0.337   6.749   8.382 -1.9436  1.8290 -1.6349
    7SAPS  H15Y  921   0.371   6.884   8.501  0.4233 -0.5480 -1.0380
    7SAPS  C316  922   0.156   6.854   8.452  0.5610  0.0305 -0.2155
    7SAPS  H16X  923   0.141   6.928   8.371  0.9300  0.2574 -0.0807
    7SAPS  H16Y  924   0.111   6.891   8.547  0.3269 -1.0352  0.1001
    7SAPS  C317  925   0.055   6.741   8.420 -0.1626  0.9363 -0.6200
    7SAPS  H17X  926   0.058   6.661   8.496 -0.4043  0.4870 -1.0801
    7SAPS  H17Y  927   0.083   6.691   8.325 -0.8399 -1.5909  0.4244
    7SAPS  C318  928  -0.088   6.778   8.395 -0.7961  0.8251 -0.2272
    7SAPS  H18X  929  -0.146   6.692   8.355 -0.3522  1.3676 -2.0942
    7SAPS  H18Y  930  -0.091   6.850   8.311 -2.5660  1.1530  0.0672
    7SAPS  H18Z  931  -0.140   6.812   8.488 -0.2271  2.2691 -0.4146
    8SAPS     N  932   4.363   2.760  10.983  0.9286 -0.7173  0.3928
    8SAPS   HN1  933   4.335   2.833  10.915 -2.1051  0.5332  2.7122
    8SAPS   HN2  934   4.337   2.663  10.955  0.8397 -0.3133 -0.9793
    8SAPS   HN3  935   4.311   2.784  11.070 -0.1104 -0.1949 -0.3499
    8SAPS   C12  936   4.505   2.763  11.016  0.4099 -0.8557  0.2786
    8SAPS  H12A  937   4.566   2.751  10.927 -1.3269  0.7669 -1.2117
    8SAPS   C13  938   4.548   2.901  11.064  0.1804  0.0656 -0.1974
    8SAPS  O13A  939   4.456   2.985  11.100 -0.1310  0.9186  0.3363
    8SAPS  O13B  940   4.670   2.916  11.095  0.2276  0.6454 -0.0812
    8SAPS   C11  941   4.537   2.664  11.125  0.0934  0.1007 -0.5744
    8SAPS  H11A  942   4.486   2.680  11.222 -0.3488 -1.0425 -0.6058
    8SAPS  H11B  943   4.647   2.676  11.142 -0.2607  0.2059  2.0541
    8SAPS     P  944   4.609   2.424  11.057 -0.5379 -0.1465 -0.1627
    8SAPS   O13  945   4.700   2.394  11.174 -0.0320  0.5504 -0.0637
    8SAPS   O14  946   4.535   2.311  11.007  0.1487 -0.1247 -0.5026
    8SAPS   O12  947   4.502   2.529  11.096 -0.2650  0.0661  0.4739
    8SAPS   O11  948   4.685   2.498  10.939  0.5722 -0.6662 -0.8002
    8SAPS    C1  949   4.655   2.450  10.806  0.3440  0.7518 -0.5963
    8SAPS    HA  950   4.550   2.415  10.799  0.9610 -2.0977  2.1279
    8SAPS    HB  951   4.681   2.538  10.743 -0.1025  2.0263  0.9145
    8SAPS    C2  952   4.743   2.333  10.763 -0.1422  0.1500 -0.3136
    8SAPS    HS  953   4.704   2.235  10.798 -0.6752  1.0397  1.7038
    8SAPS   O21  954   4.883   2.356  10.801 -0.2783 -0.0351  0.0456
    8SAPS   C21  955   4.947   2.241  10.802 -0.2752 -0.4962  0.0911
    8SAPS   O22  956   4.898   2.131  10.803 -0.0722  0.8873  0.4864
    8SAPS   C22  957   5.096   2.265  10.785 -0.7416  0.2543  0.5489
    8SAPS   H2R  958   5.117   2.279  10.677 -2.3589  1.6623  0.3847
    8SAPS   H2S  959   5.125   2.360  10.835  1.7259 -0.1721  0.0878
    8SAPS    C3  960   4.738   2.303  10.601 -0.2612  0.1844  0.3165
    8SAPS    HX  961   4.632   2.301  10.568  0.1781  1.3070 -1.2764
    8SAPS    HY  962   4.777   2.199  10.592  0.2213  0.4650 -0.9767
    8SAPS   O31  963   4.809   2.405  10.526 -0.3753  1.0187  0.4368
    8SAPS   C31  964   4.819   2.367  10.396  0.3786 -0.4368  0.3948
    8SAPS   O32  965   4.787   2.259  10.352 -0.3107 -0.3628 -0.0476
    8SAPS   C32  966   4.898   2.483  10.314 -0.1449  0.5291 -0.3119
    8SAPS   H2X  967   4.990   2.515  10.368 -0.1654  0.7335 -0.3955
    8SAPS   H2Y  968   4.832   2.572  10.303 -1.6582 -0.7619 -2.3355
    8SAPS   C23  969   5.178   2.151  10.842 -0.2803 -0.8942 -0.1541
    8SAPS   H3R  970   5.166   2.063  10.777 -2.3379 -0.9978  0.2731
    8SAPS   H3S  971   5.133   2.119  10.939 -1.8575 -1.5765 -1.0652
    8SAPS   C24  972   5.328   2.189  10.861 -0.1412  0.2510  0.6535
    8SAPS   H4R  973   5.347   2.287  10.910 -0.6167 -0.2006  1.7732
    8SAPS   H4S  974   5.374   2.205  10.762  1.2111  0.7635  1.3389
    8SAPS   C25  975   5.404   2.076  10.927 -0.1314  0.3008  0.1842
    8SAPS   H5R  976   5.435   2.095  11.031  1.0499  2.2667 -0.4842
    8SAPS   C26  977   5.435   1.958  10.865 -0.0220 -0.0147 -0.2175
    8SAPS   H6R  978   5.504   1.889  10.917 -1.0474  0.2116  1.5159
    8SAPS   C27  979   5.415   1.924  10.719  0.4404  0.3536 -0.2137
    8SAPS   H7R  980   5.515   1.930  10.672  0.2957 -1.1696 -0.8050
    8SAPS   H7S  981   5.355   2.004  10.672 -0.0408 -1.3091 -2.6422
    8SAPS   C28  982   5.339   1.796  10.683  0.0158  0.0747  0.0073
    8SAPS   H8R  983   5.265   1.760  10.756  0.1766  2.2125  1.2872
    8SAPS   C29  984   5.362   1.717  10.570  0.6457 -0.6537 -0.2376
    8SAPS   H9R  985   5.305   1.624  10.555 -2.3259  0.4209  3.1179
    8SAPS  C210  986   5.465   1.748  10.456  0.5458  0.1642 -0.6090
    8SAPS  H10R  987   5.533   1.660  10.457  0.2805 -0.0519  1.3745
    8SAPS  H10S  988   5.530   1.831  10.491  0.2177  0.7207 -1.2886
    8SAPS  C211  989   5.408   1.784  10.320  0.7313  0.4025 -0.7574
    8SAPS  H11R  990   5.299   1.773  10.310  0.7868 -0.3444 -0.5975
    8SAPS  C212  991   5.478   1.822  10.213  0.6495 -0.4639 -0.3026
    8SAPS  H12R  992   5.419   1.846  10.123  0.0446 -0.6098  0.0493
    8SAPS  C213  993   5.625   1.832  10.200  0.1292  0.7610  0.1363
    8SAPS  H13R  994   5.662   1.755  10.129  0.5807  1.1130 -0.0171
    8SAPS  H13S  995   5.669   1.816  10.301 -2.7168  0.0857  1.3466
    8SAPS  C214  996   5.672   1.964  10.150 -0.4086  0.1944  0.1164
    8SAPS  H14R  997   5.642   2.051  10.211 -0.3276  0.8567 -0.7639
    8SAPS  C215  998   5.756   1.999  10.053 -0.5410 -0.3854  0.5744
    8SAPS  H15R  999   5.764   2.108  10.038 -0.8337 -0.4048  0.2631
    8SAPS  C216 1000   5.815   1.921   9.937  0.3206  0.1189 -0.4295
    8SAPS  H16R 1001   5.755   1.831   9.912 -0.1482 -0.1077  1.3933
    8SAPS  H16S 1002   5.911   1.886   9.981 -0.3958 -0.5698  0.6245
    8SAPS  C217 1003   5.834   1.998   9.808 -0.0151 -0.4009 -0.6826
    8SAPS  H17R 1004   5.867   1.920   9.737  1.4769 -0.8180  0.4152
    8SAPS  H17S 1005   5.914   2.074   9.821 -0.9590  0.6395 -0.7632
    8SAPS  C218 1006   5.705   2.066   9.752  0.0185  0.7290  0.2833
    8SAPS  H18R 1007   5.661   2.146   9.814  2.1853  0.4285  2.3465
    8SAPS  H18S 1008   5.636   1.979   9.755  1.7527 -0.7990 -1.1017
    8SAPS  C219 1009   5.715   2.120   9.608 -0.1678  0.2240  0.7347
    8SAPS  H19R 1010   5.705   2.029   9.545 -1.7956 -0.3019  1.6836
    8SAPS  H19S 1011   5.815   2.161   9.586  0.6576 -1.5921  0.8878
    8SAPS  C220 1012   5.605   2.211   9.573  0.0620  0.1252  0.0722
    8SAPS  H20R 1013   5.623   2.242   9.468 -3.4871 -0.0150 -0.7125
    8SAPS  H20S 1014   5.611   2.306   9.629  2.3163 -0.4388  0.8834
    8SAPS  H20T 1015   5.505   2.163   9.587  0.2998  0.1944  2.4885
    8SAPS   C33 1016   4.937   2.441  10.168 -0.0715  0.1529  0.5355
    8SAPS   H3X 1017   4.853   2.384  10.123  0.1867 -0.2682  0.5796
    8SAPS   H3Y 1018   5.017   2.364  10.165 -0.8598 -0.7248  1.3862
    8SAPS   C34 1019   4.948   2.569  10.077 -0.3681  0.3840  0.2483
    8SAPS   H4X 1020   5.042   2.625  10.097  0.8086 -1.2736 -0.4581
    8SAPS   H4Y 1021   4.862   2.632  10.110 -1.1536 -0.5331 -0.0025
    8SAPS   C35 1022   4.938   2.550   9.923 -0.8901 -0.4466 -0.0508
    8SAPS   H5X 1023   4.843   2.499   9.895 -2.1252  1.0565  1.2643
    8SAPS   H5Y 1024   5.028   2.501   9.881  0.9598  2.1064  0.7127
    8SAPS   C36 1025   4.936   2.689   9.867 -0.5300  0.1940  0.0345
    8SAPS   H6X 1026   5.000   2.759   9.925  0.1097 -0.0922 -0.3169
    8SAPS   H6Y 1027   4.834   2.733   9.870 -0.0922  1.2182  0.6489
    8SAPS   C37 1028   4.985   2.696   9.724 -0.1613 -0.0768  0.9966
    8SAPS   H7X 1029   4.936   2.630   9.650  0.1385 -0.3399  1.0318
    8SAPS   H7Y 1030   5.093   2.669   9.730 -0.1420 -0.0780  0.6434
    8SAPS   C38 1031   4.965   2.833   9.662  0.0427 -0.0498  0.2009
    8SAPS   H8X 1032   4.990   2.917   9.730  1.5022  0.6261 -1.0813
    8SAPS   H8Y 1033   4.862   2.858   9.631 -0.6384  1.5822  3.3671
    8SAPS   C39 1034   5.067   2.850   9.544 -0.2723  0.6460  0.0456
    8SAPS   H9X 1035   5.159   2.795   9.574 -2.1472 -2.8802 -0.1655
    8SAPS   H9Y 1036   5.078   2.959   9.527 -2.1755  1.0071  0.8493
    8SAPS  C310 1037   5.015   2.781   9.418 -0.8979  0.2460  0.4927
    8SAPS  H10X 1038   4.908   2.809   9.405 -0.4230  2.1359  0.3294
    8SAPS  H10Y 1039   5.013   2.670   9.419 -0.1073  0.2192  0.1954
    8SAPS  C311 1040   5.109   2.821   9.292  0.6755  0.1193  0.0780
    8SAPS  H11X 1041   5.210   2.780   9.311  2.0848  2.4803 -1.6991
    8SAPS  H11Y 1042   5.121   2.931   9.295  0.2835  0.1772 -0.2788
    8SAPS  C312 1043   5.045   2.781   9.165  0.2860 -0.3811  0.0424
    8SAPS  H12X 1044   5.000   2.680   9.176 -0.4826  0.0185  0.6960
    8SAPS  H12Y 1045   5.122   2.768   9.087  0.4352 -0.4379  0.1981
    8SAPS  C313 1046   4.922   2.871   9.130 -0.5372 -0.1098 -1.3336
    8SAPS  H13X 1047   4.866   2.908   9.219  0.2368  1.7293 -1.5610
    8SAPS  H13Y 1048   4.847   2.809   9.076 -0.4315 -1.2701 -0.1953
    8SAPS  C314 1049   4.967   2.987   9.042  0.2517  0.3160  0.7860
    8SAPS  H14X 1050   5.002   2.947   8.945  2.1434  0.1694  1.4810
    8SAPS  H14Y 1051   5.055   3.026   9.097  0.8744 -0.3129  0.2462
    8SAPS  C315 1052   4.855   3.088   9.014 -0.4793  0.2056 -0.3982
    8SAPS  H15X 1053   4.815   3.133   9.107  0.2244  1.0909 -0.5090
    8SAPS  H15Y 1054   4.773   3.036   8.961  1.7289 -2.0016 -1.9227
    8SAPS  C316 1055   4.903   3.210   8.931 -0.2527 -0.2458  0.1111
    8SAPS  H16X 1056   4.996   3.246   8.981  0.0674 -1.8883  0.7974
    8SAPS  H16Y 1057   4.816   3.278   8.926  0.2224  0.2667 -2.0930
    8SAPS  C317 1058   4.939   3.175   8.782  0.3360  0.0878 -0.4884
    8SAPS  H17X 1059   5.028   3.109   8.778  1.2829  1.2092  1.1134
    8SAPS  H17Y 1060   4.961   3.276   8.741 -1.7228  0.9559  0.3819
    8SAPS  C318 1061   4.820   3.104   8.711 -0.1228  0.3413 -0.0509
    8SAPS  H18X 1062   4.815   3.000   8.751 -1.8973  0.1997 -0.5600
    8SAPS  H18Y 1063   4.839   3.087   8.603 -3.2953  1.9433 -0.9793
    8SAPS  H18Z 1064   4.724   3.160   8.718 -1.1353 -1.4033  0.9703
    9SAPS     N 1065   0.722   3.359   6.059  0.1004 -0.3394 -0.9142
    9SAPS   HN1 1066   0.701   3.415   5.974 -0.7714  1.8315  0.6275
    9SAPS   HN2 1067   0.808   3.303   6.043  0.2079 -0.3124 -0.4580
    9SAPS   HN3 1068   0.642   3.296   6.079 -0.0390  0.2695  0.5793
    9SAPS   C12 1069   0.749   3.438   6.178 -0.4044  0.1525  0.3163
    9SAPS  H12A 1070   0.829   3.510   6.166 -1.0581  0.8607  0.1580
    9SAPS   C13 1071   0.625   3.498   6.242  0.3708 -0.4541 -0.4096
    9SAPS  O13A 1072   0.509   3.457   6.202  0.0042  0.1560 -0.2599
    9SAPS  O13B 1073   0.637   3.608   6.302 -0.2242  0.3109  0.0600
    9SAPS   C11 1074   0.795   3.327   6.285 -0.7025 -0.2152 -0.0110
    9SAPS  H11A 1075   0.726   3.241   6.277 -0.4693 -0.5062  0.9911
    9SAPS  H11B 1076   0.790   3.363   6.390  0.5401  0.1845 -0.0740
    9SAPS     P 1077   1.056   3.349   6.327  0.0157  0.3123 -0.3964
    9SAPS   O13 1078   1.176   3.287   6.274 -0.1332  0.1598 -0.1309
    9SAPS   O14 1079   1.043   3.494   6.323 -0.1607 -0.1588  0.4421
    9SAPS   O12 1080   0.930   3.289   6.254 -0.2342  0.9341  0.1133
    9SAPS   O11 1081   1.044   3.313   6.474 -0.2899 -0.1935  0.0621
    9SAPS    C1 1082   1.056   3.185   6.532 -0.7321 -0.1996 -0.1161
    9SAPS    HA 1083   1.121   3.115   6.475 -1.2325 -0.5438 -0.2623
    9SAPS    HB 1084   1.110   3.195   6.629  1.1450 -3.0408 -0.7328
    9SAPS    C2 1085   0.925   3.100   6.550 -0.3681 -0.5181 -0.2692
    9SAPS    HS 1086   0.868   3.103   6.455 -1.3268  2.5327  0.2917
    9SAPS   O21 1087   0.838   3.162   6.652  0.0581  0.4283  0.0497
    9SAPS   C21 1088   0.722   3.099   6.663 -0.4589 -0.0887 -0.8828
    9SAPS   O22 1089   0.678   3.022   6.582 -0.3330 -0.0080  0.1887
    9SAPS   C22 1090   0.645   3.168   6.775 -0.6589 -0.0099  0.2005
    9SAPS   H2R 1091   0.708   3.254   6.806 -0.2728 -0.1801 -0.1006
    9SAPS   H2S 1092   0.549   3.204   6.732 -0.8328 -0.3627  0.2886
    9SAPS    C3 1093   0.970   2.954   6.582 -0.6126  0.2042 -0.3122
    9SAPS    HX 1094   1.037   2.917   6.501 -0.2868  0.3841 -0.1300
    9SAPS    HY 1095   0.883   2.885   6.585 -1.1405  0.8536 -0.3512
    9SAPS   O31 1096   1.037   2.956   6.713 -0.1430 -0.4696  0.6471
    9SAPS   C31 1097   1.098   2.844   6.751 -0.3032 -0.2243 -0.7302
    9SAPS   O32 1098   1.096   2.743   6.684  0.2759  0.3890 -0.3178
    9SAPS   C32 1099   1.156   2.854   6.902  0.5095 -0.4616  0.2642
    9SAPS   H2X 1100   1.077   2.915   6.950 -1.1987 -0.9350 -1.7647
    9SAPS   H2Y 1101   1.247   2.917   6.886 -1.4931  2.4218 -0.4849
    9SAPS   C23 1102   0.633   3.084   6.897  0.2445 -0.7236 -0.0688
    9SAPS   H3R 1103   0.567   2.997   6.875  0.0576 -0.5724 -0.1122
    9SAPS   H3S 1104   0.579   3.152   6.968 -0.1674 -0.7916 -0.3140
    9SAPS   C24 1105   0.767   3.038   6.949 -1.1430 -0.1903  0.1834
    9SAPS   H4R 1106   0.837   3.125   6.945  0.0429 -0.9460  2.5500
    9SAPS   H4S 1107   0.811   2.969   6.874 -0.9946  1.0470 -0.9089
    9SAPS   C25 1108   0.759   2.965   7.078 -0.1417 -0.4286  0.2997
    9SAPS   H5R 1109   0.695   2.876   7.080  0.3209 -0.7957  3.1835
    9SAPS   C26 1110   0.819   3.001   7.191 -0.2544  1.1455 -0.5916
    9SAPS   H6R 1111   0.824   2.926   7.272 -0.6078  1.6690 -0.0740
    9SAPS   C27 1112   0.916   3.114   7.213 -0.4435 -0.6114  0.6626
    9SAPS   H7R 1113   0.900   3.165   7.310  1.7937 -2.9707  2.4232
    9SAPS   H7S 1114   0.894   3.190   7.136  1.0073 -3.5889 -3.0127
    9SAPS   C28 1115   1.067   3.090   7.211 -0.3185  0.1163  0.5290
    9SAPS   H8R 1116   1.112   3.117   7.114  0.4008  0.0025  0.8272
    9SAPS   C29 1117   1.159   3.039   7.295 -0.0114 -0.5084 -0.2989
    9SAPS   H9R 1118   1.264   3.032   7.263 -0.0558 -1.3094 -0.3035
    9SAPS  C210 1119   1.138   2.992   7.436 -0.1216 -0.2099 -0.2549
    9SAPS  H10R 1120   1.125   2.882   7.445 -3.4796 -0.0337 -1.7359
    9SAPS  H10S 1121   1.039   3.028   7.470  0.3216  2.1453 -1.2950
    9SAPS  C211 1122   1.256   3.048   7.515  0.5218 -0.0528 -0.1138
    9SAPS  H11R 1123   1.327   3.107   7.455  0.6780 -1.6136 -1.5628
    9SAPS  C212 1124   1.277   3.040   7.646  0.8937  0.4742  0.2092
    9SAPS  H12R 1125   1.372   3.077   7.687  0.7868  1.2295 -0.2206
    9SAPS  C213 1126   1.186   2.971   7.745  0.5973  0.3529  0.5588
    9SAPS  H13R 1127   1.118   2.915   7.678 -0.2883  3.0350 -0.9615
    9SAPS  H13S 1128   1.113   3.041   7.791 -0.2926 -1.7298  2.5117
    9SAPS  C214 1129   1.252   2.877   7.838 -0.2980  0.3125 -0.0230
    9SAPS  H14R 1130   1.329   2.812   7.796 -1.4335 -1.0461 -0.0789
    9SAPS  C215 1131   1.223   2.874   7.969  0.5888  0.1245 -0.2931
    9SAPS  H15R 1132   1.278   2.803   8.033  1.1818  0.4024 -0.4921
    9SAPS  C216 1133   1.121   2.960   8.037 -0.0498 -0.1902 -0.0660
    9SAPS  H16R 1134   1.022   2.925   8.001 -0.5330 -0.3101  1.3268
    9SAPS  H16S 1135   1.145   3.064   8.005 -0.6544 -0.0245 -0.0078
    9SAPS  C217 1136   1.130   2.958   8.192 -0.2099  0.1613  0.0656
    9SAPS  H17R 1137   1.233   2.984   8.223 -0.4655 -0.2486  1.3598
    9SAPS  H17S 1138   1.109   2.857   8.232 -2.2987  0.8820  0.9778
    9SAPS  C218 1139   1.035   3.051   8.259  1.1270  0.4022 -0.4172
    9SAPS  H18R 1140   0.932   3.015   8.235  1.3672 -1.8981  1.6515
    9SAPS  H18S 1141   1.060   3.152   8.218 -0.0549 -0.3036 -3.1503
    9SAPS  C219 1142   1.033   3.058   8.410 -0.0608 -0.3468  0.0408
    9SAPS  H19R 1143   1.021   2.952   8.444 -0.3011  0.0490  1.2484
    9SAPS  H19S 1144   0.960   3.123   8.463  1.3882 -0.7168  2.6510
    9SAPS  C220 1145   1.168   3.107   8.474  0.3823 -0.2873 -0.2232
    9SAPS  H20R 1146   1.169   3.080   8.582  2.2084 -1.5884 -0.5325
    9SAPS  H20S 1147   1.182   3.217   8.466  0.7948 -0.3091  0.2058
    9SAPS  H20T 1148   1.255   3.061   8.422 -0.2464  0.1233 -1.7086
    9SAPS   C33 1149   1.184   2.717   6.965  0.7780  0.5141  0.5206
    9SAPS   H3X 1150   1.268   2.664   6.915 -0.2457 -0.3406 -0.3274
    9SAPS   H3Y 1151   1.091   2.659   6.953  0.0765  2.1806 -3.4712
    9SAPS   C34 1152   1.215   2.732   7.118 -0.3080  0.2961  0.6403
    9SAPS   H4X 1153   1.120   2.767   7.162  0.2992  0.4761  1.8759
    9SAPS   H4Y 1154   1.287   2.816   7.130  1.8233 -1.2006 -0.8561
    9SAPS   C35 1155   1.270   2.596   7.174  0.0296  0.1025 -0.0731
    9SAPS   H5X 1156   1.352   2.554   7.112  1.8789  1.8400  1.0601
    9SAPS   H5Y 1157   1.189   2.522   7.160 -0.7572  0.6480  1.3563
    9SAPS   C36 1158   1.306   2.607   7.320 -0.4242  0.7924 -0.1335
    9SAPS   H6X 1159   1.216   2.643   7.374 -0.8161 -0.1007 -0.1692
    9SAPS   H6Y 1160   1.394   2.675   7.326  1.0707 -1.1375  1.4380
    9SAPS   C37 1161   1.346   2.468   7.376 -0.8038 -0.1043 -1.4121
    9SAPS   H7X 1162   1.417   2.429   7.300  1.7711 -1.9021  1.6943
    9SAPS   H7Y 1163   1.251   2.410   7.383 -0.8792  0.2082  1.1470
    9SAPS   C38 1164   1.411   2.469   7.522 -0.3519 -0.3176  0.9810
    9SAPS   H8X 1165   1.510   2.516   7.507 -0.1408 -1.4824 -1.7908
    9SAPS   H8Y 1166   1.426   2.363   7.552  0.8143 -0.2109  0.8058
    9SAPS   C39 1167   1.330   2.549   7.620 -0.0399  0.5363  0.2940
    9SAPS   H9X 1168   1.220   2.535   7.607 -0.0366 -0.0685  0.8954
    9SAPS   H9Y 1169   1.348   2.656   7.598 -0.4527  0.8081  1.2391
    9SAPS  C310 1170   1.350   2.503   7.766  0.6699  0.0174  0.4821
    9SAPS  H10X 1171   1.317   2.398   7.777 -2.5181  1.0665  2.2092
    9SAPS  H10Y 1172   1.276   2.559   7.827 -0.3129 -0.8597  0.1117
    9SAPS  C311 1173   1.494   2.525   7.814 -0.3136 -0.0890 -0.5445
    9SAPS  H11X 1174   1.518   2.633   7.810  0.2770 -0.1328  1.0501
    9SAPS  H11Y 1175   1.551   2.465   7.739 -0.2653  1.0985 -1.4908
    9SAPS  C312 1176   1.535   2.463   7.946  0.0674  0.5164  0.4104
    9SAPS  H12X 1177   1.645   2.473   7.943  0.1281 -0.1138 -2.4008
    9SAPS  H12Y 1178   1.513   2.354   7.948  1.1994  0.2988  1.9964
    9SAPS  C313 1179   1.465   2.537   8.066  0.1747  0.4856  0.5076
    9SAPS  H13X 1180   1.356   2.527   8.046  0.4918  0.8654 -1.6354
    9SAPS  H13Y 1181   1.484   2.645   8.053 -1.4128  0.8810  1.1481
    9SAPS  C314 1182   1.508   2.488   8.201 -0.0363  0.3275 -0.2515
    9SAPS  H14X 1183   1.615   2.517   8.213  0.1377 -0.2958 -0.2730
    9SAPS  H14Y 1184   1.501   2.379   8.219  0.3557  0.7758  3.4465
    9SAPS  C315 1185   1.413   2.538   8.300 -0.5748 -0.0871 -0.7351
    9SAPS  H15X 1186   1.312   2.493   8.290 -0.0361 -1.2979 -0.9206
    9SAPS  H15Y 1187   1.401   2.648   8.286 -0.2520  0.0298 -0.1374
    9SAPS  C316 1188   1.458   2.513   8.451  0.3008 -0.3389  0.3562
    9SAPS  H16X 1189   1.564   2.539   8.473 -0.4054  0.2992  3.4215
    9SAPS  H16Y 1190   1.444   2.404   8.464 -1.3605 -0.1430  0.5032
    9SAPS  C317 1191   1.368   2.579   8.554  0.1155  0.2750 -0.2287
    9SAPS  H17X 1192   1.390   2.688   8.548  2.2933 -0.0658  0.4767
    9SAPS  H17Y 1193   1.384   2.545   8.658 -1.3664  0.4191  0.0698
    9SAPS  C318 1194   1.225   2.553   8.533  0.5066 -0.3429  0.5909
    9SAPS  H18X 1195   1.190   2.594   8.436 -0.7515 -0.7255  0.8670
    9SAPS  H18Y 1196   1.167   2.587   8.621 -0.6680 -2.0272  0.5123
    9SAPS  H18Z 1197   1.201   2.445   8.527 -2.7311  0.3104 -0.1885
   10SAPS     N 1198   1.356   2.880   6.404  0.6152  0.4906  0.1252
   10SAPS   HN1 1199   1.260   2.851   6.377 -0.3457  0.4244  3.2152
   10SAPS   HN2 1200   1.369   2.854   6.504  0.8900 -1.6410 -0.4026
   10SAPS   HN3 1201   1.368   2.983   6.395  1.0879  0.3398 -1.2465
   10SAPS   C12 1202   1.456   2.807   6.320 -0.0997 -0.7940 -0.4339
   10SAPS  H12A 1203   1.444   2.701   6.338 -1.2751 -1.2915 -3.6031
   10SAPS   C13 1204   1.433   2.840   6.171 -0.2423 -0.7991 -0.4725
   10SAPS  O13A 1205   1.333   2.907   6.134 -0.1128 -0.4570 -0.0904
   10SAPS  O13B 1206   1.514   2.789   6.090 -0.8293 -0.0733  0.2178
   10SAPS   C11 1207   1.590   2.850   6.382 -1.2792 -0.5748 -0.5304
   10SAPS  H11A 1208   1.592   2.955   6.418 -1.1261 -0.7723  0.0574
   10SAPS  H11B 1209   1.669   2.866   6.306  0.2613 -1.9649  0.6918
   10SAPS     P 1210   1.701   2.635   6.471 -0.1032  0.3558 -0.1302
   10SAPS   O13 1211   1.732   2.619   6.327  0.0807 -0.0689  0.1281
   10SAPS   O14 1212   1.817   2.613   6.567  0.1799 -0.3108 -0.0754
   10SAPS   O12 1213   1.637   2.775   6.495  0.1493 -0.0928  0.2000
   10SAPS   O11 1214   1.589   2.534   6.507  0.1823  0.3496  0.3980
   10SAPS    C1 1215   1.476   2.576   6.590 -0.0970 -0.8481 -0.1421
   10SAPS    HA 1216   1.468   2.686   6.598  3.0797 -0.5280 -0.1771
   10SAPS    HB 1217   1.381   2.543   6.543 -1.2808  1.0418  0.8091
   10SAPS    C2 1218   1.484   2.519   6.741  0.7422 -0.3465  0.7897
   10SAPS    HS 1219   1.398   2.564   6.795 -0.5177 -1.2512 -0.4293
   10SAPS   O21 1220   1.608   2.548   6.802  0.3997  0.4448 -0.2469
   10SAPS   C21 1221   1.625   2.669   6.853  0.0715 -0.5607 -0.0433
   10SAPS   O22 1222   1.547   2.763   6.859  0.2605 -0.5177 -0.1518
   10SAPS   C22 1223   1.768   2.667   6.915 -0.1078  0.6824  0.0642
   10SAPS   H2R 1224   1.841   2.643   6.835  0.0815 -1.1356  0.7354
   10SAPS   H2S 1225   1.790   2.763   6.965  1.6970 -0.1136  0.9069
   10SAPS    C3 1226   1.455   2.364   6.748 -1.2118 -0.1718 -0.5841
   10SAPS    HX 1227   1.531   2.316   6.682 -1.1169 -0.5297 -0.2124
   10SAPS    HY 1228   1.358   2.345   6.697 -1.4023  0.5734 -0.5153
   10SAPS   O31 1229   1.477   2.322   6.885 -0.2291 -0.0402  0.1230
   10SAPS   C31 1230   1.360   2.303   6.952  0.0807  0.9423 -0.9521
   10SAPS   O32 1231   1.255   2.338   6.911  0.0398  0.0726  0.0334
   10SAPS   C32 1232   1.376   2.228   7.086 -0.4488 -0.3205  0.4733
   10SAPS   H2X 1233   1.441   2.284   7.156  1.2677  1.3875 -2.2887
   10SAPS   H2Y 1234   1.434   2.137   7.061 -1.3441  0.0626 -3.9497
   10SAPS   C23 1235   1.780   2.556   7.021 -0.5870  0.4337  0.2118
   10SAPS   H3R 1236   1.887   2.562   7.051 -0.1970  2.8811 -1.3771
   10SAPS   H3S 1237   1.765   2.455   6.978 -0.2351  0.3227  0.3495
   10SAPS   C24 1238   1.699   2.577   7.150  1.0217 -0.0736 -0.2837
   10SAPS   H4R 1239   1.592   2.574   7.120  1.1135  3.2614 -1.4248
   10SAPS   H4S 1240   1.700   2.680   7.193 -4.2138 -0.0205  0.4016
   10SAPS   C25 1241   1.714   2.455   7.239 -0.3080  0.0677 -0.5683
   10SAPS   H5R 1242   1.649   2.369   7.220  0.4937 -0.3531 -1.5068
   10SAPS   C26 1243   1.777   2.450   7.350  0.1102 -0.4616 -0.1911
   10SAPS   H6R 1244   1.789   2.357   7.408  3.0999 -0.9682 -1.4730
   10SAPS   C27 1245   1.863   2.555   7.411 -0.0498  0.1749  0.4659
   10SAPS   H7R 1246   1.890   2.617   7.323  2.6289 -1.8235 -0.2757
   10SAPS   H7S 1247   1.963   2.515   7.441  0.6699  0.7826 -1.0193
   10SAPS   C28 1248   1.801   2.630   7.523  0.1172  0.0297 -0.1586
   10SAPS   H8R 1249   1.737   2.719   7.506  0.3791  0.3145  0.3158
   10SAPS   C29 1250   1.815   2.615   7.652 -0.5043 -0.4176 -0.6415
   10SAPS   H9R 1251   1.762   2.684   7.719  0.0683 -1.4691  0.9625
   10SAPS  C210 1252   1.899   2.514   7.725 -0.3229 -0.0721  0.3132
   10SAPS  H10R 1253   1.921   2.426   7.660 -1.8365 -1.0252  1.0639
   10SAPS  H10S 1254   1.842   2.480   7.814  1.9916 -1.4027  1.3838
   10SAPS  C211 1255   2.038   2.564   7.766  0.3003  0.9169  0.3009
   10SAPS  H11R 1256   2.079   2.640   7.699  0.4867 -0.7165 -1.5150
   10SAPS  C212 1257   2.095   2.550   7.887  0.2607  0.2376  0.4999
   10SAPS  H12R 1258   2.199   2.584   7.893  0.1267  1.4846 -2.4620
   10SAPS  C213 1259   2.032   2.478   8.004 -0.0776  0.3370 -0.5807
   10SAPS  H13R 1260   2.106   2.425   8.067 -1.8470 -1.0231  0.4422
   10SAPS  H13S 1261   1.955   2.404   7.974 -2.2321  2.3639 -0.2961
   10SAPS  C214 1262   1.972   2.580   8.101 -0.4468 -0.1072  0.4826
   10SAPS  H14R 1263   1.870   2.609   8.069  0.0778 -0.2407 -1.4574
   10SAPS  C215 1264   2.011   2.624   8.215 -0.6839 -0.3893 -0.8251
   10SAPS  H15R 1265   1.964   2.715   8.255  1.9862  1.1492 -0.9466
   10SAPS  C216 1266   2.148   2.591   8.276  0.2511 -0.3411 -0.8129
   10SAPS  H16R 1267   2.222   2.648   8.214  0.0589  2.6659  1.4982
   10SAPS  H16S 1268   2.171   2.483   8.284 -1.2048 -0.6825 -1.0530
   10SAPS  C217 1269   2.161   2.637   8.417  0.3044 -0.2962 -0.3135
   10SAPS  H17R 1270   2.087   2.593   8.488  1.6839 -0.5757  1.0014
   10SAPS  H17S 1271   2.152   2.747   8.416 -0.6683 -0.3414  0.8790
   10SAPS  C218 1272   2.297   2.604   8.477 -0.3583 -0.2208 -0.0029
   10SAPS  H18R 1273   2.317   2.670   8.564  0.3011 -0.6890  0.2103
   10SAPS  H18S 1274   2.375   2.613   8.398  1.6818  0.9013  2.0235
   10SAPS  C219 1275   2.289   2.464   8.534  0.2391  1.0043 -0.0033
   10SAPS  H19R 1276   2.286   2.389   8.452  0.7577  1.4344 -0.4255
   10SAPS  H19S 1277   2.200   2.459   8.600  1.7809  0.4490  2.1469
   10SAPS  C220 1278   2.416   2.436   8.622 -0.2806 -0.9991  0.5271
   10SAPS  H20R 1279   2.402   2.355   8.696 -2.7177  0.0044  1.2850
   10SAPS  H20S 1280   2.435   2.531   8.677 -0.4490  0.5271 -1.8579
   10SAPS  H20T 1281   2.503   2.405   8.560  0.0315 -1.1190  1.0261
   10SAPS   C33 1282   1.238   2.186   7.147 -0.2730  0.2268 -0.6443
   10SAPS   H3X 1283   1.178   2.125   7.076 -0.3554  0.6487 -0.9398
   10SAPS   H3Y 1284   1.179   2.280   7.162 -1.1696  0.1617 -3.2436
   10SAPS   C34 1285   1.253   2.127   7.290  0.2549  0.0403  0.5185
   10SAPS   H4X 1286   1.314   2.197   7.350 -2.0163  0.0272  3.0546
   10SAPS   H4Y 1287   1.301   2.027   7.287 -1.5840 -0.8867 -1.0883
   10SAPS   C35 1288   1.121   2.105   7.363 -0.0310  0.2261  0.2827
   10SAPS   H5X 1289   1.066   2.049   7.284  0.0274 -0.2489  0.5739
   10SAPS   H5Y 1290   1.065   2.201   7.357  1.9499  1.3440 -1.9258
   10SAPS   C36 1291   1.128   2.046   7.504 -0.4482  0.0796  0.4897
   10SAPS   H6X 1292   1.189   1.954   7.519 -0.4502  0.3717  2.5949
   10SAPS   H6Y 1293   1.025   2.012   7.529 -0.7613  0.4393 -0.2760
   10SAPS   C37 1294   1.185   2.140   7.607  0.5112 -0.1451  0.6419
   10SAPS   H7X 1295   1.161   2.248   7.603  0.4261 -0.0472  2.8255
   10SAPS   H7Y 1296   1.294   2.146   7.590  0.5059  2.8916  1.0998
   10SAPS   C38 1297   1.143   2.107   7.746 -1.3983 -0.1715 -0.1837
   10SAPS   H8X 1298   1.181   2.176   7.824  2.2435 -2.5230  0.3836
   10SAPS   H8Y 1299   1.180   2.003   7.758 -2.1194 -0.5034 -0.7475
   10SAPS   C39 1300   0.994   2.116   7.765  0.0565  0.1898 -0.1327
   10SAPS   H9X 1301   0.954   2.027   7.712  0.4898  0.3678 -0.7713
   10SAPS   H9Y 1302   0.948   2.207   7.720  0.0580 -0.3590 -1.2672
   10SAPS  C310 1303   0.945   2.113   7.908  0.2592 -0.1093 -0.1433
   10SAPS  H10X 1304   0.979   2.207   7.957  2.9588 -0.6210 -0.8753
   10SAPS  H10Y 1305   0.991   2.026   7.961 -1.1223 -0.5013  0.4589
   10SAPS  C311 1306   0.787   2.095   7.900 -0.0997 -0.1410  0.1927
   10SAPS  H11X 1307   0.763   1.999   7.848 -2.2818  1.0080 -1.0761
   10SAPS  H11Y 1308   0.750   2.183   7.843 -1.0915 -0.7210 -0.0887
   10SAPS  C312 1309   0.701   2.101   8.032  0.3390 -0.0968 -0.4245
   10SAPS  H12X 1310   0.641   2.194   8.040 -2.6890 -2.0775  2.1040
   10SAPS  H12Y 1311   0.773   2.089   8.116 -0.9291 -1.2182  0.5400
   10SAPS  C313 1312   0.600   1.990   8.041 -0.6107  0.1777 -0.3106
   10SAPS  H13X 1313   0.656   1.894   8.040 -1.2620 -0.3317  2.6285
   10SAPS  H13Y 1314   0.528   1.986   7.956 -1.2288  2.0726  0.0688
   10SAPS  C314 1315   0.528   1.995   8.177  0.1952  0.1053  0.0152
   10SAPS  H14X 1316   0.464   2.085   8.173  0.1673  0.0968  0.2501
   10SAPS  H14Y 1317   0.602   2.002   8.260 -0.0819 -0.9754  0.3711
   10SAPS  C315 1318   0.441   1.873   8.207  0.6871 -0.2090 -0.4454
   10SAPS  H15X 1319   0.500   1.782   8.181  0.4528 -0.7565  0.8540
   10SAPS  H15Y 1320   0.353   1.875   8.139 -1.0576 -1.6505  1.6487
   10SAPS  C316 1321   0.403   1.864   8.357 -0.1441 -0.1459 -0.2389
   10SAPS  H16X 1322   0.338   1.951   8.382  0.6761  0.5607 -0.5101
   10SAPS  H16Y 1323   0.498   1.875   8.414  0.9601  2.0898 -2.3218
   10SAPS  C317 1324   0.340   1.737   8.400  0.6443  0.1114  0.0634
   10SAPS  H17X 1325   0.401   1.653   8.361 -1.2045 -2.3024  2.0519
   10SAPS  H17Y 1326   0.241   1.732   8.351  0.7810  0.1617 -0.2188
   10SAPS  C318 1327   0.333   1.728   8.550  0.4891 -0.3733  0.1739
   10SAPS  H18X 1328   0.237   1.769   8.586  1.5510 -0.2911  3.1845
   10SAPS  H18Y 1329   0.427   1.770   8.593  0.8690 -2.0251  1.0510
   10SAPS  H18Z 1330   0.338   1.621   8.582  1.0783  0.6508  4.0651
   11SAPS     N 1331   1.026   6.394   5.754  0.5917  0.6359  0.2030
   11SAPS   HN1 1332   0.953   6.416   5.684  0.1454 -1.1618  0.0713
   11SAPS   HN2 1333   0.992   6.315   5.812  0.6589 -0.8516 -1.6966
   11SAPS   HN3 1334   1.032   6.468   5.828  0.3773 -0.3326  1.2144
   11SAPS   C12 1335   1.158   6.376   5.696  0.0639 -0.0964  0.2170
   11SAPS  H12A 1336   1.157   6.303   5.616 -1.1531 -0.3248  0.4253
   11SAPS   C13 1337   1.202   6.511   5.619 -0.4966 -0.1602  0.1011
   11SAPS  O13A 1338   1.113   6.597   5.596 -0.0958  0.4845 -0.2045
   11SAPS  O13B 1339   1.306   6.495   5.552 -0.0104  0.4500 -0.5257
   11SAPS   C11 1340   1.274   6.329   5.798  0.3490  0.8303  0.1737
   11SAPS  H11A 1341   1.296   6.415   5.865  1.6107  1.1435 -0.6196
   11SAPS  H11B 1342   1.360   6.297   5.735 -2.6547 -1.4573 -3.0796
   11SAPS     P 1343   1.174   6.202   6.015 -0.3767 -0.1782 -0.0846
   11SAPS   O13 1344   1.040   6.265   6.004  0.4943 -0.3841 -0.1506
   11SAPS   O14 1345   1.186   6.066   6.064 -0.1181  0.0409  0.0544
   11SAPS   O12 1346   1.232   6.210   5.871  0.0007  0.0808  0.1805
   11SAPS   O11 1347   1.272   6.305   6.097 -0.1107 -0.3097  0.0652
   11SAPS    C1 1348   1.401   6.265   6.129 -0.5453 -0.0210 -0.2876
   11SAPS    HA 1349   1.442   6.187   6.061  0.2395  2.4770 -2.9200
   11SAPS    HB 1350   1.475   6.346   6.110  1.5454 -1.8773 -0.4851
   11SAPS    C2 1351   1.413   6.220   6.281 -0.9067 -0.6796  0.4308
   11SAPS    HS 1352   1.317   6.167   6.298 -1.8143  0.6659 -0.3457
   11SAPS   O21 1353   1.433   6.329   6.378 -0.5611 -0.3456 -0.2255
   11SAPS   C21 1354   1.318   6.373   6.431  0.2601  0.2202 -0.0472
   11SAPS   O22 1355   1.206   6.323   6.417  0.0185  0.0640 -0.2936
   11SAPS   C22 1356   1.340   6.494   6.515  0.6635 -0.2767 -0.0732
   11SAPS   H2R 1357   1.372   6.580   6.453 -0.5634 -0.3634 -0.8589
   11SAPS   H2S 1358   1.240   6.515   6.558  0.5863 -2.3607  0.8619
   11SAPS    C3 1359   1.540   6.136   6.302 -0.5506 -0.2014  0.4000
   11SAPS    HX 1360   1.634   6.196   6.302  0.6313 -1.9878 -0.2157
   11SAPS    HY 1361   1.553   6.071   6.213  1.3897  0.5837  0.0576
   11SAPS   O31 1362   1.523   6.054   6.418 -0.1181 -0.7331 -0.5153
   11SAPS   C31 1363   1.565   5.928   6.411  0.6008  0.3486  0.5223
   11SAPS   O32 1364   1.635   5.875   6.328  0.4916 -0.7106  0.0432
   11SAPS   C32 1365   1.503   5.842   6.527 -0.1427 -0.0861 -0.4664
   11SAPS   H2X 1366   1.448   5.760   6.476  1.4621 -0.2328 -2.0524
   11SAPS   H2Y 1367   1.435   5.907   6.586  0.0185  1.2374 -1.6845
   11SAPS   C23 1368   1.437   6.471   6.631 -0.0182  0.1496 -0.1624
   11SAPS   H3R 1369   1.435   6.569   6.684  1.8374  0.9114 -1.3851
   11SAPS   H3S 1370   1.536   6.447   6.587 -0.7678  1.3287 -2.6967
   11SAPS   C24 1371   1.398   6.362   6.739 -0.7595  0.8254 -0.2551
   11SAPS   H4R 1372   1.400   6.261   6.691  0.3667  1.0297 -0.6691
   11SAPS   H4S 1373   1.292   6.384   6.761 -0.3490  2.6467  0.0737
   11SAPS   C25 1374   1.500   6.357   6.852  1.4697  0.2269  0.0280
   11SAPS   H5R 1375   1.605   6.333   6.829  1.7769  0.8687  0.7254
   11SAPS   C26 1376   1.469   6.374   6.982  0.0064  0.1567 -0.4725
   11SAPS   H6R 1377   1.549   6.377   7.057 -1.5026 -2.7856  1.4171
   11SAPS   C27 1378   1.341   6.414   7.048  0.3371  0.5767  0.3443
   11SAPS   H7R 1379   1.340   6.368   7.149 -0.1080 -0.8087 -0.2541
   11SAPS   H7S 1380   1.252   6.361   7.006  0.8512  0.5925 -0.8109
   11SAPS   C28 1381   1.324   6.565   7.040  0.0953  1.3371  0.6256
   11SAPS   H8R 1382   1.314   6.603   6.938  1.2741  1.7803  0.6609
   11SAPS   C29 1383   1.289   6.646   7.154 -0.2877  0.6871  1.0712
   11SAPS   H9R 1384   1.286   6.754   7.132 -0.2384  0.9625  2.3737
   11SAPS  C210 1385   1.270   6.598   7.292 -0.2596 -0.3845 -0.5279
   11SAPS  H10R 1386   1.302   6.493   7.309 -1.2734 -0.5874  0.2053
   11SAPS  H10S 1387   1.162   6.596   7.317  0.4152  0.1482  3.1041
   11SAPS  C211 1388   1.334   6.677   7.399  0.0371 -0.2534  0.1147
   11SAPS  H11R 1389   1.432   6.718   7.373  0.1275 -1.6535 -1.9433
   11SAPS  C212 1390   1.298   6.687   7.530 -0.5917  0.3941  1.0940
   11SAPS  H12R 1391   1.344   6.761   7.598 -1.6157  0.8957  1.2513
   11SAPS  C213 1392   1.173   6.627   7.594 -0.1733 -0.6071  0.6186
   11SAPS  H13R 1393   1.190   6.637   7.704 -2.0132 -0.8355  0.9534
   11SAPS  H13S 1394   1.156   6.522   7.563 -2.0382  0.3252 -1.7683
   11SAPS  C214 1395   1.039   6.705   7.559 -0.2909 -0.7387 -0.4643
   11SAPS  H14R 1396   1.036   6.746   7.457 -1.4111  1.7990  0.5050
   11SAPS  C215 1397   0.923   6.702   7.637 -0.1939 -0.3004 -1.0560
   11SAPS  H15R 1398   0.838   6.762   7.600 -0.1189  0.3044 -0.2844
   11SAPS  C216 1399   0.897   6.618   7.762 -0.1559 -0.2455 -0.6905
   11SAPS  H16R 1400   0.984   6.557   7.796  0.1161 -0.7945 -2.3080
   11SAPS  H16S 1401   0.819   6.544   7.734 -0.5884 -0.0777  0.0369
   11SAPS  C217 1402   0.878   6.709   7.888 -0.2148 -0.0447  0.5230
   11SAPS  H17R 1403   0.802   6.790   7.878 -0.0129  0.2001  0.9414
   11SAPS  H17S 1404   0.974   6.760   7.909  0.8137 -1.6313 -0.1834
   11SAPS  C218 1405   0.827   6.627   8.011  0.4705 -0.0137 -0.0274
   11SAPS  H18R 1406   0.887   6.537   8.036  0.8411  0.5385  1.1653
   11SAPS  H18S 1407   0.726   6.586   7.991  0.0880  1.2286 -0.7452
   11SAPS  C219 1408   0.811   6.723   8.137  0.1256  0.5851 -0.1963
   11SAPS  H19R 1409   0.890   6.801   8.141  1.9346 -1.1617  0.0289
   11SAPS  H19S 1410   0.823   6.656   8.225 -1.5786 -0.3895 -0.6555
   11SAPS  C220 1411   0.675   6.787   8.150 -0.8066  0.4228 -0.0035
   11SAPS  H20R 1412   0.593   6.714   8.165  0.7657 -1.5656 -0.6259
   11SAPS  H20S 1413   0.651   6.831   8.051  2.0596  1.5199 -0.3013
   11SAPS  H20T 1414   0.682   6.862   8.232  2.1316  1.1262 -0.7705
   11SAPS   C33 1415   1.621   5.793   6.614  0.2505 -0.4558 -0.0529
   11SAPS   H3X 1416   1.700   5.740   6.556  1.8188  0.1050  1.4853
   11SAPS   H3Y 1417   1.568   5.720   6.679  1.7009 -1.1236  0.4254
   11SAPS   C34 1418   1.679   5.897   6.712 -0.1519  0.1338 -0.5851
   11SAPS   H4X 1419   1.609   5.982   6.722 -1.9728 -1.4919  1.7209
   11SAPS   H4Y 1420   1.778   5.937   6.683 -0.1088 -0.1408 -0.8226
   11SAPS   C35 1421   1.689   5.845   6.859 -0.2023 -0.8076 -0.3345
   11SAPS   H5X 1422   1.774   5.904   6.899 -0.8919  0.1522 -0.2659
   11SAPS   H5Y 1423   1.713   5.737   6.867 -0.9165 -1.2000 -2.6306
   11SAPS   C36 1424   1.571   5.865   6.946 -0.2695  0.1238 -0.4389
   11SAPS   H6X 1425   1.483   5.803   6.921 -0.4440 -0.5675  1.7079
   11SAPS   H6Y 1426   1.536   5.971   6.939 -1.0244 -0.1843 -1.4945
   11SAPS   C37 1427   1.607   5.820   7.089  0.2782 -0.5594 -0.0962
   11SAPS   H7X 1428   1.701   5.867   7.128 -1.1357  1.2368  1.3420
   11SAPS   H7Y 1429   1.614   5.710   7.100 -2.6596 -0.5648  3.9830
   11SAPS   C38 1430   1.501   5.864   7.199  0.2060  0.3174 -0.4774
   11SAPS   H8X 1431   1.406   5.816   7.169 -0.4846  1.6783 -0.5609
   11SAPS   H8Y 1432   1.491   5.974   7.211  0.4700  0.2724  0.1692
   11SAPS   C39 1433   1.547   5.810   7.333 -0.0205  0.3456 -0.9229
   11SAPS   H9X 1434   1.641   5.853   7.372 -0.6006  0.9763 -0.2141
   11SAPS   H9Y 1435   1.560   5.700   7.321 -1.0120  0.1098  0.0782
   11SAPS  C310 1436   1.450   5.843   7.455  0.4980 -0.9036  0.4333
   11SAPS  H10X 1437   1.346   5.819   7.423 -0.0844  0.2639  1.3996
   11SAPS  H10Y 1438   1.470   5.952   7.460 -1.0028 -0.5945  0.0125
   11SAPS  C311 1439   1.491   5.777   7.586  0.2672  1.1895 -0.1583
   11SAPS  H11X 1440   1.598   5.807   7.593  0.3793  0.7409  0.1301
   11SAPS  H11Y 1441   1.483   5.668   7.565 -0.2525  0.9813  1.0260
   11SAPS  C312 1442   1.403   5.818   7.700  0.0795  0.2324  0.6243
   11SAPS  H12X 1443   1.301   5.807   7.656  0.0737  1.9729  0.1145
   11SAPS  H12Y 1444   1.405   5.927   7.725 -0.3285 -0.0572  1.9966
   11SAPS  C313 1445   1.423   5.751   7.836 -0.2506  0.0886  0.6782
   11SAPS  H13X 1446   1.528   5.774   7.861  0.9265 -1.9777 -1.8776
   11SAPS  H13Y 1447   1.416   5.642   7.817 -2.7090  0.4406 -0.9869
   11SAPS  C314 1448   1.333   5.800   7.949 -1.1984  1.0007  0.6689
   11SAPS  H14X 1449   1.225   5.785   7.928 -0.8899 -1.1375  0.3618
   11SAPS  H14Y 1450   1.346   5.910   7.961 -0.4481  0.9792  0.1631
   11SAPS  C315 1451   1.352   5.732   8.085 -0.2137  0.0199 -0.2319
   11SAPS  H15X 1452   1.457   5.720   8.119 -0.7684  2.5352  2.9227
   11SAPS  H15Y 1453   1.301   5.634   8.084 -2.0014  0.8890  0.5845
   11SAPS  C316 1454   1.279   5.815   8.197 -0.5803 -0.2392 -0.1062
   11SAPS  H16X 1455   1.183   5.763   8.218 -0.4182 -0.8040 -0.7222
   11SAPS  H16Y 1456   1.259   5.915   8.152  1.7931  0.3425 -0.0002
   11SAPS  C317 1457   1.342   5.840   8.337 -0.9352  0.1888  0.2975
   11SAPS  H17X 1458   1.299   5.933   8.380  0.8178  0.8937  0.6450
   11SAPS  H17Y 1459   1.450   5.866   8.323 -0.9755  1.3289  1.8764
   11SAPS  C318 1460   1.334   5.715   8.426 -0.0173  0.0367 -0.1126
   11SAPS  H18X 1461   1.377   5.724   8.528 -3.3384 -1.9595  1.6679
   11SAPS  H18Y 1462   1.379   5.625   8.380 -1.3108 -0.8277  0.2462
   11SAPS  H18Z 1463   1.227   5.689   8.444 -0.8710  0.7782 -3.4277
   12SAPS     N 1464   2.534   1.209   5.588  0.0734  0.1081 -0.5395
   12SAPS   HN1 1465   2.582   1.145   5.654  0.7353  1.1073 -0.0279
   12SAPS   HN2 1466   2.467   1.155   5.529  1.4874 -1.3113 -0.9059
   12SAPS   HN3 1467   2.612   1.237   5.525  2.0442 -1.0261  1.2635
   12SAPS   C12 1468   2.479   1.322   5.658 -0.5012 -0.6185 -0.0705
   12SAPS  H12A 1469   2.556   1.397   5.653 -0.8311 -0.0330  2.4243
   12SAPS   C13 1470   2.344   1.380   5.602 -0.3483 -1.2732  0.3064
   12SAPS  O13A 1471   2.292   1.324   5.498  0.3107 -0.0700  0.3193
   12SAPS  O13B 1472   2.270   1.449   5.678  0.6202  0.3401  0.0558
   12SAPS   C11 1473   2.472   1.298   5.806 -0.0385 -0.0906 -0.1819
   12SAPS  H11A 1474   2.392   1.224   5.830 -0.8751  0.9582  0.3541
   12SAPS  H11B 1475   2.448   1.392   5.859  1.8803  1.4840 -1.9461
   12SAPS     P 1476   2.711   1.309   5.955  0.0704  0.6585 -0.0169
   12SAPS   O13 1477   2.830   1.225   5.971  0.4171  0.2952 -0.0425
   12SAPS   O14 1478   2.741   1.445   5.903 -0.3348  0.0141  0.0683
   12SAPS   O12 1479   2.598   1.243   5.855  0.5086  0.0793 -0.4033
   12SAPS   O11 1480   2.642   1.334   6.095  0.4712  0.1931 -0.5013
   12SAPS    C1 1481   2.538   1.257   6.143 -0.6668  0.6017 -0.2188
   12SAPS    HA 1482   2.452   1.328   6.153 -0.5658  0.4991  1.8443
   12SAPS    HB 1483   2.493   1.183   6.073 -3.1345  2.2800 -0.5607
   12SAPS    C2 1484   2.566   1.201   6.287  0.5579 -0.6766 -0.0862
   12SAPS    HS 1485   2.481   1.133   6.311 -1.7544  2.2927  0.6917
   12SAPS   O21 1486   2.566   1.314   6.392  0.4183  0.0885  1.0208
   12SAPS   C21 1487   2.442   1.335   6.444 -0.3494 -0.2565 -0.3726
   12SAPS   O22 1488   2.343   1.279   6.405 -0.1745  0.6854  0.2592
   12SAPS   C22 1489   2.456   1.436   6.552 -0.5621 -0.1702 -0.2161
   12SAPS   H2R 1490   2.541   1.434   6.624 -1.0182  0.7512  0.3583
   12SAPS   H2S 1491   2.476   1.526   6.489 -2.2670  1.5666  1.6037
   12SAPS    C3 1492   2.696   1.122   6.282  0.2766  0.2500 -0.4021
   12SAPS    HX 1493   2.768   1.206   6.288 -0.7134  1.0256  1.4969
   12SAPS    HY 1494   2.711   1.071   6.184  2.2478 -0.0871  0.0342
   12SAPS   O31 1495   2.701   1.024   6.383  0.2749  0.0025  0.4651
   12SAPS   C31 1496   2.828   0.992   6.423 -0.0747 -0.4407  0.1774
   12SAPS   O32 1497   2.931   1.043   6.376 -0.2251 -0.5357 -0.1866
   12SAPS   C32 1498   2.808   0.885   6.530  0.5813 -0.1600 -0.1395
   12SAPS   H2X 1499   2.814   0.786   6.481 -1.1927  1.0576 -3.0351
   12SAPS   H2Y 1500   2.703   0.910   6.555  0.5136  2.0622 -2.2241
   12SAPS   C23 1501   2.317   1.463   6.622 -0.3672 -0.9173 -0.7712
   12SAPS   H3R 1502   2.288   1.373   6.680  1.1309 -1.2292 -0.4769
   12SAPS   H3S 1503   2.245   1.481   6.539  1.9651 -0.2765 -2.7919
   12SAPS   C24 1504   2.335   1.578   6.722 -0.8913 -0.4380 -0.3648
   12SAPS   H4R 1505   2.351   1.669   6.660  1.1438 -1.3681 -1.3001
   12SAPS   H4S 1506   2.429   1.566   6.780 -1.7211  0.3062  1.2096
   12SAPS   C25 1507   2.214   1.584   6.814  0.0012  0.0302  0.1093
   12SAPS   H5R 1508   2.135   1.649   6.774 -0.2033  0.6485  1.4831
   12SAPS   C26 1509   2.204   1.538   6.937 -0.6667 -0.0366  0.0501
   12SAPS   H6R 1510   2.110   1.542   6.995  0.0215 -0.8281  1.2593
   12SAPS   C27 1511   2.319   1.477   7.006  0.6838 -0.2185  0.4472
   12SAPS   H7R 1512   2.372   1.411   6.934  2.5862  1.3659  0.3271
   12SAPS   H7S 1513   2.273   1.406   7.078 -0.5229 -1.8361 -1.7909
   12SAPS   C28 1514   2.414   1.576   7.074 -0.0018  0.1421  0.2187
   12SAPS   H8R 1515   2.483   1.630   7.006 -0.3108  0.6534  0.3071
   12SAPS   C29 1516   2.420   1.603   7.205 -0.7436  0.1909  0.5435
   12SAPS   H9R 1517   2.496   1.673   7.244 -0.3055 -0.2683  0.5212
   12SAPS  C210 1518   2.330   1.557   7.321  0.2483 -0.3202  0.3332
   12SAPS  H10R 1519   2.223   1.547   7.296  0.3409 -0.5417  0.0205
   12SAPS  H10S 1520   2.329   1.640   7.394 -1.2619 -1.5009  1.7257
   12SAPS  C211 1521   2.381   1.437   7.394 -0.1494 -0.5286  0.2299
   12SAPS  H11R 1522   2.465   1.392   7.339 -1.5882  1.1229 -3.6541
   12SAPS  C212 1523   2.323   1.384   7.504  0.6350 -0.3126  0.5362
   12SAPS  H12R 1524   2.370   1.298   7.553 -2.0377 -1.1450  1.8638
   12SAPS  C213 1525   2.200   1.451   7.563  0.3670  0.2183 -0.1111
   12SAPS  H13R 1526   2.161   1.372   7.630 -0.1637  1.3958  1.0035
   12SAPS  H13S 1527   2.119   1.480   7.492  2.0237  1.1519 -1.7455
   12SAPS  C214 1528   2.244   1.568   7.641  0.1230  0.1123 -0.8212
   12SAPS  H14R 1529   2.243   1.668   7.594 -2.0333 -0.0653 -1.2907
   12SAPS  C215 1530   2.283   1.562   7.774 -0.7410  0.0788  0.3959
   12SAPS  H15R 1531   2.312   1.660   7.814  0.6170 -0.5896  1.1448
   12SAPS  C216 1532   2.296   1.447   7.877  0.3226 -0.4322  0.1208
   12SAPS  H16R 1533   2.396   1.402   7.864  1.4764  1.6505  1.2419
   12SAPS  H16S 1534   2.220   1.373   7.844 -0.9209  0.5152  0.7576
   12SAPS  C217 1535   2.293   1.495   8.023  0.1048 -0.4642 -0.1367
   12SAPS  H17R 1536   2.204   1.558   8.041  0.2554  0.2063 -1.5909
   12SAPS  H17S 1537   2.374   1.566   8.051 -0.9010  0.7332 -0.1961
   12SAPS  C218 1538   2.291   1.378   8.122 -0.1674  0.0337  0.2523
   12SAPS  H18R 1539   2.379   1.313   8.099 -0.1905 -0.9600  2.7078
   12SAPS  H18S 1540   2.200   1.316   8.108  1.2951 -2.0857 -0.4268
   12SAPS  C219 1541   2.307   1.422   8.271 -0.1642  1.1046 -0.3582
   12SAPS  H19R 1542   2.415   1.438   8.294 -0.0466 -0.2035  0.0546
   12SAPS  H19S 1543   2.286   1.331   8.330  3.1251 -0.1631 -0.9037
   12SAPS  C220 1544   2.224   1.543   8.317  0.5104 -0.0400 -0.1249
   12SAPS  H20R 1545   2.266   1.636   8.274  2.4326 -0.7235  0.1482
   12SAPS  H20S 1546   2.240   1.551   8.427  1.5782 -1.5923 -0.1195
   12SAPS  H20T 1547   2.121   1.533   8.277 -0.0270  2.3457  0.5470
   12SAPS   C33 1548   2.917   0.912   6.640 -0.2998 -0.1667  0.7820
   12SAPS   H3X 1549   2.940   1.019   6.659 -1.1791  0.2351 -0.3002
   12SAPS   H3Y 1550   2.999   0.861   6.586 -0.5150  1.8065 -1.6189
   12SAPS   C34 1551   2.886   0.860   6.778  0.9092  0.2391  0.0207
   12SAPS   H4X 1552   2.786   0.895   6.811 -0.3871 -3.4729  0.5367
   12SAPS   H4Y 1553   2.956   0.895   6.857  0.4225  0.2923  0.4293
   12SAPS   C35 1554   2.886   0.706   6.772  0.5560 -0.6353  1.1398
   12SAPS   H5X 1555   2.979   0.665   6.729  0.7373 -0.3597  1.2667
   12SAPS   H5Y 1556   2.801   0.685   6.704  1.3006  1.5030 -0.5458
   12SAPS   C36 1557   2.867   0.641   6.910 -0.2320 -0.3520  0.8629
   12SAPS   H6X 1558   2.943   0.672   6.984 -0.0169  0.1318  0.4478
   12SAPS   H6Y 1559   2.873   0.531   6.892 -0.6756 -0.4188  1.1081
   12SAPS   C37 1560   2.722   0.662   6.963  0.3670  0.2567  0.7480
   12SAPS   H7X 1561   2.648   0.627   6.888  1.8620  0.5802 -0.9549
   12SAPS   H7Y 1562   2.706   0.767   6.996  0.7751  0.3925  0.5246
   12SAPS   C38 1563   2.697   0.573   7.088  0.0199  0.5179  0.0418
   12SAPS   H8X 1564   2.736   0.473   7.060  1.0534  1.2659 -1.3335
   12SAPS   H8Y 1565   2.593   0.577   7.127 -1.2297 -1.1733 -2.7768
   12SAPS   C39 1566   2.784   0.606   7.215 -0.2775  0.8018  0.3289
   12SAPS   H9X 1567   2.790   0.717   7.221 -0.4962  0.7891  0.9041
   12SAPS   H9Y 1568   2.888   0.567   7.206 -0.8040 -0.3501 -1.2181
   12SAPS  C310 1569   2.725   0.558   7.348  0.1284  0.4136  0.0235
   12SAPS  H10X 1570   2.727   0.447   7.350  0.6296  0.4059 -0.4829
   12SAPS  H10Y 1571   2.622   0.598   7.359 -0.1734 -0.6249  1.2448
   12SAPS  C311 1572   2.784   0.595   7.485 -0.2140 -0.5878  0.4643
   12SAPS  H11X 1573   2.801   0.704   7.502 -0.4413 -0.3703 -0.6107
   12SAPS  H11Y 1574   2.881   0.543   7.496  1.6180  2.5146  0.2210
   12SAPS  C312 1575   2.678   0.553   7.583  0.7920  0.8832  0.1795
   12SAPS  H12X 1576   2.640   0.451   7.558 -0.7783  1.6705 -0.7813
   12SAPS  H12Y 1577   2.595   0.627   7.591  0.1582  0.1991  0.0676
   12SAPS  C313 1578   2.725   0.540   7.729  0.5716 -0.0923 -0.8994
   12SAPS  H13X 1579   2.776   0.632   7.765 -1.7549  0.8705  0.1071
   12SAPS  H13Y 1580   2.804   0.462   7.735  0.0030 -1.0777 -4.2481
   12SAPS  C314 1581   2.611   0.506   7.830  0.3221  0.4126  0.0787
   12SAPS  H14X 1582   2.579   0.405   7.797 -0.9583  1.0729 -0.7680
   12SAPS  H14Y 1583   2.531   0.582   7.818  0.3571  0.1619 -2.1812
   12SAPS  C315 1584   2.666   0.501   7.978 -0.1326 -0.0184 -0.2311
   12SAPS  H15X 1585   2.717   0.598   7.998 -0.7341 -0.2015  2.7151
   12SAPS  H15Y 1586   2.739   0.418   7.988 -0.9300 -0.5104  2.2535
   12SAPS  C316 1587   2.551   0.485   8.085 -0.0634 -0.3038  0.4923
   12SAPS  H16X 1588   2.485   0.403   8.051 -0.8466  0.5882 -0.1926
   12SAPS  H16Y 1589   2.501   0.584   8.083 -0.7571 -0.6146 -2.1079
   12SAPS  C317 1590   2.592   0.477   8.235  0.3516  0.0344 -0.1458
   12SAPS  H17X 1591   2.636   0.379   8.261 -1.3755 -0.0771  2.8281
   12SAPS  H17Y 1592   2.502   0.488   8.299  2.1120 -1.0674  2.7682
   12SAPS  C318 1593   2.686   0.582   8.287  0.3279 -0.2961  0.5626
   12SAPS  H18X 1594   2.639   0.683   8.290 -1.2889 -0.9766  4.6127
   12SAPS  H18Y 1595   2.780   0.595   8.230 -0.5229  0.9193 -0.6213
   12SAPS  H18Z 1596   2.719   0.563   8.391  1.6381 -0.2029  0.1753
   13SAPS     N 1597   3.912   5.459   6.067 -0.4251 -0.3969  0.2182
   13SAPS   HN1 1598   3.893   5.517   5.982 -1.0751  0.0324  0.6481
   13SAPS   HN2 1599   3.827   5.473   6.125 -1.3429  2.0138 -1.5016
   13SAPS   HN3 1600   3.987   5.506   6.122 -0.0189 -1.3374  0.4779
   13SAPS   C12 1601   3.942   5.320   6.029  0.2299 -0.6588 -0.2952
   13SAPS  H12A 1602   3.852   5.289   5.977 -1.2892  2.7650 -0.0097
   13SAPS   C13 1603   4.065   5.313   5.931 -0.3230 -0.1970 -0.1220
   13SAPS  O13A 1604   4.111   5.413   5.875  0.4496  0.3552 -0.3443
   13SAPS  O13B 1605   4.085   5.199   5.878 -0.4929  0.8013  0.2562
   13SAPS   C11 1606   3.975   5.256   6.161 -0.1583 -0.6169 -0.1603
   13SAPS  H11A 1607   3.989   5.149   6.135  2.2967 -0.5123  0.4154
   13SAPS  H11B 1608   3.893   5.266   6.235 -0.5075  2.1752 -0.8111
   13SAPS     P 1609   4.164   5.220   6.340  0.2371  0.3990 -0.1103
   13SAPS   O13 1610   4.211   5.100   6.268 -0.2085  0.3111  0.5034
   13SAPS   O14 1611   4.269   5.299   6.409  0.1067  0.7722  0.0285
   13SAPS   O12 1612   4.093   5.304   6.226  0.2865 -0.5777 -0.1831
   13SAPS   O11 1613   4.053   5.178   6.445 -0.5394 -0.2301 -0.8911
   13SAPS    C1 1614   3.959   5.279   6.495  0.3820  0.1063 -0.0254
   13SAPS    HA 1615   3.977   5.375   6.442 -0.7235 -1.6374 -3.9121
   13SAPS    HB 1616   3.854   5.256   6.465  0.8217 -0.0812 -1.4755
   13SAPS    C2 1617   3.970   5.309   6.652  0.1415  0.3073  0.3445
   13SAPS    HS 1618   3.948   5.212   6.702  0.5228  1.9500  4.0283
   13SAPS   O21 1619   3.886   5.413   6.686  0.0138 -0.4984  0.0415
   13SAPS   C21 1620   3.761   5.372   6.716 -0.3310  1.3473  0.2716
   13SAPS   O22 1621   3.720   5.259   6.730  0.0830 -0.4881 -0.1526
   13SAPS   C22 1622   3.670   5.487   6.731  0.4846  0.2695  0.0331
   13SAPS   H2R 1623   3.723   5.583   6.713  1.4355 -0.1894  0.2925
   13SAPS   H2S 1624   3.600   5.477   6.646  1.7292 -0.2978 -0.9665
   13SAPS    C3 1625   4.112   5.347   6.690 -0.7134  0.3966 -0.1786
   13SAPS    HX 1626   4.139   5.442   6.640  0.0740 -0.4603 -1.4288
   13SAPS    HY 1627   4.176   5.264   6.653  1.0278  1.1262  1.0800
   13SAPS   O31 1628   4.105   5.358   6.835 -0.3067 -0.2731 -0.3874
   13SAPS   C31 1629   4.219   5.317   6.896  0.3583 -0.0851 -0.7980
   13SAPS   O32 1630   4.315   5.270   6.838  0.4008 -0.8299 -0.0591
   13SAPS   C32 1631   4.227   5.332   7.045  0.7772  0.1404 -0.0328
   13SAPS   H2X 1632   4.264   5.434   7.071  0.7503  0.2336 -0.3588
   13SAPS   H2Y 1633   4.295   5.262   7.098 -1.0704  0.5777  3.1728
   13SAPS   C23 1634   3.587   5.491   6.863 -0.6204 -0.2772  0.5047
   13SAPS   H3R 1635   3.505   5.417   6.854  0.3215 -1.2468 -0.3688
   13SAPS   H3S 1636   3.541   5.588   6.890  2.0731  0.6352  2.2527
   13SAPS   C24 1637   3.679   5.460   6.982  0.0447 -0.2090  0.8690
   13SAPS   H4R 1638   3.785   5.488   6.961 -0.6099  1.5704 -0.3304
   13SAPS   H4S 1639   3.678   5.349   6.980  0.4214 -0.2581 -2.3204
   13SAPS   C25 1640   3.636   5.524   7.110 -0.4687  0.3811  0.5756
   13SAPS   H5R 1641   3.665   5.630   7.111 -2.1088  0.9128 -1.1076
   13SAPS   C26 1642   3.579   5.470   7.214  0.1801  0.5611 -0.7037
   13SAPS   H6R 1643   3.535   5.542   7.286 -1.6078 -1.3387  0.2137
   13SAPS   C27 1644   3.543   5.328   7.249  0.3181 -0.1802 -0.2918
   13SAPS   H7R 1645   3.593   5.304   7.346  1.8183  0.9521 -0.7530
   13SAPS   H7S 1646   3.566   5.262   7.163 -2.0656 -0.6297 -0.6512
   13SAPS   C28 1647   3.398   5.314   7.268  0.4353  0.5263  0.5840
   13SAPS   H8R 1648   3.339   5.318   7.175  2.4144 -0.9539 -0.8338
   13SAPS   C29 1649   3.321   5.307   7.377 -0.4523  0.0870  0.1696
   13SAPS   H9R 1650   3.213   5.311   7.361 -0.5442 -0.3914  0.6295
   13SAPS  C210 1651   3.366   5.304   7.530 -0.4192  0.6849  0.0906
   13SAPS  H10R 1652   3.469   5.264   7.545 -0.7460  0.0533  0.6736
   13SAPS  H10S 1653   3.302   5.238   7.591  2.2638  0.3368  2.7626
   13SAPS  C211 1654   3.349   5.449   7.572 -0.0846 -1.1934  0.4201
   13SAPS  H11R 1655   3.399   5.525   7.510 -1.6304  1.0595  1.7920
   13SAPS  C212 1656   3.294   5.491   7.689 -0.1434  0.5439 -0.1667
   13SAPS  H12R 1657   3.302   5.598   7.713  1.0311  0.5855 -0.6752
   13SAPS  C213 1658   3.246   5.394   7.794  0.1536  0.8684 -0.1535
   13SAPS  H13R 1659   3.261   5.286   7.774  2.2288  1.3735 -1.7074
   13SAPS  H13S 1660   3.135   5.396   7.803 -0.0985 -1.6028 -1.6826
   13SAPS  C214 1661   3.317   5.410   7.925  0.1993  0.6394  0.1883
   13SAPS  H14R 1662   3.417   5.364   7.928 -0.0016 -0.0097 -1.7853
   13SAPS  C215 1663   3.284   5.492   8.025 -0.2947 -0.7285 -0.1803
   13SAPS  H15R 1664   3.330   5.481   8.124  0.5200  2.0867 -0.1464
   13SAPS  C216 1665   3.164   5.581   8.032  0.3633 -0.5019  0.0693
   13SAPS  H16R 1666   3.125   5.617   7.934  0.5181 -1.2422 -0.2762
   13SAPS  H16S 1667   3.197   5.671   8.088  1.0696 -0.3164 -0.6291
   13SAPS  C217 1668   3.062   5.512   8.120  0.1391  0.1833 -0.4307
   13SAPS  H17R 1669   3.108   5.487   8.218  0.6639 -0.0704 -0.7394
   13SAPS  H17S 1670   3.023   5.425   8.063 -2.0456  2.1564 -2.1585
   13SAPS  C218 1671   2.946   5.610   8.144  0.1924 -0.6179 -0.1106
   13SAPS  H18R 1672   2.989   5.712   8.149 -2.3167  0.4637  0.8963
   13SAPS  H18S 1673   2.901   5.596   8.245 -1.5686 -0.7303 -0.8666
   13SAPS  C219 1674   2.832   5.620   8.045  0.0027  0.1388  0.1543
   13SAPS  H19R 1675   2.880   5.591   7.949  0.7265  2.1572 -0.1602
   13SAPS  H19S 1676   2.808   5.728   8.034 -1.3609 -0.1204  0.4464
   13SAPS  C220 1677   2.719   5.528   8.094 -0.4097 -0.5749  0.2591
   13SAPS  H20R 1678   2.636   5.515   8.021 -1.3146  0.6759  1.0243
   13SAPS  H20S 1679   2.681   5.578   8.186 -0.0176  0.5173 -0.1637
   13SAPS  H20T 1680   2.756   5.427   8.121 -1.4797 -0.7329  1.2216
   13SAPS   C33 1681   4.093   5.304   7.116 -0.8503  0.5097  0.5504
   13SAPS   H3X 1682   4.091   5.193   7.107 -0.7894  0.6204 -1.4178
   13SAPS   H3Y 1683   4.007   5.339   7.055 -0.3933 -0.6139 -0.7913
   13SAPS   C34 1684   4.091   5.351   7.259  0.1642  0.5674 -0.3619
   13SAPS   H4X 1685   4.116   5.459   7.260 -1.7580  1.0616 -1.0098
   13SAPS   H4Y 1686   4.166   5.302   7.326  1.9423  2.2431 -1.0398
   13SAPS   C35 1687   3.944   5.356   7.326 -0.5971 -0.5439 -0.1431
   13SAPS   H5X 1688   3.912   5.251   7.307 -0.0679 -0.4035 -2.0116
   13SAPS   H5Y 1689   3.886   5.439   7.278  1.8545  0.8455 -0.8859
   13SAPS   C36 1690   3.951   5.396   7.470  0.1389  0.5267 -0.9197
   13SAPS   H6X 1691   3.995   5.497   7.485  1.3642  0.0457 -1.1658
   13SAPS   H6Y 1692   4.017   5.318   7.513 -0.2859  1.1241  0.9096
   13SAPS   C37 1693   3.816   5.399   7.541  0.0035  0.7442 -0.1594
   13SAPS   H7X 1694   3.768   5.301   7.521  2.4755 -0.4730 -0.4260
   13SAPS   H7Y 1695   3.752   5.470   7.484  1.4394  0.8641 -1.6745
   13SAPS   C38 1696   3.816   5.431   7.693  0.0710 -0.2889 -0.5999
   13SAPS   H8X 1697   3.877   5.522   7.707  1.3767 -1.2883  0.5158
   13SAPS   H8Y 1698   3.858   5.336   7.734 -0.1807  0.2521  0.9830
   13SAPS   C39 1699   3.684   5.442   7.771  0.4089  0.4789 -0.3683
   13SAPS   H9X 1700   3.618   5.354   7.758  0.3163  0.1577  1.8676
   13SAPS   H9Y 1701   3.624   5.524   7.726  0.3365  0.3095 -0.5840
   13SAPS  C310 1702   3.698   5.457   7.928 -0.1989  0.5068 -0.6132
   13SAPS  H10X 1703   3.595   5.464   7.970  0.9732  1.8951  2.2322
   13SAPS  H10Y 1704   3.737   5.559   7.951 -0.6293  1.0265 -2.0580
   13SAPS  C311 1705   3.777   5.337   7.995 -0.2606 -0.2398  0.0983
   13SAPS  H11X 1706   3.873   5.359   7.944 -1.0125 -0.5510 -1.5174
   13SAPS  H11Y 1707   3.741   5.239   7.956  0.3701 -0.5208  0.2060
   13SAPS  C312 1708   3.791   5.353   8.147  0.4553 -0.2967 -0.2251
   13SAPS  H12X 1709   3.689   5.340   8.190 -0.6383  0.1252 -2.5408
   13SAPS  H12Y 1710   3.833   5.452   8.176  1.8209 -1.1096  0.6556
   13SAPS  C313 1711   3.876   5.238   8.200 -0.1423  0.1063 -0.2029
   13SAPS  H13X 1712   3.985   5.255   8.192 -0.3101  1.2414 -0.2391
   13SAPS  H13Y 1713   3.859   5.141   8.148 -0.8363  0.5687 -0.8707
   13SAPS  C314 1714   3.851   5.207   8.350 -0.2690  0.1440  0.4146
   13SAPS  H14X 1715   3.749   5.170   8.372 -0.2473 -0.0444  0.2038
   13SAPS  H14Y 1716   3.857   5.299   8.412 -0.5264 -1.0337  2.2568
   13SAPS  C315 1717   3.946   5.097   8.403  0.0010  0.5376  0.1310
   13SAPS  H15X 1718   4.043   5.122   8.354 -1.5163  1.1692 -2.8427
   13SAPS  H15Y 1719   3.920   4.995   8.367  1.4266 -0.0093  0.5717
   13SAPS  C316 1720   3.958   5.094   8.557  0.0679  0.8718  0.0488
   13SAPS  H16X 1721   3.990   5.192   8.598 -1.6297  0.7665  1.7548
   13SAPS  H16Y 1722   4.027   5.015   8.594 -1.2538 -1.1437 -1.5949
   13SAPS  C317 1723   3.824   5.073   8.624  0.9157  0.6267  0.6011
   13SAPS  H17X 1724   3.776   4.985   8.577  1.0138  0.9011 -0.0166
   13SAPS  H17Y 1725   3.763   5.165   8.609  2.4731  1.4821 -0.8280
   13SAPS  C318 1726   3.835   5.054   8.771  0.2838  0.2434  0.1627
   13SAPS  H18X 1727   3.870   5.152   8.810 -0.6894  0.2066  1.1920
   13SAPS  H18Y 1728   3.910   4.980   8.806 -0.2165  0.3006  1.4145
   13SAPS  H18Z 1729   3.739   5.039   8.825  0.3741  1.9596  0.8592
   14SAPS     N 1730   1.086   6.831   5.780 -0.0573 -0.0080 -0.7875
   14SAPS   HN1 1731   1.143   6.850   5.865 -1.0184 -1.1870  0.1558
   14SAPS   HN2 1732   1.129   6.756   5.722 -0.8643 -0.0221 -1.3835
   14SAPS   HN3 1733   1.080   6.915   5.719 -3.9078  0.2727 -0.2841
   14SAPS   C12 1734   0.949   6.797   5.818  0.7422  0.8651 -0.2159
   14SAPS  H12A 1735   0.894   6.794   5.725  0.3471  1.4589 -0.0039
   14SAPS   C13 1736   0.937   6.654   5.878 -1.1457 -0.3006  0.1713
   14SAPS  O13A 1737   1.039   6.593   5.927  0.4445 -0.2330  0.5510
   14SAPS  O13B 1738   0.826   6.600   5.874 -0.2712  0.8354 -0.3198
   14SAPS   C11 1739   0.895   6.908   5.900  0.6811 -0.4511 -0.1414
   14SAPS  H11A 1740   0.927   6.905   6.006 -1.0905  1.4460  0.5141
   14SAPS  H11B 1741   0.786   6.888   5.899  0.1545  1.9264 -2.5410
   14SAPS     P 1742   0.812   7.153   5.844 -0.1863  0.4110 -0.1480
   14SAPS   O13 1743   0.885   7.277   5.803 -0.6718  0.1016  0.4987
   14SAPS   O14 1744   0.694   7.107   5.766 -0.1712 -0.0606 -0.4550
   14SAPS   O12 1745   0.912   7.037   5.839  0.4596  0.2945 -0.2494
   14SAPS   O11 1746   0.774   7.161   6.000  0.0176  0.8174 -0.2205
   14SAPS    C1 1747   0.866   7.214   6.089  0.1721 -0.1577  0.1448
   14SAPS    HA 1748   0.969   7.173   6.085 -0.2057 -1.4595  2.3358
   14SAPS    HB 1749   0.876   7.324   6.080  2.4991 -0.2847  0.5849
   14SAPS    C2 1750   0.818   7.197   6.236  0.0381 -0.0902 -0.5786
   14SAPS    HS 1751   0.710   7.222   6.241  0.3159  0.8486  1.5864
   14SAPS   O21 1752   0.896   7.274   6.325  0.5966  0.6741 -0.1939
   14SAPS   C21 1753   0.835   7.285   6.440  0.1533 -0.0222 -0.2494
   14SAPS   O22 1754   0.716   7.271   6.456  0.3796 -0.4865  0.0671
   14SAPS   C22 1755   0.941   7.293   6.562  0.8203 -0.5008  0.0388
   14SAPS   H2R 1756   1.004   7.202   6.552  0.2933 -0.8220 -0.3836
   14SAPS   H2S 1757   0.993   7.386   6.533 -1.4335  0.3569 -1.5672
   14SAPS    C3 1758   0.833   7.045   6.267 -0.0909 -0.6190 -0.7579
   14SAPS    HX 1759   0.939   7.017   6.281  0.4262  1.5322  0.0452
   14SAPS    HY 1760   0.794   6.984   6.183 -1.0087 -1.0362 -0.0519
   14SAPS   O31 1761   0.744   7.012   6.378  0.0823 -0.4706  0.0584
   14SAPS   C31 1762   0.800   6.966   6.486 -0.3348  0.5045 -0.0384
   14SAPS   O32 1763   0.923   6.962   6.504  0.3519 -0.2285 -0.8285
   14SAPS   C32 1764   0.700   6.933   6.598  0.3646 -0.3572 -0.1008
   14SAPS   H2X 1765   0.645   6.844   6.560 -0.3922 -0.3715  0.9992
   14SAPS   H2Y 1766   0.629   7.019   6.594  0.6433 -0.1470 -0.7783
   14SAPS   C23 1767   0.868   7.294   6.702  0.6519  0.1116  0.6844
   14SAPS   H3R 1768   0.796   7.210   6.706  2.7711 -1.9980 -1.6644
   14SAPS   H3S 1769   0.811   7.389   6.712  0.2717 -0.1562  1.0489
   14SAPS   C24 1770   0.974   7.294   6.815  0.1856  0.1413 -0.3053
   14SAPS   H4R 1771   0.933   7.321   6.915  0.0373  1.2559 -0.6516
   14SAPS   H4S 1772   1.053   7.370   6.793 -0.5219  0.4214 -2.0237
   14SAPS   C25 1773   1.051   7.154   6.815 -0.2625 -0.5429 -0.3247
   14SAPS   H5R 1774   1.111   7.139   6.724  0.3337  1.0943 -0.2369
   14SAPS   C26 1775   1.065   7.074   6.922  0.0897 -0.0459 -0.6594
   14SAPS   H6R 1776   1.126   6.982   6.918  0.7630  0.0655  3.1692
   14SAPS   C27 1777   1.005   7.091   7.065  0.7009 -0.2808  0.4936
   14SAPS   H7R 1778   0.989   6.992   7.113  0.6881 -0.5161  0.0173
   14SAPS   H7S 1779   0.898   7.118   7.050  0.5945  0.6573  2.6283
   14SAPS   C28 1780   1.069   7.190   7.153  0.5006  0.2046  0.1791
   14SAPS   H8R 1781   1.151   7.246   7.106  0.4684 -0.8057 -1.1121
   14SAPS   C29 1782   1.031   7.238   7.279 -0.0246 -0.3554 -0.2428
   14SAPS   H9R 1783   1.090   7.317   7.328  0.0716 -0.5997  0.0387
   14SAPS  C210 1784   0.911   7.197   7.364  0.0577 -0.5298  0.2672
   14SAPS  H10R 1785   0.851   7.123   7.307 -1.9645  2.7172 -2.1765
   14SAPS  H10S 1786   0.841   7.280   7.389  1.1819  0.8990 -1.1538
   14SAPS  C211 1787   0.963   7.131   7.488  0.3323  0.3007 -0.9034
   14SAPS  H11R 1788   1.044   7.057   7.478  0.5310  0.5878 -1.4504
   14SAPS  C212 1789   0.913   7.157   7.605 -0.0521  0.3725 -0.2859
   14SAPS  H12R 1790   0.948   7.096   7.690  4.5001  1.1041 -1.3837
   14SAPS  C213 1791   0.776   7.233   7.630  0.1584 -0.4213 -0.3129
   14SAPS  H13R 1792   0.779   7.334   7.583  2.0204  0.4727  1.5921
   14SAPS  H13S 1793   0.761   7.263   7.735  3.0939  1.3460 -0.2884
   14SAPS  C214 1794   0.660   7.153   7.582  0.3915 -0.1080 -0.9080
   14SAPS  H14R 1795   0.628   7.163   7.477  0.4173  1.2384 -0.7938
   14SAPS  C215 1796   0.587   7.067   7.659  0.8815  0.0674 -0.1019
   14SAPS  H15R 1797   0.507   7.019   7.600 -0.0193  2.0542 -0.5996
   14SAPS  C216 1798   0.604   7.040   7.807  0.1603  0.1509  0.4326
   14SAPS  H16R 1799   0.701   7.077   7.847  1.3719 -3.1605  0.8451
   14SAPS  H16S 1800   0.611   6.930   7.809 -0.1301  0.1410  1.7276
   14SAPS  C217 1801   0.481   7.088   7.896 -0.2072  0.0491 -0.3833
   14SAPS  H17R 1802   0.496   7.037   7.994 -0.4610  0.8443  0.0866
   14SAPS  H17S 1803   0.388   7.049   7.851 -0.6976 -1.8446  2.0497
   14SAPS  C218 1804   0.488   7.245   7.925  0.5797  0.2451 -0.6928
   14SAPS  H18R 1805   0.463   7.303   7.834  0.0538  1.6237  0.2976
   14SAPS  H18S 1806   0.590   7.275   7.956  0.4454 -0.3396  0.3577
   14SAPS  C219 1807   0.385   7.275   8.040  0.4060 -0.0678 -0.5342
   14SAPS  H19R 1808   0.286   7.241   8.004  0.2091  0.0814 -0.1375
   14SAPS  H19S 1809   0.371   7.385   8.048 -0.2133 -0.2152  0.5767
   14SAPS  C220 1810   0.419   7.228   8.177 -0.7451  0.4788 -0.6805
   14SAPS  H20R 1811   0.325   7.240   8.235 -0.5639 -0.3128 -0.2022
   14SAPS  H20S 1812   0.508   7.275   8.223 -0.8218  0.4325 -0.4814
   14SAPS  H20T 1813   0.451   7.122   8.184  1.1451  1.0433 -0.3039
   14SAPS   C33 1814   0.763   6.909   6.735  0.3900 -0.1008 -0.1978
   14SAPS   H3X 1815   0.836   6.991   6.752 -0.4984  0.6338  0.1709
   14SAPS   H3Y 1816   0.826   6.818   6.726  0.2734 -0.0545 -1.7450
   14SAPS   C34 1817   0.662   6.895   6.852 -0.5005  0.7355  0.2740
   14SAPS   H4X 1818   0.594   6.811   6.827 -1.0222  1.7821 -2.0427
   14SAPS   H4Y 1819   0.603   6.988   6.862  0.0057  1.1152 -0.2535
   14SAPS   C35 1820   0.739   6.860   6.981  0.9672 -0.6295 -0.2067
   14SAPS   H5X 1821   0.806   6.948   6.996  1.6531 -1.3693  1.2857
   14SAPS   H5Y 1822   0.799   6.767   6.969 -0.1839 -1.3043 -0.9288
   14SAPS   C36 1823   0.650   6.848   7.105  0.5172 -0.5413  0.0689
   14SAPS   H6X 1824   0.582   6.762   7.092 -3.0899  1.6589  2.3969
   14SAPS   H6Y 1825   0.589   6.941   7.104 -0.6782 -1.2875 -2.0619
   14SAPS   C37 1826   0.739   6.838   7.238  0.1066  0.5894 -0.2045
   14SAPS   H7X 1827   0.822   6.912   7.249  1.5770 -0.5490 -2.6706
   14SAPS   H7Y 1828   0.798   6.745   7.222 -0.2214  0.2796  0.3429
   14SAPS   C38 1829   0.655   6.824   7.369  0.2888  0.2397  0.5694
   14SAPS   H8X 1830   0.639   6.925   7.413  1.8106  0.9241 -0.3890
   14SAPS   H8Y 1831   0.722   6.769   7.438  3.1521  1.9267 -0.6664
   14SAPS   C39 1832   0.522   6.753   7.353 -0.4013 -0.7049  0.5382
   14SAPS   H9X 1833   0.529   6.661   7.292 -3.7591 -0.0060 -1.1529
   14SAPS   H9Y 1834   0.454   6.821   7.298 -0.6720 -0.5647  1.0351
   14SAPS  C310 1835   0.454   6.734   7.491 -0.7352 -0.5064  0.5425
   14SAPS  H10X 1836   0.346   6.713   7.477 -0.8122  0.6722 -0.9443
   14SAPS  H10Y 1837   0.461   6.833   7.540 -0.7128 -0.0758 -0.3010
   14SAPS  C311 1838   0.525   6.623   7.573  0.2962  0.7510 -0.1035
   14SAPS  H11X 1839   0.633   6.644   7.580  0.5363 -0.4083 -0.0690
   14SAPS  H11Y 1840   0.508   6.524   7.524 -0.1075  1.2961 -1.1066
   14SAPS  C312 1841   0.465   6.632   7.715 -0.1579  0.5928 -0.3693
   14SAPS  H12X 1842   0.356   6.640   7.696 -0.0326  2.0806 -0.5778
   14SAPS  H12Y 1843   0.487   6.725   7.772 -3.8407 -0.6778  3.6820
   14SAPS  C313 1844   0.496   6.506   7.801 -0.0067  0.0800  0.8145
   14SAPS  H13X 1845   0.602   6.505   7.834 -0.3034 -0.9200  1.8002
   14SAPS  H13Y 1846   0.474   6.419   7.736 -1.4067 -0.2397  1.6829
   14SAPS  C314 1847   0.402   6.488   7.916  1.0349 -0.3428  0.0624
   14SAPS  H14X 1848   0.306   6.452   7.872  1.3431 -0.1034 -0.8258
   14SAPS  H14Y 1849   0.378   6.587   7.962  0.7425  1.0263 -2.8553
   14SAPS  C315 1850   0.453   6.388   8.023  0.1757  0.1242  0.1776
   14SAPS  H15X 1851   0.539   6.429   8.080 -0.8126 -2.0466  3.5259
   14SAPS  H15Y 1852   0.482   6.292   7.976  0.3738  0.1196  0.3078
   14SAPS  C316 1853   0.353   6.367   8.139  0.2168  0.2716 -0.3082
   14SAPS  H16X 1854   0.267   6.305   8.108 -0.8198  1.7378 -0.4788
   14SAPS  H16Y 1855   0.305   6.464   8.166  1.8055  0.9471  0.1901
   14SAPS  C317 1856   0.415   6.308   8.266  0.4043  0.3553  0.6524
   14SAPS  H17X 1857   0.489   6.377   8.313  2.0207 -1.4888  0.9702
   14SAPS  H17Y 1858   0.477   6.218   8.242  0.4292  0.7139 -0.7195
   14SAPS  C318 1859   0.317   6.269   8.381 -0.2634  0.1754  0.4271
   14SAPS  H18X 1860   0.236   6.345   8.387 -0.5624 -0.0196 -0.9260
   14SAPS  H18Y 1861   0.359   6.251   8.482  2.1837 -2.4887 -0.9408
   14SAPS  H18Z 1862   0.279   6.169   8.353  2.1165 -0.5050 -0.5789
   15SAPS     N 1863   2.045   5.692   5.677 -0.2819 -0.2101 -0.1831
   15SAPS   HN1 1864   1.971   5.669   5.745  2.0633  0.3383  2.7635
   15SAPS   HN2 1865   2.025   5.646   5.586 -1.5634 -0.2599  0.1101
   15SAPS   HN3 1866   2.136   5.663   5.719 -0.7032  1.4776  2.1003
   15SAPS   C12 1867   2.048   5.846   5.648 -0.1602  0.3543 -0.3417
   15SAPS  H12A 1868   2.129   5.872   5.580 -0.5697  2.0633 -0.2318
   15SAPS   C13 1869   1.919   5.909   5.599 -0.2188 -0.2562 -0.6744
   15SAPS  O13A 1870   1.817   5.836   5.588 -0.7672 -0.4653 -0.4572
   15SAPS  O13B 1871   1.911   6.035   5.592  0.4141 -0.0544  0.2958
   15SAPS   C11 1872   2.089   5.916   5.789  0.4261  0.7120  1.2026
   15SAPS  H11A 1873   2.001   5.917   5.857 -1.4471 -1.4168 -1.0268
   15SAPS  H11B 1874   2.113   6.022   5.764  0.1879  0.5037 -0.0128
   15SAPS     P 1875   2.350   5.900   5.840 -0.0475  0.2400  0.1168
   15SAPS   O13 1876   2.444   5.796   5.792  0.2645  0.9205  0.2819
   15SAPS   O14 1877   2.366   6.025   5.756  0.0619  0.2500  0.3810
   15SAPS   O12 1878   2.202   5.847   5.840 -0.2339  0.1672 -0.1695
   15SAPS   O11 1879   2.399   5.933   5.993 -0.3589 -0.1898 -0.2709
   15SAPS    C1 1880   2.381   5.828   6.083  0.6869 -0.0559 -0.0462
   15SAPS    HA 1881   2.293   5.765   6.061 -0.7350  1.8319 -0.0760
   15SAPS    HB 1882   2.460   5.750   6.084 -0.7976 -1.6907  2.9053
   15SAPS    C2 1883   2.376   5.881   6.227 -0.3487  0.7062  0.1160
   15SAPS    HS 1884   2.365   5.792   6.292 -0.2567  1.6742  1.5126
   15SAPS   O21 1885   2.269   5.970   6.254  0.3301 -0.0765 -0.1769
   15SAPS   C21 1886   2.151   5.915   6.238 -0.6658 -0.1113 -0.7293
   15SAPS   O22 1887   2.124   5.799   6.214 -0.2260 -0.0891  0.0934
   15SAPS   C22 1888   2.043   6.027   6.257 -0.2582  0.3983  0.2916
   15SAPS   H2R 1889   2.097   6.124   6.251  0.5703 -0.0625  0.1944
   15SAPS   H2S 1890   1.978   6.017   6.167  0.1623 -1.5287  0.1521
   15SAPS    C3 1891   2.504   5.955   6.266 -0.1883 -0.6235 -0.1968
   15SAPS    HX 1892   2.515   6.049   6.207 -1.8848  0.6817  1.4255
   15SAPS    HY 1893   2.584   5.892   6.223  0.9296  1.1126 -0.7962
   15SAPS   O31 1894   2.518   5.964   6.412 -1.0680 -0.3953  0.4805
   15SAPS   C31 1895   2.472   6.074   6.463 -0.0080  0.1451  0.1816
   15SAPS   O32 1896   2.407   6.161   6.404 -0.1742 -0.0461  0.2148
   15SAPS   C32 1897   2.488   6.058   6.614  0.5601  0.4930  0.0460
   15SAPS   H2X 1898   2.570   5.989   6.645 -0.7450  0.0693  2.7975
   15SAPS   H2Y 1899   2.394   6.002   6.629  0.8647 -0.7640 -2.3609
   15SAPS   C23 1900   1.961   6.021   6.386 -0.2874  0.1327  0.0825
   15SAPS   H3R 1901   1.912   5.922   6.375 -1.3860  0.8542 -2.0229
   15SAPS   H3S 1902   1.879   6.094   6.376  1.7779  2.5920  0.0000
   15SAPS   C24 1903   2.044   6.044   6.521 -0.9555 -1.0333 -0.2106
   15SAPS   H4R 1904   2.143   5.993   6.520  0.7379  1.9534  0.4891
   15SAPS   H4S 1905   1.980   6.009   6.604 -0.0188 -0.7760  0.6455
   15SAPS   C25 1906   2.073   6.195   6.541 -0.1016 -0.2543  0.3788
   15SAPS   H5R 1907   2.160   6.229   6.484  0.1431 -3.1128 -1.1266
   15SAPS   C26 1908   2.002   6.284   6.617 -0.6289  0.2357  0.0864
   15SAPS   H6R 1909   2.037   6.388   6.621  2.3995 -0.6826  3.9880
   15SAPS   C27 1910   1.875   6.258   6.709  0.3451 -0.1155 -0.4812
   15SAPS   H7R 1911   1.796   6.203   6.654 -0.4306  1.2952 -0.8482
   15SAPS   H7S 1912   1.815   6.348   6.737 -0.0247 -0.1181 -1.2395
   15SAPS   C28 1913   1.916   6.170   6.824  0.7742  1.2441 -0.3790
   15SAPS   H8R 1914   1.933   6.064   6.799 -1.4926  0.8989 -0.6658
   15SAPS   C29 1915   1.933   6.221   6.955  0.1893  0.5063  0.5707
   15SAPS   H9R 1916   1.973   6.168   7.043  0.1537  0.2362  0.4269
   15SAPS  C210 1917   1.918   6.368   6.990 -0.6516  0.1208  0.2960
   15SAPS  H10R 1918   1.812   6.399   6.975 -1.2015 -1.6483  0.3352
   15SAPS  H10S 1919   1.971   6.438   6.921  0.6562 -0.1557  0.9841
   15SAPS  C211 1920   1.984   6.408   7.120 -0.0312  0.4460  0.4684
   15SAPS  H11R 1921   2.091   6.426   7.102 -0.2812  0.7834 -0.7621
   15SAPS  C212 1922   1.933   6.412   7.243  0.1668 -0.5842 -0.4608
   15SAPS  H12R 1923   1.984   6.453   7.331 -0.2577 -0.8872 -0.0692
   15SAPS  C213 1924   1.790   6.372   7.272 -0.1941 -0.9787  0.2404
   15SAPS  H13R 1925   1.733   6.399   7.180 -0.1732 -0.6375  0.3294
   15SAPS  H13S 1926   1.745   6.428   7.356  1.7088 -1.7633  1.8334
   15SAPS  C214 1927   1.765   6.233   7.305 -0.5537  0.0589 -0.0808
   15SAPS  H14R 1928   1.839   6.164   7.263 -0.7514 -0.1309 -0.1206
   15SAPS  C215 1929   1.660   6.174   7.365 -0.2081  0.2465 -0.0047
   15SAPS  H15R 1930   1.668   6.067   7.389 -1.9776  0.0435 -0.2071
   15SAPS  C216 1931   1.534   6.244   7.421 -0.2229 -0.0326 -0.2672
   15SAPS  H16R 1932   1.434   6.224   7.377 -2.5480  2.7025  3.1938
   15SAPS  H16S 1933   1.544   6.354   7.404  0.7095 -0.3833 -2.3417
   15SAPS  C217 1934   1.528   6.229   7.575 -0.2883  0.5100 -0.4436
   15SAPS  H17R 1935   1.512   6.121   7.592 -1.0782  1.0445  2.9032
   15SAPS  H17S 1936   1.428   6.265   7.606  0.3114  1.5266  0.3546
   15SAPS  C218 1937   1.641   6.275   7.664 -0.5646 -0.2863  0.9281
   15SAPS  H18R 1938   1.635   6.385   7.649 -2.1436 -0.3593  0.8424
   15SAPS  H18S 1939   1.735   6.237   7.618 -0.9258  1.2934 -1.2994
   15SAPS  C219 1940   1.625   6.254   7.813 -0.4960 -0.4811  0.5309
   15SAPS  H19R 1941   1.714   6.297   7.863  1.0305 -1.1303 -1.5073
   15SAPS  H19S 1942   1.615   6.144   7.826 -1.8085 -0.3574  0.6792
   15SAPS  C220 1943   1.500   6.324   7.879  0.0660  0.2305 -0.0976
   15SAPS  H20R 1944   1.491   6.317   7.990 -2.2040 -0.1652 -0.2495
   15SAPS  H20S 1945   1.413   6.272   7.833  1.9964 -1.1995 -2.3386
   15SAPS  H20T 1946   1.475   6.428   7.851  1.9181  0.5198 -0.7735
   15SAPS   C33 1947   2.473   6.185   6.705 -1.0251  0.2249  0.6231
   15SAPS   H3X 1948   2.408   6.256   6.650 -1.4330 -0.3420  0.3709
   15SAPS   H3Y 1949   2.570   6.239   6.706  0.2214 -1.7475 -2.1412
   15SAPS   C34 1950   2.403   6.148   6.839 -0.0818  0.3292  0.2006
   15SAPS   H4X 1951   2.457   6.061   6.882  1.0149  1.1481  0.5140
   15SAPS   H4Y 1952   2.298   6.116   6.822  0.4134 -0.4107 -1.7196
   15SAPS   C35 1953   2.424   6.254   6.943  0.0117  0.0731  0.1545
   15SAPS   H5X 1954   2.373   6.343   6.900  1.7091  0.3539 -1.3760
   15SAPS   H5Y 1955   2.534   6.266   6.951  0.0971 -1.0217  0.8333
   15SAPS   C36 1956   2.356   6.213   7.076  0.4275 -0.5604  0.3337
   15SAPS   H6X 1957   2.395   6.114   7.107  2.6768 -0.0988 -0.8028
   15SAPS   H6Y 1958   2.248   6.219   7.047  0.6823  2.2052 -0.3592
   15SAPS   C37 1959   2.383   6.314   7.189  0.7094 -0.8680  0.0688
   15SAPS   H7X 1960   2.359   6.417   7.155  1.3478 -0.8675 -0.3981
   15SAPS   H7Y 1961   2.491   6.309   7.213  0.7799  1.1578  0.3236
   15SAPS   C38 1962   2.301   6.284   7.316  0.0666  0.2558 -0.0887
   15SAPS   H8X 1963   2.311   6.177   7.345 -1.4841 -0.2871 -1.4031
   15SAPS   H8Y 1964   2.192   6.283   7.295 -0.1389 -0.4799  0.9620
   15SAPS   C39 1965   2.339   6.378   7.427  0.1937 -0.6585 -0.3692
   15SAPS   H9X 1966   2.358   6.480   7.386  1.0576  0.6745  3.0059
   15SAPS   H9Y 1967   2.438   6.350   7.467  0.0135 -2.8975 -1.3395
   15SAPS  C310 1968   2.242   6.399   7.540  0.3458  0.5172 -0.5676
   15SAPS  H10X 1969   2.138   6.409   7.503  0.6971  0.4296 -1.6096
   15SAPS  H10Y 1970   2.265   6.498   7.583 -1.1824  1.2778 -1.4003
   15SAPS  C311 1971   2.238   6.275   7.641  0.4827 -0.3444  0.2286
   15SAPS  H11X 1972   2.339   6.256   7.684  0.3617 -1.7939 -0.0823
   15SAPS  H11Y 1973   2.208   6.187   7.582 -2.4478  1.2074 -0.7568
   15SAPS  C312 1974   2.126   6.290   7.751  0.4330  1.0375  0.2410
   15SAPS  H12X 1975   2.105   6.191   7.798  0.6509  1.2956  0.8846
   15SAPS  H12Y 1976   2.032   6.312   7.696 -0.7829 -1.8832  0.9692
   15SAPS  C313 1977   2.147   6.383   7.868 -0.1914 -0.0711  0.5128
   15SAPS  H13X 1978   2.160   6.482   7.819 -1.4179 -1.8673 -3.8549
   15SAPS  H13Y 1979   2.241   6.356   7.923 -0.2204  0.1729  0.6851
   15SAPS  C314 1980   2.029   6.402   7.970 -0.3372 -0.1207 -0.0083
   15SAPS  H14X 1981   1.991   6.302   7.998 -2.1327  0.4501 -0.2829
   15SAPS  H14Y 1982   1.948   6.445   7.908 -1.1542 -1.1752  0.3010
   15SAPS  C315 1983   2.061   6.503   8.086  0.0299 -0.1884 -0.1972
   15SAPS  H15X 1984   2.088   6.603   8.046  0.5597 -0.0864  0.4166
   15SAPS  H15Y 1985   2.150   6.469   8.142 -0.1445 -2.6908 -1.2863
   15SAPS  C316 1986   1.944   6.523   8.182  0.0046  0.1841 -0.1709
   15SAPS  H16X 1987   1.865   6.562   8.114  0.0026 -1.5383 -1.1986
   15SAPS  H16Y 1988   1.962   6.600   8.260 -2.0886  0.0601  0.5178
   15SAPS  C317 1989   1.903   6.397   8.263 -1.1330  0.4725 -1.0467
   15SAPS  H17X 1990   1.878   6.429   8.367 -1.9315 -1.3905 -0.6125
   15SAPS  H17Y 1991   1.976   6.314   8.273 -1.0454  0.5021 -1.4492
   15SAPS  C318 1992   1.780   6.334   8.212 -0.2505 -0.2316 -0.0367
   15SAPS  H18X 1993   1.809   6.282   8.118  0.0214  0.4538 -0.3303
   15SAPS  H18Y 1994   1.699   6.409   8.201  1.3829  1.9538  1.8735
   15SAPS  H18Z 1995   1.732   6.259   8.279  1.1942 -2.4293 -1.3452
   16SAPS     N 1996   5.527   2.520   5.982 -0.3573 -0.5734 -0.6560
   16SAPS   HN1 1997   5.454   2.513   6.056  0.4378 -1.1125  0.1070
   16SAPS   HN2 1998   5.549   2.621   5.976  0.0606 -0.6181 -0.0838
   16SAPS   HN3 1999   5.473   2.503   5.895 -1.7129  2.4762 -0.5207
   16SAPS   C12 2000   5.649   2.435   6.005 -0.3128 -0.0905 -0.0545
   16SAPS  H12A 2001   5.610   2.336   5.988 -2.0563  0.7146 -0.9965
   16SAPS   C13 2002   5.775   2.469   5.910 -0.5154  0.6068  0.1464
   16SAPS  O13A 2003   5.783   2.577   5.847 -0.1666 -0.3195  0.2095
   16SAPS  O13B 2004   5.872   2.388   5.925 -0.0897  0.0199  0.7831
   16SAPS   C11 2005   5.693   2.444   6.149  0.7188 -0.9525  0.2978
   16SAPS  H11A 2006   5.711   2.552   6.168  0.4413 -0.9422  0.5260
   16SAPS  H11B 2007   5.778   2.377   6.173  0.7172 -2.1473 -2.6838
   16SAPS     P 2008   5.565   2.262   6.297 -0.2085 -0.1736 -0.6244
   16SAPS   O13 2009   5.417   2.231   6.312  0.3382 -0.2386 -0.1423
   16SAPS   O14 2010   5.636   2.164   6.217  0.0049  0.0184  0.2723
   16SAPS   O12 2011   5.576   2.405   6.228  0.3342 -0.0862 -0.0157
   16SAPS   O11 2012   5.640   2.278   6.432  0.2159  0.4155  0.1065
   16SAPS    C1 2013   5.606   2.390   6.510  0.0406 -0.0099 -0.3822
   16SAPS    HA 2014   5.633   2.487   6.463 -0.1428  1.3157  2.0698
   16SAPS    HB 2015   5.498   2.387   6.537  0.2369 -2.7196  0.2947
   16SAPS    C2 2016   5.682   2.392   6.641 -0.3458  0.6334  0.0014
   16SAPS    HS 2017   5.668   2.296   6.695  0.5898  0.9022  0.7505
   16SAPS   O21 2018   5.641   2.504   6.724  0.5275 -0.3457 -0.2364
   16SAPS   C21 2019   5.518   2.484   6.779 -0.2969 -0.1234  0.4380
   16SAPS   O22 2020   5.457   2.379   6.789 -0.0859  0.1132  0.1079
   16SAPS   C22 2021   5.478   2.619   6.847  0.2701  0.6175  0.3373
   16SAPS   H2R 2022   5.566   2.674   6.888 -0.1583  2.8261 -1.4907
   16SAPS   H2S 2023   5.442   2.687   6.767  0.4847 -0.9073 -1.1128
   16SAPS    C3 2024   5.832   2.403   6.594  0.5260 -0.9157 -0.3975
   16SAPS    HX 2025   5.831   2.495   6.533 -0.2120 -0.6082  0.0560
   16SAPS    HY 2026   5.854   2.310   6.537 -0.5462 -0.6729 -1.2310
   16SAPS   O31 2027   5.924   2.410   6.713  0.0334  0.1867 -0.2507
   16SAPS   C31 2028   5.973   2.297   6.757  0.0779 -0.3505 -0.5592
   16SAPS   O32 2029   5.954   2.189   6.703  0.6132  0.1270  0.2746
   16SAPS   C32 2030   6.060   2.317   6.880 -0.0971 -0.5175  0.1298
   16SAPS   H2X 2031   6.012   2.401   6.935  1.2742  0.0335  0.5484
   16SAPS   H2Y 2032   6.162   2.348   6.849  0.8177 -2.0170  1.4787
   16SAPS   C23 2033   5.371   2.597   6.958  0.9808 -0.2153 -0.0568
   16SAPS   H3R 2034   5.399   2.516   7.029  2.7929  0.2832 -0.1625
   16SAPS   H3S 2035   5.279   2.561   6.907  0.7113  0.5631 -0.1361
   16SAPS   C24 2036   5.338   2.727   7.037 -0.0565  0.5476 -0.5693
   16SAPS   H4R 2037   5.251   2.691   7.096  1.7602 -0.3343  1.7732
   16SAPS   H4S 2038   5.299   2.801   6.965 -2.4068 -1.0294 -1.0306
   16SAPS   C25 2039   5.456   2.765   7.128  0.1655  0.1596 -0.7295
   16SAPS   H5R 2040   5.542   2.798   7.068  0.9477 -1.3076 -0.4764
   16SAPS   C26 2041   5.456   2.753   7.264 -0.1259  0.4776  0.5636
   16SAPS   H6R 2042   5.550   2.781   7.315  0.1139 -0.4353  0.6453
   16SAPS   C27 2043   5.343   2.710   7.357  0.6683  0.0496  0.0771
   16SAPS   H7R 2044   5.388   2.634   7.424 -0.3953  0.4982  1.3330
   16SAPS   H7S 2045   5.253   2.670   7.306  0.2129  0.2258  0.7381
   16SAPS   C28 2046   5.299   2.830   7.440 -0.1852  0.4369  0.4175
   16SAPS   H8R 2047   5.199   2.872   7.421 -1.3541 -2.7510 -1.2045
   16SAPS   C29 2048   5.367   2.882   7.541 -0.3873  0.4093 -0.1856
   16SAPS   H9R 2049   5.317   2.964   7.594  0.9999  0.3219  1.3534
   16SAPS  C210 2050   5.496   2.845   7.604 -0.4309  0.4096 -0.7998
   16SAPS  H10R 2051   5.538   2.935   7.654  1.5803 -0.5681 -0.6181
   16SAPS  H10S 2052   5.568   2.811   7.526  0.0757 -0.7502  0.1339
   16SAPS  C211 2053   5.499   2.726   7.699  0.7180 -0.8517  0.4313
   16SAPS  H11R 2054   5.516   2.634   7.642  1.7514  0.9693 -2.4237
   16SAPS  C212 2055   5.478   2.727   7.837  0.4751  0.4637  0.0118
   16SAPS  H12R 2056   5.471   2.632   7.893  0.2461  1.0702  1.0472
   16SAPS  C213 2057   5.443   2.839   7.928  0.7241  0.5170 -0.9857
   16SAPS  H13R 2058   5.497   2.927   7.887  2.1834  0.7504  1.2737
   16SAPS  H13S 2059   5.497   2.812   8.021 -0.1877 -2.5061 -1.2392
   16SAPS  C214 2060   5.306   2.889   7.963 -0.6621 -0.1162  0.8164
   16SAPS  H14R 2061   5.231   2.836   7.902 -1.1658  2.9036 -1.4058
   16SAPS  C215 2062   5.266   2.972   8.053 -0.0704 -0.0162 -0.0207
   16SAPS  H15R 2063   5.158   2.979   8.070 -0.4933 -1.6594 -1.7151
   16SAPS  C216 2064   5.355   3.050   8.153 -0.2925 -0.4870 -0.5609
   16SAPS  H16R 2065   5.310   3.150   8.166 -0.5250 -0.6553 -0.0704
   16SAPS  H16S 2066   5.455   3.073   8.110 -0.6480  2.5901  0.0637
   16SAPS  C217 2067   5.371   2.989   8.293  0.2391 -0.4290  0.5478
   16SAPS  H17R 2068   5.428   3.056   8.361  0.4573 -0.2141  0.1569
   16SAPS  H17S 2069   5.420   2.890   8.290 -0.6593 -0.9808  2.5160
   16SAPS  C218 2070   5.236   2.975   8.357  0.3878 -0.2890  0.3009
   16SAPS  H18R 2071   5.255   2.953   8.464  0.1975 -1.7311  0.0595
   16SAPS  H18S 2072   5.178   2.893   8.308  0.5709 -0.2328 -0.0078
   16SAPS  C219 2073   5.152   3.102   8.350  0.0971  0.2195  0.0284
   16SAPS  H19R 2074   5.059   3.079   8.406  1.1393 -1.3471  1.1880
   16SAPS  H19S 2075   5.122   3.126   8.245 -0.1265  0.5594  0.1668
   16SAPS  C220 2076   5.214   3.228   8.414 -0.6667 -0.4442  0.6593
   16SAPS  H20R 2077   5.148   3.316   8.403  0.7779  0.4540 -1.4162
   16SAPS  H20S 2078   5.312   3.251   8.366 -1.5649  2.1618 -0.0813
   16SAPS  H20T 2079   5.249   3.216   8.519 -0.6360  3.0754  1.1618
   16SAPS   C33 2080   6.067   2.194   6.976  0.6855  0.1644  0.4195
   16SAPS   H3X 2081   6.128   2.112   6.931 -1.9356 -0.5078 -2.2339
   16SAPS   H3Y 2082   5.972   2.143   7.005 -0.0818  0.9753 -0.5899
   16SAPS   C34 2083   6.139   2.225   7.109  0.4753  0.3345  0.3201
   16SAPS   H4X 2084   6.084   2.306   7.161 -0.4750  0.2911 -0.6120
   16SAPS   H4Y 2085   6.237   2.271   7.083 -0.8444  3.1927  0.1201
   16SAPS   C35 2086   6.141   2.110   7.210 -0.4426  0.3068 -0.6580
   16SAPS   H5X 2087   6.199   2.024   7.171 -1.7374  0.1871 -2.4325
   16SAPS   H5Y 2088   6.042   2.064   7.229  0.4149 -0.4347  2.6241
   16SAPS   C36 2089   6.217   2.147   7.343  0.0661  0.2784 -0.7566
   16SAPS   H6X 2090   6.324   2.166   7.318  1.0706  0.4656  3.0026
   16SAPS   H6Y 2091   6.218   2.060   7.412 -2.5111  1.2914  0.6869
   16SAPS   C37 2092   6.166   2.260   7.422  1.2816 -0.9085 -0.2135
   16SAPS   H7X 2093   6.057   2.266   7.400  0.8292 -1.1536  1.8263
   16SAPS   H7Y 2094   6.191   2.364   7.390  1.0293 -0.3015  1.4620
   16SAPS   C38 2095   6.195   2.253   7.565 -0.1970 -0.2388 -0.1842
   16SAPS   H8X 2096   6.301   2.222   7.580 -0.1337  0.6365  1.5018
   16SAPS   H8Y 2097   6.125   2.189   7.623 -0.4499 -1.8536 -2.1843
   16SAPS   C39 2098   6.205   2.390   7.622  0.7235 -0.2396 -1.1246
   16SAPS   H9X 2099   6.103   2.431   7.602  1.1456  0.0716 -2.8154
   16SAPS   H9Y 2100   6.278   2.455   7.570  1.4854  0.1744  0.4174
   16SAPS  C310 2101   6.227   2.396   7.770 -0.3786 -0.1771  0.3636
   16SAPS  H10X 2102   6.329   2.359   7.792 -1.1470 -1.1120  2.6700
   16SAPS  H10Y 2103   6.153   2.326   7.816 -2.0546  1.0281 -0.4133
   16SAPS  C311 2104   6.202   2.536   7.835  0.5879  0.5305  0.4066
   16SAPS  H11X 2105   6.100   2.578   7.818  0.8225  0.3130 -1.8127
   16SAPS  H11Y 2106   6.271   2.605   7.781 -0.6254  0.6976 -1.0005
   16SAPS  C312 2107   6.240   2.546   7.981  0.0232  1.0128  0.6602
   16SAPS  H12X 2108   6.349   2.534   7.996  0.0893 -0.3508 -0.6767
   16SAPS  H12Y 2109   6.197   2.454   8.026 -1.0364  0.7813 -0.7567
   16SAPS  C313 2110   6.191   2.672   8.055 -0.2417 -0.1079 -0.1257
   16SAPS  H13X 2111   6.084   2.664   8.027 -0.5563  0.3575  0.9195
   16SAPS  H13Y 2112   6.234   2.752   7.992  0.8427 -2.2524 -2.2911
   16SAPS  C314 2113   6.224   2.671   8.200  0.8691  0.2084 -0.4142
   16SAPS  H14X 2114   6.177   2.758   8.251 -0.5614 -0.8061  0.0784
   16SAPS  H14Y 2115   6.334   2.679   8.211  0.9960 -1.0456 -0.6157
   16SAPS  C315 2116   6.180   2.535   8.265 -0.2346 -0.2515 -0.8649
   16SAPS  H15X 2117   6.250   2.461   8.221 -0.6751 -0.4317 -1.2671
   16SAPS  H15Y 2118   6.079   2.494   8.245 -0.4888 -0.5095  0.7642
   16SAPS  C316 2119   6.201   2.544   8.423  0.8948 -0.1071 -0.2863
   16SAPS  H16X 2120   6.297   2.591   8.455 -0.0752  0.3052  2.2660
   16SAPS  H16Y 2121   6.193   2.442   8.466 -0.0229 -1.7473 -3.9712
   16SAPS  C317 2122   6.094   2.645   8.489 -0.1445 -0.3089 -0.4842
   16SAPS  H17X 2123   5.997   2.644   8.434 -0.1962 -3.0220 -0.4966
   16SAPS  H17Y 2124   6.125   2.751   8.482 -1.3946  0.1787  0.8710
   16SAPS  C318 2125   6.068   2.630   8.635  0.0554  0.6764 -0.1522
   16SAPS  H18X 2126   6.017   2.533   8.650 -0.5283  0.7561 -1.4864
   16SAPS  H18Y 2127   5.998   2.710   8.668  1.0376  0.9224  1.4396
   16SAPS  H18Z 2128   6.161   2.626   8.695  0.2209  1.4823 -0.3405
   17SAPC     N 2129   2.981   4.610  10.758  0.0617  0.0191  0.0833
   17SAPC   C12 2130   3.023   4.573  10.617  0.3031 -0.1055 -0.2937
   17SAPC  H12A 2131   3.105   4.502  10.612 -1.2734 -1.9834 -0.8710
   17SAPC  H12B 2132   3.060   4.661  10.566 -0.1869  0.7150  0.7351
   17SAPC   C13 2133   3.097   4.625  10.851 -0.2081  0.0596  0.2031
   17SAPC  H13A 2134   3.059   4.631  10.952 -3.1383  0.6032 -0.8123
   17SAPC  H13B 2135   3.171   4.549  10.831  0.8252  0.5440  2.0190
   17SAPC  H13C 2136   3.139   4.724  10.844  0.9529 -0.3746  0.8352
   17SAPC   C14 2137   2.904   4.742  10.756 -0.0748 -0.0830 -0.2056
   17SAPC  H14A 2138   2.815   4.738  10.695 -0.7751 -2.3439  0.8529
   17SAPC  H14B 2139   2.864   4.772  10.851 -2.0826  2.0001 -1.6009
   17SAPC  H14C 2140   2.972   4.818  10.719  1.5572 -0.6151  1.5615
   17SAPC   C15 2141   2.897   4.504  10.815 -0.1221 -0.0679 -0.2736
   17SAPC  H15A 2142   2.949   4.410  10.824  1.2313  0.6798 -0.0606
   17SAPC  H15B 2143   2.854   4.523  10.912 -2.0162  0.3933 -1.1503
   17SAPC  H15C 2144   2.807   4.493  10.756  0.6268  0.8090 -1.6493
   17SAPC   C11 2145   2.900   4.511  10.529 -1.0816  0.6260  0.0668
   17SAPC  H11A 2146   2.848   4.426  10.579  2.5764 -1.2134  1.1134
   17SAPC  H11B 2147   2.945   4.459  10.441 -1.9863 -0.4782  0.2348
   17SAPC     P 2148   2.846   4.730  10.379  0.4516  0.2328  0.1807
   17SAPC   O13 2149   2.730   4.819  10.378  0.1363 -0.3274  0.4038
   17SAPC   O14 2150   2.982   4.780  10.403 -0.4033 -0.2893  0.1201
   17SAPC   O12 2151   2.807   4.617  10.491 -0.4324 -0.0226 -0.0614
   17SAPC   O11 2152   2.847   4.639  10.248 -0.4178  0.1077  1.1175
   17SAPC    C1 2153   2.726   4.587  10.193 -0.1268 -0.1667 -0.4805
   17SAPC    HA 2154   2.637   4.624  10.248 -0.7840  0.1008 -1.6962
   17SAPC    HB 2155   2.705   4.625  10.091 -3.1477  1.0876  0.4814
   17SAPC    C2 2156   2.730   4.434  10.196 -0.6828  0.0393  0.4741
   17SAPC    HS 2157   2.753   4.403  10.300  0.9967  0.3520  0.2365
   17SAPC   O21 2158   2.830   4.397  10.091 -0.2172 -0.5737  0.1181
   17SAPC   C21 2159   2.877   4.277  10.099  0.9732  0.1016 -0.4685
   17SAPC   O22 2160   2.839   4.190  10.177  0.2219  0.4847 -0.4606
   17SAPC   C22 2161   2.996   4.262  10.007  0.3853 -0.5506 -0.1010
   17SAPC   H2R 2162   3.000   4.362   9.958  1.1543 -1.0024 -1.0031
   17SAPC   H2S 2163   3.093   4.248  10.058  0.3405 -1.5181 -0.2632
   17SAPC    C3 2164   2.592   4.369  10.148 -1.1528  0.4146  0.0495
   17SAPC    HX 2165   2.516   4.431  10.201  0.7225  2.9843 -0.0308
   17SAPC    HY 2166   2.588   4.263  10.181 -0.6335  0.8120  1.4628
   17SAPC   O31 2167   2.576   4.365  10.006 -0.0887 -0.9282 -0.5107
   17SAPC   C31 2168   2.513   4.469   9.954 -0.5385  0.0352 -0.4161
   17SAPC   O32 2169   2.458   4.562  10.011  0.6413  0.1876 -0.4061
   17SAPC   C32 2170   2.518   4.453   9.797  0.1470 -0.0890 -0.2525
   17SAPC   H2X 2171   2.461   4.359   9.780 -2.2832  0.9127  1.7121
   17SAPC   H2Y 2172   2.627   4.446   9.774  0.8621  0.6213  2.5159
   17SAPC   C23 2173   2.983   4.132   9.921 -0.8824 -0.1442 -0.0347
   17SAPC   H3R 2174   2.882   4.113   9.880 -1.3806 -2.1014  1.9347
   17SAPC   H3S 2175   3.004   4.044   9.985  1.5788 -0.0567 -0.5884
   17SAPC   C24 2176   3.095   4.126   9.819  1.2025  0.2679  0.5332
   17SAPC   H4R 2177   3.120   4.022   9.791  2.4210  1.1562 -2.0808
   17SAPC   H4S 2178   3.190   4.167   9.859  1.9338 -1.9983  1.2634
   17SAPC   C25 2179   3.059   4.216   9.701 -0.0683 -0.1877 -0.4738
   17SAPC   H5R 2180   3.041   4.318   9.738  0.7336  0.0946 -0.8215
   17SAPC   C26 2181   3.050   4.180   9.573  0.6971 -0.1899 -0.9470
   17SAPC   H6R 2182   3.054   4.257   9.495  0.2846  0.4024 -0.3926
   17SAPC   C27 2183   3.073   4.039   9.519 -0.8520 -0.1607 -0.1224
   17SAPC   H7R 2184   2.980   3.979   9.504  0.0130 -1.6099  0.2231
   17SAPC   H7S 2185   3.131   3.978   9.590 -0.0646 -0.9453 -1.4020
   17SAPC   C28 2186   3.153   4.035   9.389 -0.3492  0.0793 -0.5307
   17SAPC   H8R 2187   3.262   4.037   9.405 -0.6526  0.9682  1.8741
   17SAPC   C29 2188   3.104   4.033   9.266 -0.3156  0.1609 -0.1284
   17SAPC   H9R 2189   3.167   4.035   9.176 -1.3902  0.4111 -0.8923
   17SAPC  C210 2190   2.960   4.034   9.223 -0.9126  0.7128 -0.5737
   17SAPC  H10R 2191   2.898   4.108   9.279 -1.6325 -0.9670  0.9617
   17SAPC  H10S 2192   2.910   3.941   9.259  0.3627  1.2942  3.1737
   17SAPC  C211 2193   2.932   4.044   9.073  0.4932  0.1822  0.5306
   17SAPC  H11R 2194   2.918   4.147   9.038 -0.2039  0.1576  0.7290
   17SAPC  C212 2195   2.961   3.949   8.976 -0.3299 -0.5485 -0.8271
   17SAPC  H12R 2196   2.924   3.973   8.876 -0.9958  2.3272  0.0059
   17SAPC  C213 2197   3.009   3.814   9.007 -0.1575  0.7550 -0.2405
   17SAPC  H13R 2198   3.030   3.807   9.116 -1.5009  1.4855  0.0776
   17SAPC  H13S 2199   3.104   3.786   8.956  1.4012  2.0245  1.8002
   17SAPC  C214 2200   2.905   3.717   8.967  0.6789 -0.1482 -0.5072
   17SAPC  H14R 2201   2.818   3.705   9.034 -0.2094 -0.2743 -1.6626
   17SAPC  C215 2202   2.895   3.655   8.846  0.2110 -0.6449 -0.1684
   17SAPC  H15R 2203   2.814   3.583   8.832 -2.2348  1.7479  0.7223
   17SAPC  C216 2204   2.993   3.668   8.737  0.0812 -0.1744  0.0148
   17SAPC  H16R 2205   3.059   3.756   8.751  0.8805 -0.4690 -1.6833
   17SAPC  H16S 2206   2.933   3.690   8.647 -1.2413 -2.0648  0.3706
   17SAPC  C217 2207   3.066   3.538   8.719  0.0185  0.6059 -0.6953
   17SAPC  H17R 2208   3.001   3.455   8.685  2.1472 -1.8123  0.8268
   17SAPC  H17S 2209   3.131   3.509   8.804 -0.5507 -4.1336 -1.6174
   17SAPC  C218 2210   3.164   3.557   8.601 -0.1677 -0.1312 -0.1680
   17SAPC  H18R 2211   3.239   3.633   8.631 -1.4764  1.0654  0.1783
   17SAPC  H18S 2212   3.108   3.588   8.509 -1.1973 -0.6967  0.2479
   17SAPC  C219 2213   3.245   3.435   8.568 -0.3422 -0.9445 -0.2049
   17SAPC  H19R 2214   3.187   3.361   8.510  1.3453 -0.8255 -2.1852
   17SAPC  H19S 2215   3.284   3.383   8.658 -0.8224  0.0808  0.6163
   17SAPC  C220 2216   3.351   3.488   8.473  0.5562  0.3950 -0.2578
   17SAPC  H20R 2217   3.393   3.410   8.405 -0.9442 -0.6546 -0.0388
   17SAPC  H20S 2218   3.437   3.531   8.528  1.8474  0.4261 -2.2038
   17SAPC  H20T 2219   3.314   3.575   8.414 -0.4645 -0.7553 -1.3710
   17SAPC   C33 2220   2.456   4.574   9.722  0.4242 -0.2382  0.6482
   17SAPC   H3X 2221   2.497   4.667   9.766 -0.4095  1.2962 -1.6298
   17SAPC   H3Y 2222   2.347   4.582   9.743  0.5264  1.1956  0.7003
   17SAPC   C34 2223   2.479   4.571   9.569  0.5619  0.2789  0.0100
   17SAPC   H4X 2224   2.581   4.528   9.558  1.9342  3.2087  0.4626
   17SAPC   H4Y 2225   2.484   4.676   9.535 -1.3451  0.0492 -1.1321
   17SAPC   C35 2226   2.349   4.505   9.498 -0.0702  0.0732 -0.5531
   17SAPC   H5X 2227   2.257   4.548   9.542  0.8838  2.4648 -0.7130
   17SAPC   H5Y 2228   2.348   4.397   9.522 -0.5466 -0.0040 -0.9175
   17SAPC   C36 2229   2.354   4.530   9.342  0.9601 -0.0999  0.0755
   17SAPC   H6X 2230   2.438   4.470   9.302 -0.2085 -1.2498 -0.7598
   17SAPC   H6Y 2231   2.367   4.635   9.309  0.3275 -0.6594 -2.0920
   17SAPC   C37 2232   2.227   4.477   9.277 -0.8112 -0.6394  0.0953
   17SAPC   H7X 2233   2.137   4.533   9.311 -0.4186  1.8862 -2.6135
   17SAPC   H7Y 2234   2.219   4.370   9.308  0.4881 -0.7340  0.1830
   17SAPC   C38 2235   2.229   4.485   9.130  0.6604 -0.5304 -0.1906
   17SAPC   H8X 2236   2.246   4.591   9.101  2.0012 -0.9902 -1.1510
   17SAPC   H8Y 2237   2.130   4.460   9.085  0.5254  0.2813 -0.3743
   17SAPC   C39 2238   2.333   4.391   9.063  0.6521 -0.1843  0.5533
   17SAPC   H9X 2239   2.299   4.294   9.106 -3.3898  0.8480  0.1326
   17SAPC   H9Y 2240   2.437   4.415   9.093 -0.2203  1.5868  2.3766
   17SAPC  C310 2241   2.315   4.385   8.914 -0.0548  0.0396  0.2402
   17SAPC  H10X 2242   2.218   4.353   8.870  0.4095 -0.1305 -0.6854
   17SAPC  H10Y 2243   2.375   4.298   8.882 -1.0762  0.1700 -2.2628
   17SAPC  C311 2244   2.364   4.512   8.831 -0.6234  0.5016 -0.2739
   17SAPC  H11X 2245   2.472   4.529   8.851 -0.9702  1.2350  1.0799
   17SAPC  H11Y 2246   2.300   4.594   8.870 -1.9407 -1.6301  2.3787
   17SAPC  C312 2247   2.373   4.476   8.678 -0.2818  0.3277 -0.1092
   17SAPC  H12X 2248   2.267   4.454   8.654 -0.0753 -1.4531  0.4589
   17SAPC  H12Y 2249   2.422   4.378   8.656  0.7020  1.0138 -1.0584
   17SAPC  C313 2250   2.416   4.587   8.583  0.2653 -0.0626 -0.4248
   17SAPC  H13X 2251   2.525   4.597   8.603 -0.3249  0.6767  3.1871
   17SAPC  H13Y 2252   2.363   4.682   8.601  0.2722 -0.1938  0.3135
   17SAPC  C314 2253   2.423   4.565   8.432  0.8183  1.0396  0.0603
   17SAPC  H14X 2254   2.333   4.603   8.379  0.5678  0.6452  0.1979
   17SAPC  H14Y 2255   2.436   4.456   8.414  1.4084  1.0793  0.2126
   17SAPC  C315 2256   2.531   4.642   8.353 -0.6037 -0.2490  0.4286
   17SAPC  H15X 2257   2.626   4.642   8.410 -1.5758  0.1261  2.0873
   17SAPC  H15Y 2258   2.495   4.747   8.344  1.5679  0.4514 -0.7949
   17SAPC  C316 2259   2.549   4.596   8.211 -0.5275  0.5021  0.4900
   17SAPC  H16X 2260   2.460   4.620   8.149 -0.2294 -2.3694 -1.2082
   17SAPC  H16Y 2261   2.556   4.486   8.197  1.4821  1.0309 -4.4321
   17SAPC  C317 2262   2.679   4.647   8.143  0.4936 -0.4775 -0.0716
   17SAPC  H17X 2263   2.774   4.616   8.193  1.3960  1.9925 -0.1090
   17SAPC  H17Y 2264   2.680   4.756   8.160 -2.2414 -0.2534 -0.9629
   17SAPC  C318 2265   2.676   4.614   7.993  0.0530 -0.0677  0.0765
   17SAPC  H18X 2266   2.618   4.692   7.941 -0.6436  0.4345  1.5632
   17SAPC  H18Y 2267   2.779   4.639   7.958 -0.3859 -0.4646 -1.5757
   17SAPC  H18Z 2268   2.654   4.513   7.952 -1.6153  0.8736 -1.5017
   18SAPC     N 2269   3.641   5.010  11.077  0.0909  0.1610 -0.2870
   18SAPC   C12 2270   3.655   5.099  10.951 -0.1920 -0.1756  0.3833
   18SAPC  H12A 2271   3.760   5.097  10.927  0.1244  0.5028  1.6737
   18SAPC  H12B 2272   3.633   5.202  10.974 -1.6973 -0.3810 -0.0176
   18SAPC   C13 2273   3.502   5.011  11.127  0.8001  0.4763  0.3324
   18SAPC  H13A 2274   3.442   4.938  11.074 -1.3830  2.3206  0.0730
   18SAPC  H13B 2275   3.496   4.968  11.225 -0.5521 -1.4636 -0.5337
   18SAPC  H13C 2276   3.454   5.108  11.131 -1.7101 -0.4965 -2.2904
   18SAPC   C14 2277   3.680   4.867  11.054  0.1618  0.1931 -1.1294
   18SAPC  H14A 2278   3.787   4.856  11.043  0.7870  3.3955  0.6370
   18SAPC  H14B 2279   3.655   4.801  11.135 -1.0090  0.9122 -0.8768
   18SAPC  H14C 2280   3.628   4.844  10.962 -1.0799  1.3007 -0.7453
   18SAPC   C15 2281   3.714   5.081  11.187  0.1472  0.4370 -0.5574
   18SAPC  H15A 2282   3.706   5.021  11.277 -3.5461  0.8759 -0.4583
   18SAPC  H15B 2283   3.816   5.092  11.153 -0.1348  2.6796 -0.8031
   18SAPC  H15C 2284   3.678   5.180  11.210 -1.5300 -0.4830  1.0056
   18SAPC   C11 2285   3.571   5.061  10.821 -0.2076  0.0904  0.1116
   18SAPC  H11A 2286   3.587   5.139  10.744 -1.1747  1.3076  1.1092
   18SAPC  H11B 2287   3.465   5.075  10.851  0.2807 -1.5953  3.1150
   18SAPC     P 2288   3.708   4.904  10.675 -0.2914 -0.1719  0.0360
   18SAPC   O13 2289   3.822   4.999  10.703  0.6120 -0.1434 -0.6692
   18SAPC   O14 2290   3.746   4.762  10.671  0.8976 -0.3981 -0.0416
   18SAPC   O12 2291   3.598   4.924  10.782  0.9806  0.2455 -0.1882
   18SAPC   O11 2292   3.649   4.942  10.542 -0.2408 -0.2262  0.7285
   18SAPC    C1 2293   3.510   4.944  10.521  0.3762 -0.5095  0.5264
   18SAPC    HA 2294   3.448   4.961  10.611  1.7559  0.8814  1.2649
   18SAPC    HB 2295   3.484   5.026  10.449 -0.5622 -1.9598 -0.8571
   18SAPC    C2 2296   3.456   4.805  10.462  0.3870 -0.1229  0.3168
   18SAPC    HS 2297   3.446   4.738  10.550 -2.6877 -1.2298 -0.7409
   18SAPC   O21 2298   3.544   4.748  10.368 -0.2131  0.1705  0.6030
   18SAPC   C21 2299   3.568   4.814  10.257 -0.0013  0.0443 -0.6405
   18SAPC   O22 2300   3.516   4.918  10.222 -0.3564  0.1137 -0.1002
   18SAPC   C22 2301   3.663   4.725  10.177 -0.5642  0.1289 -0.0267
   18SAPC   H2R 2302   3.731   4.673  10.248 -0.1045  1.1982  0.3300
   18SAPC   H2S 2303   3.593   4.655  10.125 -1.1912  1.5694 -1.2108
   18SAPC    C3 2304   3.306   4.834  10.410 -0.5109 -0.1386 -1.0063
   18SAPC    HX 2305   3.321   4.935  10.367  1.7277 -0.0099 -0.0310
   18SAPC    HY 2306   3.242   4.838  10.501  1.0924  0.2394  0.1460
   18SAPC   O31 2307   3.269   4.739  10.313 -0.0348  0.5190 -0.6361
   18SAPC   C31 2308   3.254   4.614  10.356  0.1977  0.3578  0.3538
   18SAPC   O32 2309   3.255   4.570  10.467 -0.3162 -0.2904 -0.0004
   18SAPC   C32 2310   3.221   4.534  10.224 -0.4857  0.0610  0.3344
   18SAPC   H2X 2311   3.114   4.555  10.203 -0.3201 -0.6184 -1.2759
   18SAPC   H2Y 2312   3.248   4.429  10.250  1.4827 -0.6231 -3.7116
   18SAPC   C23 2313   3.728   4.792  10.060 -0.5086 -0.8296  0.6701
   18SAPC   H3R 2314   3.796   4.871  10.099 -0.2183  1.1388 -3.3267
   18SAPC   H3S 2315   3.652   4.856  10.011  0.4347 -0.2481 -0.0830
   18SAPC   C24 2316   3.800   4.711   9.950  0.0992 -0.0430 -0.1353
   18SAPC   H4R 2317   3.728   4.651   9.890  0.7406 -0.8159 -0.1430
   18SAPC   H4S 2318   3.866   4.634   9.996 -1.9621 -1.1611  1.1315
   18SAPC   C25 2319   3.877   4.803   9.863  0.7234  0.2927  0.1339
   18SAPC   H5R 2320   3.921   4.898   9.898  0.2883  0.1076  1.2429
   18SAPC   C26 2321   3.897   4.780   9.733  0.0842 -0.9678  0.0404
   18SAPC   H6R 2322   3.935   4.865   9.674 -4.1004 -0.2530 -2.0063
   18SAPC   C27 2323   3.850   4.668   9.643 -0.0771  0.1534 -0.0950
   18SAPC   H7R 2324   3.905   4.679   9.547 -0.4297 -0.6209 -0.3978
   18SAPC   H7S 2325   3.741   4.689   9.632 -0.1195  0.2586  0.5176
   18SAPC   C28 2326   3.870   4.525   9.689  0.0671  0.6744  0.6556
   18SAPC   H8R 2327   3.870   4.511   9.798  3.3633 -0.9450  0.5717
   18SAPC   C29 2328   3.885   4.417   9.613 -0.4381 -0.5134  0.0822
   18SAPC   H9R 2329   3.900   4.321   9.664 -0.7498 -0.5140  0.1784
   18SAPC  C210 2330   3.873   4.410   9.464  0.1411  0.0031  1.2908
   18SAPC  H10R 2331   3.847   4.509   9.421  2.1594 -0.2143 -0.6278
   18SAPC  H10S 2332   3.785   4.346   9.442 -0.8857  1.4985  0.9433
   18SAPC  C211 2333   3.980   4.356   9.374  0.5749 -0.0680 -0.2826
   18SAPC  H11R 2334   4.072   4.383   9.428 -0.5429  0.3523  1.5134
   18SAPC  C212 2335   3.976   4.305   9.245  0.0313 -0.1762 -0.3332
   18SAPC  H12R 2336   4.077   4.273   9.216  0.4652 -0.4091  1.3366
   18SAPC  C213 2337   3.862   4.276   9.152  0.4240  0.1316 -0.1657
   18SAPC  H13R 2338   3.762   4.308   9.188  0.4103  0.8071 -0.7752
   18SAPC  H13S 2339   3.867   4.165   9.147 -0.4321  0.0052  1.2691
   18SAPC  C214 2340   3.872   4.340   9.005 -0.4382 -0.0047 -0.6442
   18SAPC  H14R 2341   3.827   4.273   8.930 -0.9601 -2.5262  1.7281
   18SAPC  C215 2342   3.930   4.450   8.962 -0.0032 -0.3823 -0.2342
   18SAPC  H15R 2343   3.904   4.483   8.860 -2.5003  0.1525  0.5107
   18SAPC  C216 2344   4.006   4.554   9.039 -0.1744 -0.5376  0.3198
   18SAPC  H16R 2345   4.114   4.534   9.023  0.0048 -1.0235  1.9218
   18SAPC  H16S 2346   3.983   4.546   9.147 -1.3175 -2.8621 -0.0365
   18SAPC  C217 2347   3.975   4.699   8.991 -0.2844 -0.0050 -0.5686
   18SAPC  H17R 2348   3.984   4.699   8.880 -1.3221 -4.1397 -0.8380
   18SAPC  H17S 2349   4.039   4.775   9.039  0.1404 -0.1918 -0.8399
   18SAPC  C218 2350   3.830   4.737   9.033 -0.6012  0.3371 -0.1579
   18SAPC  H18R 2351   3.762   4.659   8.994  0.9580 -0.8277 -0.6467
   18SAPC  H18S 2352   3.793   4.827   8.979 -0.7507  0.1097 -0.4292
   18SAPC  C219 2353   3.802   4.746   9.188  0.0323  0.2597  0.0127
   18SAPC  H19R 2354   3.833   4.650   9.236  0.6348  0.1352 -0.6158
   18SAPC  H19S 2355   3.692   4.740   9.205  0.2986 -0.3726  1.7604
   18SAPC  C220 2356   3.861   4.870   9.265 -0.5141  0.0107  0.1612
   18SAPC  H20R 2357   3.825   4.966   9.223 -0.8806 -0.5830 -0.9513
   18SAPC  H20S 2358   3.972   4.869   9.257 -0.3939  0.2227  1.5828
   18SAPC  H20T 2359   3.831   4.860   9.371  0.0946  0.6197  0.3966
   18SAPC   C33 2360   3.316   4.564  10.106 -0.1598 -0.4306 -0.0883
   18SAPC   H3X 2361   3.415   4.535  10.147 -0.1076  1.4478  1.2530
   18SAPC   H3Y 2362   3.312   4.673  10.082 -1.1109 -0.5110 -0.3550
   18SAPC   C34 2363   3.281   4.472   9.994  0.1881 -0.2503  0.0178
   18SAPC   H4X 2364   3.177   4.488   9.959  0.5889  0.3886 -0.9146
   18SAPC   H4Y 2365   3.280   4.371  10.040  1.6020 -0.7302 -0.9279
   18SAPC   C35 2366   3.380   4.498   9.883 -0.3846  0.3993 -0.4475
   18SAPC   H5X 2367   3.482   4.512   9.924 -0.4199  0.0555 -0.2416
   18SAPC   H5Y 2368   3.351   4.588   9.825  0.4069  0.1449 -1.2487
   18SAPC   C36 2369   3.383   4.393   9.774  0.6301 -0.2315 -0.5147
   18SAPC   H6X 2370   3.285   4.391   9.721  0.5635 -0.3324 -0.3853
   18SAPC   H6Y 2371   3.409   4.299   9.826 -0.4013 -0.1606  0.1536
   18SAPC   C37 2372   3.498   4.419   9.671 -0.2070  0.6689  0.4687
   18SAPC   H7X 2373   3.509   4.315   9.635 -2.2184  0.1431  1.1931
   18SAPC   H7Y 2374   3.588   4.446   9.731  0.8169  0.0278 -0.7463
   18SAPC   C38 2375   3.460   4.499   9.547  0.3717 -0.3665 -0.0749
   18SAPC   H8X 2376   3.544   4.568   9.522  0.2805  0.0977  0.8742
   18SAPC   H8Y 2377   3.379   4.571   9.574  1.8467  0.5473  2.2480
   18SAPC   C39 2378   3.442   4.406   9.422  0.3167 -0.0100  0.8137
   18SAPC   H9X 2379   3.362   4.331   9.443  0.6312 -1.0456 -1.3554
   18SAPC   H9Y 2380   3.541   4.363   9.396 -0.3863 -0.3492 -1.5471
   18SAPC  C310 2381   3.419   4.482   9.292  0.3349 -0.3062  0.5143
   18SAPC  H10X 2382   3.502   4.553   9.270 -0.2013  0.0647 -0.3843
   18SAPC  H10Y 2383   3.317   4.525   9.280  0.6049  0.2135  0.0048
   18SAPC  C311 2384   3.440   4.383   9.175 -0.5333  0.2083 -1.2765
   18SAPC  H11X 2385   3.354   4.314   9.161 -0.1946 -0.3422 -0.7154
   18SAPC  H11Y 2386   3.524   4.317   9.204 -1.1275  0.3352  0.9392
   18SAPC  C312 2387   3.476   4.450   9.040 -0.0969 -0.1741 -0.4786
   18SAPC  H12X 2388   3.571   4.507   9.047  0.3800 -0.6705 -2.3829
   18SAPC  H12Y 2389   3.400   4.525   9.011 -2.4160 -1.0196  2.7682
   18SAPC  C313 2390   3.512   4.351   8.929  0.8420 -0.2641 -0.6413
   18SAPC  H13X 2391   3.552   4.261   8.980  0.1134 -0.3871 -0.2696
   18SAPC  H13Y 2392   3.590   4.400   8.867 -0.8949  1.4075 -1.6602
   18SAPC  C314 2393   3.392   4.312   8.839  0.1080 -0.1742 -0.0648
   18SAPC  H14X 2394   3.363   4.411   8.798  0.9310  0.3525  0.5763
   18SAPC  H14Y 2395   3.308   4.265   8.894 -1.5862 -0.8288 -3.0375
   18SAPC  C315 2396   3.418   4.213   8.727 -0.4666  0.4200 -0.3646
   18SAPC  H15X 2397   3.488   4.245   8.647 -1.2979 -1.5401 -1.9525
   18SAPC  H15Y 2398   3.321   4.181   8.685 -0.4340  2.0894 -1.7960
   18SAPC  C316 2399   3.473   4.086   8.780 -0.4089  0.1058 -0.1775
   18SAPC  H16X 2400   3.424   4.065   8.877  0.2217  0.5340  0.2373
   18SAPC  H16Y 2401   3.584   4.095   8.779 -0.4492  0.6161  0.0936
   18SAPC  C317 2402   3.458   3.965   8.685  0.0319  0.4998 -0.6875
   18SAPC  H17X 2403   3.518   3.998   8.597  1.2232  0.8381  0.2203
   18SAPC  H17Y 2404   3.355   3.962   8.643  0.0187  1.3776 -0.7312
   18SAPC  C318 2405   3.520   3.833   8.725  1.0433  0.6534 -0.2576
   18SAPC  H18X 2406   3.524   3.760   8.642 -3.4428  0.5133 -0.6278
   18SAPC  H18Y 2407   3.446   3.776   8.787 -1.5884  0.0324 -3.6771
   18SAPC  H18Z 2408   3.620   3.836   8.773  0.8542 -2.1364  0.5254
   19SAPC     N 2409   1.234   6.761  10.471 -0.1359  0.8109  0.8841
   19SAPC   C12 2410   1.267   6.658  10.576  0.3896 -0.2592 -0.2385
   19SAPC  H12A 2411   1.340   6.702  10.642 -0.5988  0.6738  0.2487
   19SAPC  H12B 2412   1.316   6.568  10.542  0.5117 -0.2135 -0.1864
   19SAPC   C13 2413   1.166   6.885  10.517  0.0734  0.2625  0.7779
   19SAPC  H13A 2414   1.157   6.947  10.429 -0.4687  1.8779  1.9180
   19SAPC  H13B 2415   1.069   6.866  10.558 -0.7866 -2.0301 -1.9870
   19SAPC  H13C 2416   1.229   6.946  10.581 -0.3401  2.5127 -0.8390
   19SAPC   C14 2417   1.355   6.799  10.392 -0.0184 -0.8860  0.0512
   19SAPC  H14A 2418   1.324   6.869  10.316  1.0102 -0.4515  0.0137
   19SAPC  H14B 2419   1.422   6.852  10.459  1.1300  0.5561 -2.1013
   19SAPC  H14C 2420   1.400   6.714  10.343  1.0277 -0.8580  0.9156
   19SAPC   C15 2421   1.146   6.686  10.371 -0.4392  0.8039 -1.1176
   19SAPC  H15A 2422   1.058   6.647  10.418 -0.2991  2.8613  1.0627
   19SAPC  H15B 2423   1.112   6.763  10.303 -1.9979  2.3178  1.2471
   19SAPC  H15C 2424   1.192   6.610  10.310 -3.5626  0.0512 -2.7102
   19SAPC   C11 2425   1.155   6.595  10.658  0.4806 -0.1438  0.4749
   19SAPC  H11A 2426   1.086   6.665  10.710  0.4510 -0.5009  0.9141
   19SAPC  H11B 2427   1.192   6.535  10.743 -0.6813 -0.1009  1.0386
   19SAPC     P 2428   1.157   6.367  10.528 -0.0750 -0.4457  0.0541
   19SAPC   O13 2429   1.196   6.303  10.651  0.2174  0.8277 -0.0697
   19SAPC   O14 2430   1.059   6.299  10.443  0.1974 -0.2225  0.8915
   19SAPC   O12 2431   1.083   6.501  10.572  0.0339 -0.6544  0.8116
   19SAPC   O11 2432   1.281   6.407  10.439 -0.0028 -0.1837  0.0873
   19SAPC    C1 2433   1.411   6.357  10.470 -0.6020  0.3921 -0.0493
   19SAPC    HA 2434   1.455   6.408  10.558 -1.4143 -2.1945  1.9903
   19SAPC    HB 2435   1.400   6.249  10.493  2.1167 -0.1043 -0.7132
   19SAPC    C2 2436   1.501   6.356  10.338 -0.1009  0.9136 -0.2157
   19SAPC    HS 2437   1.525   6.461  10.313 -2.7469  2.1057  1.7487
   19SAPC   O21 2438   1.424   6.295  10.226 -0.0646 -0.0638  0.1281
   19SAPC   C21 2439   1.338   6.378  10.172 -0.2867 -0.0704  0.1706
   19SAPC   O22 2440   1.353   6.496  10.165  0.3605 -0.4038 -0.7230
   19SAPC   C22 2441   1.231   6.287  10.109  0.2282 -0.8095 -0.7661
   19SAPC   H2R 2442   1.269   6.266  10.007  2.6585  2.0821 -0.6067
   19SAPC   H2S 2443   1.219   6.199  10.174  1.2441  0.1566  0.7746
   19SAPC    C3 2444   1.641   6.282  10.360  0.5136  0.6343 -0.6072
   19SAPC    HX 2445   1.612   6.175  10.353  1.7565  0.1885  0.6174
   19SAPC    HY 2446   1.679   6.303  10.462 -3.8200  1.1667  1.1170
   19SAPC   O31 2447   1.729   6.333  10.261  0.1121  0.0902  0.2434
   19SAPC   C31 2448   1.815   6.247  10.209  0.8449 -0.0871  0.7268
   19SAPC   O32 2449   1.811   6.123  10.235  0.7575 -1.0779 -0.5424
   19SAPC   C32 2450   1.903   6.319  10.098 -0.3980  0.3019  0.1491
   19SAPC   H2X 2451   2.003   6.270  10.091 -0.8483 -0.8419  1.3706
   19SAPC   H2Y 2452   1.914   6.425  10.129  3.4982 -0.2965  1.4212
   19SAPC   C23 2453   1.087   6.347  10.100  0.2236  0.9109  0.5497
   19SAPC   H3R 2454   1.068   6.396  10.197 -2.3427  1.6684 -0.2668
   19SAPC   H3S 2455   1.002   6.278  10.085  0.7301 -0.2129  2.4945
   19SAPC   C24 2456   1.081   6.453   9.991 -0.0513  0.0275 -1.1293
   19SAPC   H4R 2457   1.099   6.408   9.892  1.1837 -2.7621  0.2596
   19SAPC   H4S 2458   1.161   6.529  10.008 -0.7767  0.9626 -1.7610
   19SAPC   C25 2459   0.957   6.538   9.996 -0.5471  0.2684 -0.7511
   19SAPC   H5R 2460   0.918   6.560  10.096  0.4090  1.0764 -0.5404
   19SAPC   C26 2461   0.895   6.588   9.893  0.5615  0.0611 -0.0034
   19SAPC   H6R 2462   0.807   6.649   9.918  2.0511  2.3842 -0.0744
   19SAPC   C27 2463   0.935   6.568   9.743  0.0385  0.4531 -0.2018
   19SAPC   H7R 2464   1.045   6.555   9.731  0.3726  1.1076  1.7437
   19SAPC   H7S 2465   0.901   6.659   9.689  0.7387  0.0004 -1.4363
   19SAPC   C28 2466   0.860   6.446   9.686  0.0693  0.1251 -0.2601
   19SAPC   H8R 2467   0.808   6.374   9.751 -0.4319 -1.6105 -2.4206
   19SAPC   C29 2468   0.854   6.422   9.551  0.0630 -0.9558  0.2580
   19SAPC   H9R 2469   0.786   6.345   9.510 -1.9386  0.9535 -0.2099
   19SAPC  C210 2470   0.914   6.500   9.436  0.6544  0.0078  0.1339
   19SAPC  H10R 2471   0.951   6.603   9.456  1.4304 -0.1448 -0.4763
   19SAPC  H10S 2472   0.836   6.519   9.358  0.3243 -0.4049  0.3609
   19SAPC  C211 2473   1.029   6.426   9.368 -0.0217 -0.2542 -0.1352
   19SAPC  H11R 2474   1.093   6.367   9.434 -1.3341  0.5332  1.9429
   19SAPC  C212 2475   1.064   6.431   9.231 -0.3308  0.2966 -0.0295
   19SAPC  H12R 2476   1.151   6.368   9.204  0.3295  1.0167  0.3704
   19SAPC  C213 2477   0.996   6.510   9.121 -0.0933 -0.1279  0.3555
   19SAPC  H13R 2478   1.057   6.583   9.064 -2.5883  1.6528 -0.2016
   19SAPC  H13S 2479   0.915   6.580   9.151 -0.5971 -0.6412  0.1914
   19SAPC  C214 2480   0.932   6.421   9.022  0.5180  0.1258  0.5203
   19SAPC  H14R 2481   0.874   6.338   9.067  1.0168 -0.9586 -0.7647
   19SAPC  C215 2482   0.935   6.420   8.890  0.3848  0.2741 -0.6529
   19SAPC  H15R 2483   0.858   6.354   8.848 -1.6082  0.2394  2.6802
   19SAPC  C216 2484   1.006   6.516   8.803 -0.0275 -0.3232  0.3143
   19SAPC  H16R 2485   1.069   6.461   8.730  1.2478  1.4958 -0.0144
   19SAPC  H16S 2486   1.065   6.583   8.869  0.0903  0.2774 -0.3966
   19SAPC  C217 2487   0.915   6.620   8.724 -0.6697  0.3375 -0.1495
   19SAPC  H17R 2488   0.862   6.690   8.793 -0.6198  0.4064 -0.1804
   19SAPC  H17S 2489   0.839   6.550   8.683  1.8795 -1.6878 -1.7739
   19SAPC  C218 2490   0.986   6.693   8.608  0.8692 -0.2880 -0.6185
   19SAPC  H18R 2491   1.000   6.620   8.525  0.1333  0.1851 -1.1647
   19SAPC  H18S 2492   1.089   6.720   8.641  1.5649 -1.7852 -1.4543
   19SAPC  C219 2493   0.907   6.814   8.550 -0.6123  0.0874 -0.0976
   19SAPC  H19R 2494   0.887   6.886   8.633 -1.8246 -0.8764  0.4808
   19SAPC  H19S 2495   0.804   6.782   8.526  0.6069 -3.4588 -1.2364
   19SAPC  C220 2496   0.975   6.883   8.432  0.0364  0.2560 -0.2009
   19SAPC  H20R 2497   0.947   6.987   8.405 -0.3530  0.2929  0.3399
   19SAPC  H20S 2498   0.964   6.823   8.339  1.8269  1.1017 -1.0189
   19SAPC  H20T 2499   1.084   6.876   8.452 -0.0682 -0.1448  0.2547
   19SAPC   C33 2500   1.832   6.316   9.959  0.3622 -0.3380 -0.0878
   19SAPC   H3X 2501   1.806   6.211   9.932  1.1902 -0.0828 -2.0795
   19SAPC   H3Y 2502   1.911   6.349   9.888 -0.9039  0.6184 -1.1167
   19SAPC   C34 2503   1.722   6.419   9.941  0.0694  0.4390  0.3648
   19SAPC   H4X 2504   1.771   6.502   9.996  0.8933  0.0508  0.2233
   19SAPC   H4Y 2505   1.638   6.375  10.000  1.5604 -0.7147  1.6980
   19SAPC   C35 2506   1.693   6.459   9.798  0.8900  0.1911  0.8023
   19SAPC   H5X 2507   1.590   6.501   9.795  1.1620  0.8688 -2.2325
   19SAPC   H5Y 2508   1.682   6.368   9.736 -1.7853  2.1734 -1.9427
   19SAPC   C36 2509   1.785   6.564   9.742 -0.5165  0.0184  0.6546
   19SAPC   H6X 2510   1.886   6.525   9.717 -0.3137  1.2864 -0.6171
   19SAPC   H6Y 2511   1.805   6.635   9.825  1.9265  2.0928 -1.5075
   19SAPC   C37 2512   1.723   6.635   9.611  0.0532  0.0257  0.0421
   19SAPC   H7X 2513   1.814   6.693   9.585  0.0749  0.3137  0.7188
   19SAPC   H7Y 2514   1.653   6.712   9.650  1.0824  2.0545 -1.9316
   19SAPC   C38 2515   1.683   6.539   9.498  0.2510 -0.0164 -0.2026
   19SAPC   H8X 2516   1.651   6.604   9.414  0.4271  2.1064  1.3067
   19SAPC   H8Y 2517   1.598   6.472   9.523  0.2303  0.3309  0.7141
   19SAPC   C39 2518   1.792   6.444   9.448  0.2750 -0.0076  0.0432
   19SAPC   H9X 2519   1.823   6.373   9.528  1.5981  0.2088 -0.2514
   19SAPC   H9Y 2520   1.885   6.505   9.442  0.4967 -0.4130 -0.8278
   19SAPC  C310 2521   1.748   6.384   9.313 -0.7436 -0.0490  0.2877
   19SAPC  H10X 2522   1.703   6.466   9.253  1.1948 -0.7348 -2.2732
   19SAPC  H10Y 2523   1.669   6.307   9.325  0.7995 -1.5814  1.0076
   19SAPC  C311 2524   1.858   6.320   9.230 -0.9610  0.5129 -0.6417
   19SAPC  H11X 2525   1.903   6.228   9.273 -0.2389  1.3974  0.5866
   19SAPC  H11Y 2526   1.945   6.389   9.222 -1.4276  1.0578 -1.1087
   19SAPC  C312 2527   1.821   6.296   9.088  0.7169 -0.6441  0.3052
   19SAPC  H12X 2528   1.799   6.394   9.042  0.7004 -0.9102 -0.2580
   19SAPC  H12Y 2529   1.736   6.225   9.097  1.6457 -1.8051  0.1472
   19SAPC  C313 2530   1.933   6.228   9.015  0.1067  0.6709  0.6292
   19SAPC  H13X 2531   1.954   6.129   9.062  1.3205 -0.5760 -2.2382
   19SAPC  H13Y 2532   2.017   6.300   9.023 -0.4550  1.1654  2.5989
   19SAPC  C314 2533   1.923   6.207   8.863  1.0442 -0.0029 -0.0292
   19SAPC  H14X 2534   2.014   6.154   8.826  0.2829 -1.0749 -0.3984
   19SAPC  H14Y 2535   1.906   6.307   8.817 -4.0248  0.4488  2.1791
   19SAPC  C315 2536   1.795   6.135   8.809 -0.3928 -0.3053  0.5669
   19SAPC  H15X 2537   1.717   6.158   8.884  0.2066 -0.1731  1.1552
   19SAPC  H15Y 2538   1.811   6.025   8.821  0.6004 -0.0118  2.2047
   19SAPC  C316 2539   1.744   6.183   8.664 -1.3287  0.2147  0.5325
   19SAPC  H16X 2540   1.810   6.162   8.578 -1.2806 -1.0955  0.8680
   19SAPC  H16Y 2541   1.735   6.294   8.667 -1.0252  0.2551 -0.0695
   19SAPC  C317 2542   1.615   6.108   8.635  0.8049  0.1731 -1.1635
   19SAPC  H17X 2543   1.546   6.128   8.720  1.9223 -0.6780 -0.0171
   19SAPC  H17Y 2544   1.641   6.000   8.633  0.0427 -0.0389 -0.3333
   19SAPC  C318 2545   1.565   6.144   8.499  0.6281 -1.0255 -0.1432
   19SAPC  H18X 2546   1.599   6.076   8.419 -1.3768 -1.1338 -0.9483
   19SAPC  H18Y 2547   1.575   6.249   8.463  1.9499 -1.1466 -0.1886
   19SAPC  H18Z 2548   1.459   6.111   8.507 -0.1906  1.5445  1.0340
   20SAPC     N 2549   2.050   3.852  10.673 -1.2087  0.1080 -0.0016
   20SAPC   C12 2550   1.954   3.723  10.658 -0.1377 -0.1212  0.0791
   20SAPC  H12A 2551   1.934   3.693  10.760  0.8221  0.2934  0.4065
   20SAPC  H12B 2552   2.015   3.648  10.610 -0.1554 -0.0456 -0.0619
   20SAPC   C13 2553   2.076   3.906  10.541 -0.7401  0.3550  0.4586
   20SAPC  H13A 2554   2.143   3.848  10.479  0.5048  2.3281 -0.1262
   20SAPC  H13B 2555   1.981   3.925  10.494 -1.9550 -2.7944  1.3984
   20SAPC  H13C 2556   2.134   3.997  10.550  0.6746 -0.5693  1.1141
   20SAPC   C14 2557   1.985   3.958  10.758  0.5509  0.2790  0.4610
   20SAPC  H14A 2558   1.880   3.941  10.741  0.3037 -1.6896  3.2560
   20SAPC  H14B 2559   2.006   3.941  10.863 -0.8733 -0.1026  0.7026
   20SAPC  H14C 2560   2.010   4.056  10.723 -0.6822  0.6982  0.7029
   20SAPC   C15 2561   2.180   3.800  10.728  0.0198 -0.4150 -0.4458
   20SAPC  H15A 2562   2.175   3.766  10.831 -1.7504  0.3491 -0.2308
   20SAPC  H15B 2563   2.227   3.715  10.681  0.8552  0.2383 -0.8098
   20SAPC  H15C 2564   2.254   3.879  10.729  1.2523 -1.5393  0.9644
   20SAPC   C11 2565   1.816   3.752  10.592 -0.8774 -0.5064 -0.3841
   20SAPC  H11A 2566   1.763   3.656  10.573 -0.0855 -0.8753 -0.8163
   20SAPC  H11B 2567   1.818   3.794  10.490 -1.0270  2.8141  0.8739
   20SAPC     P 2568   1.671   3.801  10.802 -0.0372  0.4903 -0.0874
   20SAPC   O13 2569   1.777   3.783  10.898 -0.1104  0.4805  0.1251
   20SAPC   O14 2570   1.563   3.896  10.835  0.0635  0.1810  0.9241
   20SAPC   O12 2571   1.731   3.844  10.661  0.4425 -0.4313  0.7393
   20SAPC   O11 2572   1.600   3.658  10.767 -0.1234 -0.5818 -0.1122
   20SAPC    C1 2573   1.465   3.666  10.712 -0.5290 -0.0258  0.5327
   20SAPC    HA 2574   1.379   3.638  10.777 -0.6185 -4.2288 -1.0832
   20SAPC    HB 2575   1.448   3.757  10.650  0.3811 -1.5651 -2.1301
   20SAPC    C2 2576   1.446   3.552  10.609 -0.0949 -0.3745 -0.1335
   20SAPC    HS 2577   1.454   3.457  10.667  0.2696  1.0102  2.2339
   20SAPC   O21 2578   1.557   3.559  10.520 -0.3402  0.3132 -0.1286
   20SAPC   C21 2579   1.560   3.459  10.435 -0.1624 -0.4153  0.3966
   20SAPC   O22 2580   1.502   3.352  10.443  0.7348 -0.1432  0.1523
   20SAPC   C22 2581   1.662   3.491  10.325  0.1687 -1.0301 -0.5641
   20SAPC   H2R 2582   1.768   3.506  10.356 -0.1197 -0.0378 -0.0253
   20SAPC   H2S 2583   1.660   3.409  10.250 -1.9492 -2.0457  0.5154
   20SAPC    C3 2584   1.305   3.563  10.538 -0.2731  1.0453  0.8139
   20SAPC    HX 2585   1.229   3.546  10.617 -1.7670 -0.2018 -0.7863
   20SAPC    HY 2586   1.283   3.479  10.468  0.1436  1.5935  0.0086
   20SAPC   O31 2587   1.296   3.680  10.463 -0.2470 -0.4962 -0.2158
   20SAPC   C31 2588   1.220   3.769  10.523  0.1461  0.3577  0.1508
   20SAPC   O32 2589   1.159   3.746  10.630 -0.1869  0.1716 -0.2957
   20SAPC   C32 2590   1.206   3.894  10.434 -0.2245  0.1952  0.0568
   20SAPC   H2X 2591   1.221   3.987  10.492  0.4034 -0.3543  0.7802
   20SAPC   H2Y 2592   1.097   3.896  10.409 -0.1815 -0.6246 -0.2189
   20SAPC   C23 2593   1.614   3.624  10.250  0.0314  0.4176 -1.0521
   20SAPC   H3R 2594   1.703   3.681  10.216  0.6004 -1.3331 -2.6326
   20SAPC   H3S 2595   1.548   3.689  10.312 -1.8655  0.1260 -2.6505
   20SAPC   C24 2596   1.528   3.591  10.127  1.2080 -0.1636  0.4726
   20SAPC   H4R 2597   1.590   3.528  10.059 -1.4074 -3.0767  0.5754
   20SAPC   H4S 2598   1.501   3.683  10.070 -1.8987 -1.1563  0.1518
   20SAPC   C25 2599   1.397   3.524  10.153  0.4391 -0.0815 -0.2447
   20SAPC   H5R 2600   1.371   3.469  10.244 -2.1979  1.8644  0.3022
   20SAPC   C26 2601   1.299   3.531  10.066  1.2791  0.9913 -0.5940
   20SAPC   H6R 2602   1.219   3.456  10.070  0.4676  1.8076 -1.0207
   20SAPC   C27 2603   1.290   3.607   9.939 -0.1580 -0.5547 -0.4698
   20SAPC   H7R 2604   1.348   3.701   9.955  1.2815 -1.6640  1.1263
   20SAPC   H7S 2605   1.189   3.646   9.916  0.1291  0.9635  0.6760
   20SAPC   C28 2606   1.361   3.555   9.816  0.2029 -0.4987  0.4938
   20SAPC   H8R 2607   1.408   3.638   9.763 -1.8138 -0.4326 -1.3436
   20SAPC   C29 2608   1.354   3.441   9.748  0.0889  0.3051  0.4295
   20SAPC   H9R 2609   1.414   3.436   9.656  1.8761 -0.8695  1.6040
   20SAPC  C210 2610   1.264   3.321   9.784  0.4260 -0.0442 -0.0027
   20SAPC  H10R 2611   1.228   3.319   9.889 -0.3047 -2.7008 -0.2420
   20SAPC  H10S 2612   1.327   3.231   9.773 -0.5245 -0.4607 -2.8308
   20SAPC  C211 2613   1.152   3.328   9.683  0.1908  0.1074 -1.0712
   20SAPC  H11R 2614   1.096   3.422   9.675  1.6663  1.1904  0.5899
   20SAPC  C212 2615   1.108   3.229   9.604  0.0608 -0.2355 -0.6180
   20SAPC  H12R 2616   1.039   3.267   9.526  0.6202  1.1965 -0.4510
   20SAPC  C213 2617   1.157   3.089   9.601 -0.8799 -0.0255 -0.0320
   20SAPC  H13R 2618   1.267   3.084   9.589 -1.0153 -2.7058 -0.8986
   20SAPC  H13S 2619   1.129   3.041   9.504 -1.7837  1.6991 -0.6600
   20SAPC  C214 2620   1.107   2.992   9.702  0.1560  0.1207  0.1701
   20SAPC  H14R 2621   1.187   2.967   9.773  0.5065 -0.6561 -0.4887
   20SAPC  C215 2622   0.976   2.951   9.722 -0.6553 -0.0646 -0.0097
   20SAPC  H15R 2623   0.959   2.874   9.799  0.3836 -0.3730 -0.0783
   20SAPC  C216 2624   0.860   2.982   9.634 -1.4617 -0.3912 -0.6990
   20SAPC  H16R 2625   0.882   3.077   9.580  0.3504 -0.4939 -0.1931
   20SAPC  H16S 2626   0.768   2.994   9.696 -1.3552 -6.4839  1.2468
   20SAPC  C217 2627   0.837   2.872   9.526 -0.2410  0.0785  0.6814
   20SAPC  H17R 2628   0.816   2.772   9.569 -0.8192 -0.4657 -0.8133
   20SAPC  H17S 2629   0.936   2.868   9.475 -0.1934 -0.3897  0.8123
   20SAPC  C218 2630   0.723   2.915   9.435  0.5488  0.8135  0.4887
   20SAPC  H18R 2631   0.748   3.008   9.380 -0.5068  2.2837  2.3743
   20SAPC  H18S 2632   0.636   2.931   9.501  0.2061  0.5177  0.1135
   20SAPC  C219 2633   0.679   2.802   9.344 -0.2696  0.8334 -0.5632
   20SAPC  H19R 2634   0.583   2.835   9.301 -0.3103 -1.2960 -2.2925
   20SAPC  H19S 2635   0.663   2.714   9.410 -0.3404  1.4083  0.1995
   20SAPC  C220 2636   0.782   2.771   9.232 -0.2311 -0.4260  0.1454
   20SAPC  H20R 2637   0.874   2.753   9.291 -1.1085 -0.0794  1.6960
   20SAPC  H20S 2638   0.795   2.853   9.158 -0.6876  0.0071  0.5352
   20SAPC  H20T 2639   0.759   2.679   9.174  0.4140 -0.6205  0.1953
   20SAPC   C33 2640   1.281   3.900  10.298  0.1716  0.5899  0.2594
   20SAPC   H3X 2641   1.259   3.806  10.243  2.5663  1.0857 -1.7534
   20SAPC   H3Y 2642   1.387   3.911  10.329 -0.1820  0.3208  1.6175
   20SAPC   C34 2643   1.242   4.021  10.221  0.6175 -0.1529 -1.2013
   20SAPC   H4X 2644   1.287   4.112  10.266 -0.4228 -0.9790  1.7480
   20SAPC   H4Y 2645   1.132   4.037  10.220  0.5500 -0.5994 -2.3706
   20SAPC   C35 2646   1.289   4.024  10.076 -0.2655 -0.2264  0.1458
   20SAPC   H5X 2647   1.366   3.947  10.054 -0.2204  0.0810 -0.8422
   20SAPC   H5Y 2648   1.333   4.123  10.050 -1.2139  0.1265 -0.1445
   20SAPC   C36 2649   1.169   3.998   9.981 -0.3656 -0.0543 -0.9914
   20SAPC   H6X 2650   1.091   4.075   9.996  0.1461  0.3609 -0.4457
   20SAPC   H6Y 2651   1.124   3.907  10.026 -0.0165  0.5775  0.7016
   20SAPC   C37 2652   1.218   3.969   9.842  0.0909 -0.6911  0.3437
   20SAPC   H7X 2653   1.285   3.880   9.838  3.0207  1.4150 -0.0451
   20SAPC   H7Y 2654   1.275   4.060   9.816  1.3917 -1.0450  1.7703
   20SAPC   C38 2655   1.106   3.942   9.740 -0.5718 -0.4932  0.5360
   20SAPC   H8X 2656   1.052   4.035   9.714  1.6169  0.3865 -1.2116
   20SAPC   H8Y 2657   1.027   3.874   9.779  0.1428 -1.0221  1.0837
   20SAPC   C39 2658   1.161   3.878   9.604 -0.3200  0.5007  0.2851
   20SAPC   H9X 2659   1.214   3.781   9.618 -0.1904  0.7852  1.9232
   20SAPC   H9Y 2660   1.212   3.963   9.555 -2.1537  2.7938  2.1440
   20SAPC  C310 2661   1.049   3.845   9.499 -0.7683 -0.6127 -0.0500
   20SAPC  H10X 2662   0.979   3.931   9.496 -0.2199 -0.1123  0.8862
   20SAPC  H10Y 2663   0.987   3.760   9.535  1.1434 -1.7828  0.6647
   20SAPC  C311 2664   1.105   3.812   9.363 -0.3511 -0.0398 -0.0007
   20SAPC  H11X 2665   1.181   3.882   9.323 -1.6362  1.2311 -0.2618
   20SAPC  H11Y 2666   1.022   3.806   9.290 -0.8057  1.4526  0.3648
   20SAPC  C312 2667   1.152   3.664   9.370 -0.4828  0.2357  0.6376
   20SAPC  H12X 2668   1.067   3.601   9.404  2.1004 -2.6726  2.1817
   20SAPC  H12Y 2669   1.231   3.642   9.444  0.6891 -0.8467 -0.8838
   20SAPC  C313 2670   1.204   3.619   9.229 -0.5205 -0.4009 -0.1873
   20SAPC  H13X 2671   1.305   3.660   9.208 -0.9035  1.1568  0.8522
   20SAPC  H13Y 2672   1.128   3.657   9.157 -0.0366  0.9718  0.0043
   20SAPC  C314 2673   1.210   3.467   9.221  0.2197 -0.0074  0.4988
   20SAPC  H14X 2674   1.121   3.416   9.265  0.8355 -1.3578  0.2344
   20SAPC  H14Y 2675   1.289   3.428   9.288  0.3403 -0.5769  0.0339
   20SAPC  C315 2676   1.230   3.415   9.073  0.2528  0.2595  0.6650
   20SAPC  H15X 2677   1.242   3.306   9.056  0.3829  0.2361  0.8920
   20SAPC  H15Y 2678   1.326   3.457   9.036  0.2961  1.1245  1.7014
   20SAPC  C316 2679   1.116   3.447   8.968 -0.2597 -0.7166 -0.4700
   20SAPC  H16X 2680   1.121   3.556   8.947 -2.3482 -1.0578 -3.2817
   20SAPC  H16Y 2681   1.012   3.443   9.005 -0.7162 -5.6812 -1.5711
   20SAPC  C317 2682   1.131   3.391   8.824 -0.1596  0.3494  0.5544
   20SAPC  H17X 2683   1.093   3.287   8.822  3.0720 -0.9601  1.1734
   20SAPC  H17Y 2684   1.241   3.384   8.815  0.0307  2.8936  0.1296
   20SAPC  C318 2685   1.067   3.474   8.715  0.2786  0.6874 -0.1162
   20SAPC  H18X 2686   1.111   3.574   8.733  1.0646  0.6166 -1.5300
   20SAPC  H18Y 2687   0.956   3.473   8.719  0.1230  2.5090 -2.1231
   20SAPC  H18Z 2688   1.087   3.445   8.610 -0.1219  2.9324 -0.8708
   21SAPC     N 2689   2.189   2.370  10.686 -0.1699 -0.6298  0.1115
   21SAPC   C12 2690   2.283   2.310  10.788  0.0656 -0.3254  0.4651
   21SAPC  H12A 2691   2.224   2.237  10.841 -2.5245  1.5558  0.3254
   21SAPC  H12B 2692   2.301   2.391  10.856 -1.2885 -0.0493  0.5165
   21SAPC   C13 2693   2.084   2.433  10.770 -0.6117  0.0934 -0.2910
   21SAPC  H13A 2694   2.132   2.459  10.864  2.8741  0.4233 -1.9716
   21SAPC  H13B 2695   2.056   2.525  10.721 -0.1656  0.8645  0.8561
   21SAPC  H13C 2696   1.996   2.375  10.793  0.2678 -1.1850 -0.0406
   21SAPC   C14 2697   2.246   2.475  10.596  0.2256  0.1601 -0.1978
   21SAPC  H14A 2698   2.333   2.445  10.539  0.4476 -0.5905  0.5191
   21SAPC  H14B 2699   2.166   2.500  10.528 -2.8380 -1.8873  2.3811
   21SAPC  H14C 2700   2.268   2.564  10.654  1.1514  0.6565 -1.2730
   21SAPC   C15 2701   2.119   2.268  10.606 -0.9561 -0.4789  0.1214
   21SAPC  H15A 2702   2.080   2.307  10.513  0.7659 -0.3809 -0.5825
   21SAPC  H15B 2703   2.196   2.201  10.573  0.8655  0.9658  1.2666
   21SAPC  H15C 2704   2.042   2.207  10.651 -1.1394 -1.3255 -1.2589
   21SAPC   C11 2705   2.429   2.256  10.746 -0.7528 -0.7486 -0.3676
   21SAPC  H11A 2706   2.427   2.161  10.689  1.0809 -1.0263 -0.0106
   21SAPC  H11B 2707   2.474   2.232  10.844 -0.6312 -1.3612 -0.5714
   21SAPC     P 2708   2.584   2.475  10.726  0.2204 -0.0728 -0.3513
   21SAPC   O13 2709   2.481   2.571  10.768 -0.2859  0.2812  0.3629
   21SAPC   O14 2710   2.687   2.428  10.821  0.2881  0.8089 -0.6162
   21SAPC   O12 2711   2.513   2.343  10.669 -0.1152 -0.2258  0.0937
   21SAPC   O11 2712   2.664   2.524  10.601 -0.7802  0.7252  0.3505
   21SAPC    C1 2713   2.775   2.448  10.544 -0.6033 -0.4095  0.5931
   21SAPC    HA 2714   2.841   2.397  10.617  0.0381 -0.6846 -0.1654
   21SAPC    HB 2715   2.738   2.381  10.463  0.7081 -0.2436 -0.1594
   21SAPC    C2 2716   2.857   2.543  10.457 -0.7462  0.1485  0.1765
   21SAPC    HS 2717   2.903   2.609  10.534 -2.7018 -1.5762  2.9804
   21SAPC   O21 2718   2.763   2.612  10.362  0.1351 -0.2023  0.0355
   21SAPC   C21 2719   2.834   2.699  10.285 -0.0843 -0.4682 -0.0677
   21SAPC   O22 2720   2.951   2.729  10.312  0.9565  0.5233 -0.3493
   21SAPC   C22 2721   2.750   2.745  10.162  0.2444 -0.1184  0.0250
   21SAPC   H2R 2722   2.747   2.662  10.087 -0.3913 -0.0153 -0.0684
   21SAPC   H2S 2723   2.649   2.768  10.201  0.0158 -1.1813  0.0880
   21SAPC    C3 2724   2.975   2.457  10.391  0.3407 -0.2174  0.0887
   21SAPC    HX 2725   3.048   2.429  10.469  1.4255 -1.3309 -1.2635
   21SAPC    HY 2726   3.045   2.509  10.321  1.7930 -1.0289  0.9104
   21SAPC   O31 2727   2.922   2.336  10.336 -0.6456  0.8049 -0.7813
   21SAPC   C31 2728   2.931   2.322  10.204 -0.1677  0.2373 -0.3343
   21SAPC   O32 2729   2.964   2.410  10.130 -0.6403 -0.0329 -0.6431
   21SAPC   C32 2730   2.882   2.182  10.171 -0.2186  1.0695 -0.5347
   21SAPC   H2X 2731   2.776   2.178  10.205 -1.0234 -0.6263 -2.9550
   21SAPC   H2Y 2732   2.949   2.117  10.230  0.6436  0.7206 -1.8404
   21SAPC   C23 2733   2.816   2.860  10.084  0.5225 -0.2964 -0.2065
   21SAPC   H3R 2734   2.910   2.823  10.038  1.1030  1.8658 -0.9177
   21SAPC   H3S 2735   2.848   2.937  10.158 -1.3710  0.9584 -0.6252
   21SAPC   C24 2736   2.725   2.936   9.976  0.2463  0.7614  0.0125
   21SAPC   H4R 2737   2.794   3.009   9.929 -1.0736  1.2643 -1.1845
   21SAPC   H4S 2738   2.636   2.990  10.013 -2.4197 -2.3536 -1.2930
   21SAPC   C25 2739   2.681   2.831   9.876 -0.1943 -0.0557 -0.0040
   21SAPC   H5R 2740   2.617   2.761   9.932  1.7046 -2.0417 -0.1836
   21SAPC   C26 2741   2.708   2.814   9.744 -0.3386 -0.1969  0.0397
   21SAPC   H6R 2742   2.670   2.733   9.681  1.0593  0.8337 -2.2395
   21SAPC   C27 2743   2.806   2.906   9.665  0.8600 -0.1286  0.6142
   21SAPC   H7R 2744   2.839   2.849   9.575  1.7213  0.3848  0.5955
   21SAPC   H7S 2745   2.901   2.926   9.719  1.1806 -0.5286  0.2133
   21SAPC   C28 2746   2.736   3.034   9.626  0.0358 -0.4362 -1.0318
   21SAPC   H8R 2747   2.731   3.104   9.711  1.7720 -0.6371 -0.7409
   21SAPC   C29 2748   2.714   3.085   9.499  0.0210  0.0736 -0.1353
   21SAPC   H9R 2749   2.657   3.178   9.483 -1.1403 -0.8399 -1.5196
   21SAPC  C210 2750   2.737   3.011   9.368 -0.3311 -0.0911  0.2396
   21SAPC  H10R 2751   2.667   3.048   9.289 -0.2181 -0.8182 -0.2102
   21SAPC  H10S 2752   2.714   2.904   9.384 -1.2404 -0.0272 -0.5323
   21SAPC  C211 2753   2.870   3.027   9.311  0.1999 -0.5007  0.1498
   21SAPC  H11R 2754   2.930   3.111   9.348 -0.2517 -0.1371  0.0713
   21SAPC  C212 2755   2.932   2.952   9.227  0.2362 -0.1106  0.7686
   21SAPC  H12R 2756   3.030   2.989   9.193  0.4642 -0.4735  1.0256
   21SAPC  C213 2757   2.879   2.829   9.163 -0.5102  0.5553 -0.1634
   21SAPC  H13R 2758   2.850   2.757   9.243  0.3817 -0.1767 -0.4847
   21SAPC  H13S 2759   2.963   2.770   9.120  0.0289  1.0810  0.1523
   21SAPC  C214 2760   2.773   2.854   9.056  0.6611 -0.3537 -0.2714
   21SAPC  H14R 2761   2.713   2.941   9.084 -0.2288 -1.3795  1.1337
   21SAPC  C215 2762   2.762   2.794   8.938  0.9739  0.0715  0.2062
   21SAPC  H15R 2763   2.683   2.833   8.872  1.8112 -1.7017 -1.9306
   21SAPC  C216 2764   2.847   2.680   8.880 -0.2900 -0.6320  0.2705
   21SAPC  H16R 2765   2.912   2.630   8.955  0.3947 -2.0483 -1.2213
   21SAPC  H16S 2766   2.906   2.715   8.793 -0.6713  1.7347  0.8884
   21SAPC  C217 2767   2.751   2.578   8.817  0.2004  0.2054 -0.3408
   21SAPC  H17R 2768   2.671   2.623   8.755 -0.1132 -1.2416 -1.0219
   21SAPC  H17S 2769   2.692   2.530   8.899 -0.8803 -1.3342 -1.9588
   21SAPC  C218 2770   2.826   2.466   8.740 -0.4292  0.0477  0.0340
   21SAPC  H18R 2771   2.765   2.373   8.740  0.2843 -0.4318  0.7379
   21SAPC  H18S 2772   2.924   2.463   8.792  0.9185  2.3319 -2.1705
   21SAPC  C219 2773   2.868   2.507   8.601  0.4895  0.9695  0.5840
   21SAPC  H19R 2774   2.954   2.437   8.592  1.0535  1.3789  2.3151
   21SAPC  H19S 2775   2.918   2.607   8.599 -1.6085  2.0737  0.2151
   21SAPC  C220 2776   2.760   2.517   8.495 -0.3328  0.0989  0.5674
   21SAPC  H20R 2777   2.746   2.424   8.436  0.2795 -0.3258  1.0733
   21SAPC  H20S 2778   2.780   2.603   8.429 -1.4691  1.8719  2.4136
   21SAPC  H20T 2779   2.663   2.544   8.543 -0.9408  1.5441 -1.3494
   21SAPC   C33 2780   2.894   2.143  10.022  0.0286 -0.0305 -0.2798
   21SAPC   H3X 2781   2.998   2.149   9.984 -0.9084 -1.3058 -3.3804
   21SAPC   H3Y 2782   2.840   2.216   9.958  2.2579  1.0622 -1.0047
   21SAPC   C34 2783   2.853   2.003   9.998  1.0623  0.0329 -0.7953
   21SAPC   H4X 2784   2.743   1.988  10.002  0.9714  0.7935  1.7304
   21SAPC   H4Y 2785   2.876   1.939  10.086 -1.4217  0.6385  0.4065
   21SAPC   C35 2786   2.906   1.936   9.871  0.6772  0.2859  0.8122
   21SAPC   H5X 2787   2.908   1.827   9.892  0.8212 -0.1409 -1.2170
   21SAPC   H5Y 2788   3.014   1.956   9.857  1.0548 -1.1368  1.4658
   21SAPC   C36 2789   2.832   1.972   9.737  0.6911  0.2056  0.3457
   21SAPC   H6X 2790   2.839   2.083   9.732  1.3037  0.1197 -2.2582
   21SAPC   H6Y 2791   2.724   1.947   9.748  0.6202  0.4298  0.1603
   21SAPC   C37 2792   2.903   1.905   9.619 -0.0449  0.2810 -0.1451
   21SAPC   H7X 2793   3.012   1.892   9.636  0.3922  1.5441 -1.7855
   21SAPC   H7Y 2794   2.891   1.985   9.544  1.4054  1.1256  0.4938
   21SAPC   C38 2795   2.841   1.775   9.579  0.4700 -0.1012  0.4352
   21SAPC   H8X 2796   2.732   1.792   9.561  0.4542  1.4933  1.8276
   21SAPC   H8Y 2797   2.851   1.708   9.667 -0.7943 -0.1014  0.6069
   21SAPC   C39 2798   2.900   1.721   9.453  0.0537 -0.7653  0.7008
   21SAPC   H9X 2799   2.873   1.614   9.444 -1.4455 -0.6231  2.9155
   21SAPC   H9Y 2800   3.011   1.719   9.459  0.1345 -0.7039 -0.4209
   21SAPC  C310 2801   2.853   1.794   9.322 -0.2514  0.2631  0.2138
   21SAPC  H10X 2802   2.894   1.897   9.328 -0.1493  0.2149  0.3606
   21SAPC  H10Y 2803   2.743   1.800   9.314 -0.2217 -0.3918 -1.0293
   21SAPC  C311 2804   2.918   1.734   9.200 -0.4648  0.4236 -0.0707
   21SAPC  H11X 2805   2.878   1.631   9.192 -1.7013  0.6632  2.1569
   21SAPC  H11Y 2806   3.028   1.733   9.219 -0.3476  1.6552 -0.6185
   21SAPC  C312 2807   2.910   1.808   9.069  0.2471  0.1624 -0.4998
   21SAPC  H12X 2808   2.977   1.895   9.086 -0.7562  0.4050  2.8004
   21SAPC  H12Y 2809   2.804   1.838   9.062  0.2502 -0.1685 -2.7453
   21SAPC  C313 2810   2.936   1.734   8.939 -0.6069 -0.9374  0.1142
   21SAPC  H13X 2811   3.035   1.682   8.943 -0.3484 -0.7240 -2.2785
   21SAPC  H13Y 2812   2.938   1.802   8.851  3.2894 -2.7774 -1.4714
   21SAPC  C314 2813   2.844   1.610   8.904  0.2795 -0.2200  0.1096
   21SAPC  H14X 2814   2.745   1.660   8.902 -0.3822 -1.5015 -0.2720
   21SAPC  H14Y 2815   2.851   1.540   8.990 -0.5966  2.7769  2.8343
   21SAPC  C315 2816   2.860   1.551   8.764  0.6943 -0.3177 -0.2213
   21SAPC  H15X 2817   2.843   1.630   8.687  2.2560 -0.5509 -0.8354
   21SAPC  H15Y 2818   2.767   1.494   8.741 -0.6992  1.9702 -0.6470
   21SAPC  C316 2819   2.995   1.480   8.732  0.1863 -0.2352 -0.2823
   21SAPC  H16X 2820   2.976   1.399   8.659  3.1516 -3.8499  2.5585
   21SAPC  H16Y 2821   3.031   1.414   8.814  0.7392  1.3097  0.7673
   21SAPC  C317 2822   3.106   1.575   8.685 -0.7476  0.0901  0.3228
   21SAPC  H17X 2823   3.202   1.539   8.728 -0.1342  0.5224 -0.6299
   21SAPC  H17Y 2824   3.080   1.677   8.723  0.4602  0.5053  0.0872
   21SAPC  C318 2825   3.115   1.591   8.533 -0.6247  0.2116 -0.5677
   21SAPC  H18X 2826   3.012   1.573   8.493 -1.4429  0.1479  1.4635
   21SAPC  H18Y 2827   3.185   1.521   8.484  1.1868  2.8480 -2.0362
   21SAPC  H18Z 2828   3.155   1.688   8.496  3.6998 -0.9880  0.4521
   22SAPC     N 2829   0.413   5.717  10.792  0.1893 -0.2945 -0.1091
   22SAPC   C12 2830   0.393   5.842  10.709 -0.6439 -0.1343 -0.1356
   22SAPC  H12A 2831   0.286   5.857  10.710 -0.3849  2.0782 -0.0731
   22SAPC  H12B 2832   0.427   5.816  10.610  1.1751  0.7704  0.1828
   22SAPC   C13 2833   0.557   5.694  10.822  0.1784 -0.2941  0.2854
   22SAPC  H13A 2834   0.607   5.666  10.731 -1.3805  1.1397 -1.0966
   22SAPC  H13B 2835   0.606   5.787  10.848  0.4420 -0.9236  2.1946
   22SAPC  H13C 2836   0.581   5.633  10.908  2.6047  2.7650  1.9973
   22SAPC   C14 2837   0.347   5.727  10.925  0.1645 -0.2752 -0.1893
   22SAPC  H14A 2838   0.406   5.781  10.997 -0.4146 -0.0549  0.1344
   22SAPC  H14B 2839   0.257   5.787  10.913  0.3870  0.2791  0.8157
   22SAPC  H14C 2840   0.330   5.626  10.958 -1.0027 -0.1218 -0.2734
   22SAPC   C15 2841   0.354   5.598  10.716  0.0044 -0.3883  0.1912
   22SAPC  H15A 2842   0.256   5.613  10.674  0.0684 -2.1186 -0.6492
   22SAPC  H15B 2843   0.422   5.574  10.635  0.3701  2.7810 -0.5587
   22SAPC  H15C 2844   0.352   5.513  10.782 -0.2785 -0.0720  0.5935
   22SAPC   C11 2845   0.461   5.981  10.747 -0.7105 -0.3430  0.1872
   22SAPC  H11A 2846   0.421   6.014  10.845  1.0778 -0.5260  1.0345
   22SAPC  H11B 2847   0.433   6.057  10.672 -1.0920 -0.7255 -0.0591
   22SAPC     P 2848   0.720   5.994  10.667  0.5758  0.1225  0.2895
   22SAPC   O13 2849   0.763   6.134  10.670  0.5105  0.3107  0.5943
   22SAPC   O14 2850   0.816   5.885  10.686 -0.2887  0.1710 -0.3414
   22SAPC   O12 2851   0.604   5.976  10.776 -0.8476  0.6737  0.1674
   22SAPC   O11 2852   0.639   5.975  10.531 -0.5679  1.2031 -0.4764
   22SAPC    C1 2853   0.637   5.843  10.469  0.0141  0.6617  0.5412
   22SAPC    HA 2854   0.680   5.766  10.536  2.0255  0.5316 -0.8085
   22SAPC    HB 2855   0.531   5.811  10.454  0.0282  0.8783 -0.0510
   22SAPC    C2 2856   0.703   5.845  10.329 -0.5377 -0.6729 -0.3961
   22SAPC    HS 2857   0.811   5.867  10.345 -0.6848 -1.1800  1.4849
   22SAPC   O21 2858   0.636   5.947  10.262 -0.3617  0.2677 -0.4121
   22SAPC   C21 2859   0.708   6.046  10.210 -0.6984  0.0231 -0.3044
   22SAPC   O22 2860   0.821   6.075  10.242 -0.7868 -0.0767 -0.3136
   22SAPC   C22 2861   0.608   6.134  10.123 -0.2289  0.1230  0.1220
   22SAPC   H2R 2862   0.536   6.059  10.085 -1.5568  1.4803 -0.1319
   22SAPC   H2S 2863   0.551   6.198  10.193  1.4240 -0.0586  1.7082
   22SAPC    C3 2864   0.691   5.711  10.243  0.3398  0.0370 -0.5199
   22SAPC    HX 2865   0.583   5.686  10.233  0.0225  1.4451 -0.7828
   22SAPC    HY 2866   0.733   5.633  10.311 -0.9006 -0.3551 -0.1757
   22SAPC   O31 2867   0.761   5.724  10.111 -0.6448 -0.2581 -0.6429
   22SAPC   C31 2868   0.745   5.628  10.028  0.7356  0.0628  0.2558
   22SAPC   O32 2869   0.681   5.523  10.050 -0.5481 -0.2429 -0.3449
   22SAPC   C32 2870   0.810   5.668   9.892 -0.0749 -0.2739  0.1577
   22SAPC   H2X 2871   0.919   5.678   9.909  0.4106 -0.0784 -2.6350
   22SAPC   H2Y 2872   0.773   5.770   9.866  0.6698 -0.0542 -0.0782
   22SAPC   C23 2873   0.666   6.209   9.998  0.3321  0.0966 -0.5679
   22SAPC   H3R 2874   0.730   6.141   9.938  0.9618  1.5096 -1.5349
   22SAPC   H3S 2875   0.740   6.283  10.034  1.3809 -1.2119  0.0399
   22SAPC   C24 2876   0.559   6.276   9.906 -0.3936  0.0480 -0.0129
   22SAPC   H4R 2877   0.611   6.347   9.839 -0.4530  2.1359  2.0410
   22SAPC   H4S 2878   0.502   6.344   9.973 -0.8126 -0.6265  0.3263
   22SAPC   C25 2879   0.476   6.172   9.834 -0.2641  1.0929 -0.3501
   22SAPC   H5R 2880   0.380   6.151   9.881  0.4350 -1.0119  0.2185
   22SAPC   C26 2881   0.501   6.094   9.724 -0.1087 -0.2566  0.3202
   22SAPC   H6R 2882   0.434   6.010   9.704  1.5241 -1.8749  1.3645
   22SAPC   C27 2883   0.632   6.083   9.645  0.3456  1.0323 -0.0700
   22SAPC   H7R 2884   0.714   6.135   9.697  0.8424  0.8606 -0.6641
   22SAPC   H7S 2885   0.620   6.142   9.551  0.4984  1.2337  0.0383
   22SAPC   C28 2886   0.674   5.946   9.604 -0.0030 -0.8248 -0.1369
   22SAPC   H8R 2887   0.688   5.876   9.688  0.5056  0.7709  1.1592
   22SAPC   C29 2888   0.671   5.897   9.479 -0.0076 -0.1856  0.4953
   22SAPC   H9R 2889   0.706   5.793   9.471 -0.1679 -0.2554  0.7051
   22SAPC  C210 2890   0.649   5.962   9.348 -0.3528 -0.6181  0.2626
   22SAPC  H10R 2891   0.560   6.029   9.358  0.2697  0.2751 -0.0498
   22SAPC  H10S 2892   0.623   5.904   9.257 -0.6224  3.0814 -2.2561
   22SAPC  C211 2893   0.756   6.062   9.305 -0.3135  0.1492 -0.3930
   22SAPC  H11R 2894   0.802   6.116   9.389  1.0116 -2.3820  0.6215
   22SAPC  C212 2895   0.805   6.084   9.185 -0.3545 -0.1903  0.6371
   22SAPC  H12R 2896   0.889   6.154   9.173  1.3259 -2.1635  0.3633
   22SAPC  C213 2897   0.762   6.012   9.056  0.0774 -0.3688 -0.3691
   22SAPC  H13R 2898   0.731   5.906   9.068 -1.1426 -0.0201 -0.2593
   22SAPC  H13S 2899   0.854   6.007   8.993  1.1698  3.5520  0.6511
   22SAPC  C214 2900   0.655   6.095   8.983 -0.0708 -0.5940  0.4925
   22SAPC  H14R 2901   0.584   6.146   9.050  0.7960 -1.0836  1.8100
   22SAPC  C215 2902   0.648   6.115   8.849  0.3019  0.1518 -0.0196
   22SAPC  H15R 2903   0.574   6.185   8.807  1.4272  1.0980 -0.4865
   22SAPC  C216 2904   0.745   6.066   8.750  0.0989 -0.1248  0.4567
   22SAPC  H16R 2905   0.765   5.963   8.785 -1.6938 -0.2771  1.1869
   22SAPC  H16S 2906   0.838   6.127   8.750  0.5857 -0.7939  2.1815
   22SAPC  C217 2907   0.687   6.051   8.608 -0.1336  0.5477 -0.5791
   22SAPC  H17R 2908   0.591   5.995   8.605 -0.0166  0.2047  1.1593
   22SAPC  H17S 2909   0.760   5.992   8.548  0.7548  0.9686  0.0692
   22SAPC  C218 2910   0.664   6.186   8.545  0.0552  0.1246  0.2388
   22SAPC  H18R 2911   0.586   6.238   8.604  0.9776 -0.2575  1.8696
   22SAPC  H18S 2912   0.624   6.164   8.444  1.2017  0.0171 -0.2097
   22SAPC  C219 2913   0.786   6.285   8.527 -0.3382 -0.1570 -0.0127
   22SAPC  H19R 2914   0.861   6.227   8.470  0.0822  0.3911 -0.0296
   22SAPC  H19S 2915   0.831   6.303   8.627  0.1614 -0.7348 -0.1283
   22SAPC  C220 2916   0.749   6.407   8.455  0.0542 -0.0712 -0.4794
   22SAPC  H20R 2917   0.649   6.438   8.491 -0.9350  0.3405 -3.3506
   22SAPC  H20S 2918   0.727   6.404   8.346 -2.1531  2.8040 -0.2361
   22SAPC  H20T 2919   0.830   6.483   8.466  1.1901 -1.0970 -1.4009
   22SAPC   C33 2920   0.790   5.566   9.784  0.2163 -0.5398  0.3516
   22SAPC   H3X 2921   0.692   5.588   9.736  1.3626  2.8006 -0.7555
   22SAPC   H3Y 2922   0.820   5.465   9.817  0.4079 -0.1712  1.3309
   22SAPC   C34 2923   0.880   5.602   9.661  0.2466 -0.3886 -0.0844
   22SAPC   H4X 2924   0.983   5.572   9.690  1.1876  0.5141 -2.2971
   22SAPC   H4Y 2925   0.889   5.713   9.655 -0.3092 -0.1814  1.9915
   22SAPC   C35 2926   0.815   5.546   9.532  0.6546  0.4844  0.6399
   22SAPC   H5X 2927   0.710   5.580   9.524 -0.8554 -3.8991 -1.4330
   22SAPC   H5Y 2928   0.802   5.437   9.548 -0.8564  0.6394  0.6284
   22SAPC   C36 2929   0.898   5.562   9.407  0.3868 -0.0102  0.1434
   22SAPC   H6X 2930   0.927   5.661   9.366 -1.5596 -0.0113 -1.3957
   22SAPC   H6Y 2931   0.838   5.531   9.319 -1.0202 -0.4543  1.2322
   22SAPC   C37 2932   1.021   5.475   9.427  0.0165  0.3044  0.1441
   22SAPC   H7X 2933   0.989   5.369   9.439 -2.4405  0.7970 -1.3761
   22SAPC   H7Y 2934   1.080   5.495   9.519 -2.1383 -0.6933  1.8117
   22SAPC   C38 2935   1.115   5.480   9.307  0.5186 -0.3594 -0.0797
   22SAPC   H8X 2936   1.137   5.589   9.300 -1.4430  0.0742  0.0264
   22SAPC   H8Y 2937   1.066   5.449   9.212  0.7872  0.4666 -0.5016
   22SAPC   C39 2938   1.235   5.394   9.320 -0.2073 -0.2760  0.0390
   22SAPC   H9X 2939   1.197   5.291   9.341  1.4205 -1.0679 -0.6594
   22SAPC   H9Y 2940   1.305   5.413   9.405  0.8214 -1.8191 -0.4188
   22SAPC  C310 2941   1.333   5.380   9.203  0.5441 -0.5316  0.1924
   22SAPC  H10X 2942   1.362   5.485   9.182  1.1287 -1.1348 -2.4342
   22SAPC  H10Y 2943   1.267   5.348   9.119 -0.6496  3.7208 -0.7213
   22SAPC  C311 2944   1.458   5.294   9.237  0.2548  0.1313  0.4241
   22SAPC  H11X 2945   1.424   5.203   9.291 -0.1479  0.4561  0.7265
   22SAPC  H11Y 2946   1.528   5.354   9.298 -0.3008  0.8164  0.4045
   22SAPC  C312 2947   1.516   5.253   9.099 -0.3261  0.5967  0.6815
   22SAPC  H12X 2948   1.620   5.217   9.104 -0.2175  0.7722 -0.1135
   22SAPC  H12Y 2949   1.533   5.347   9.043  0.5145 -0.6171 -1.2084
   22SAPC  C313 2950   1.452   5.141   9.024  0.3539  0.2729  0.3122
   22SAPC  H13X 2951   1.352   5.172   8.987 -1.3835 -2.2371  2.5720
   22SAPC  H13Y 2952   1.443   5.041   9.072 -0.1311  0.9305  1.6230
   22SAPC  C314 2953   1.519   5.125   8.890  0.3438 -0.3004  0.0902
   22SAPC  H14X 2954   1.630   5.128   8.901  0.8927  0.9513 -4.0592
   22SAPC  H14Y 2955   1.503   5.214   8.826  1.4338 -0.8707 -1.0251
   22SAPC  C315 2956   1.474   5.009   8.810  0.1361  0.3712  0.4182
   22SAPC  H15X 2957   1.363   5.010   8.806  0.1386  2.1030 -0.1250
   22SAPC  H15Y 2958   1.509   4.917   8.860 -1.1348  0.0609  0.7750
   22SAPC  C316 2959   1.533   5.012   8.670 -0.1063  0.3274 -0.0250
   22SAPC  H16X 2960   1.638   5.044   8.682  0.4252 -1.2222 -0.3459
   22SAPC  H16Y 2961   1.482   5.084   8.602  0.8112  0.6712 -0.3648
   22SAPC  C317 2962   1.536   4.877   8.602 -0.6948 -0.1652  0.0040
   22SAPC  H17X 2963   1.437   4.826   8.605 -0.6281 -0.5004 -2.0538
   22SAPC  H17Y 2964   1.603   4.807   8.658 -0.2244 -1.1129 -1.6621
   22SAPC  C318 2965   1.593   4.884   8.460 -0.0501 -0.1678  0.8602
   22SAPC  H18X 2966   1.697   4.923   8.457  0.4395 -1.5025 -1.0161
   22SAPC  H18Y 2967   1.523   4.945   8.399 -1.5006  0.9194  3.4319
   22SAPC  H18Z 2968   1.609   4.780   8.427 -0.5835 -0.4072  1.3328
   23SAPC     N 2969   3.182   0.679  10.969 -0.0997 -0.2238 -0.1243
   23SAPC   C12 2970   3.238   0.701  10.830  0.2207 -0.2487  0.8944
   23SAPC  H12A 2971   3.329   0.759  10.834 -0.7016  1.3729 -0.6069
   23SAPC  H12B 2972   3.175   0.768  10.775  1.4882  0.1859 -0.0836
   23SAPC   C13 2973   3.157   0.805  11.029  0.8787 -0.6684 -0.1868
   23SAPC  H13A 2974   3.117   0.792  11.128 -2.2554  1.3889 -1.0594
   23SAPC  H13B 2975   3.239   0.876  11.033  0.5722 -0.3557  0.8429
   23SAPC  H13C 2976   3.077   0.849  10.972 -1.1568 -1.7165  1.6908
   23SAPC   C14 2977   3.058   0.602  10.956  0.2106 -0.0983  0.6163
   23SAPC  H14A 2978   3.000   0.604  11.047 -0.7042 -2.0464  0.1173
   23SAPC  H14B 2979   2.995   0.632  10.874 -0.7551  1.3258  1.8152
   23SAPC  H14C 2980   3.069   0.499  10.927 -0.9818  0.1714 -0.9005
   23SAPC   C15 2981   3.282   0.602  11.051 -0.1492 -0.4741 -0.2559
   23SAPC  H15A 2982   3.370   0.664  11.063 -0.4102  0.9367 -4.1487
   23SAPC  H15B 2983   3.239   0.584  11.148 -0.4321  1.0710 -0.0646
   23SAPC  H15C 2984   3.313   0.512  11.000  0.6472 -0.0971 -0.4625
   23SAPC   C11 2985   3.271   0.576  10.735 -0.3724 -0.5684 -0.3992
   23SAPC  H11A 2986   3.291   0.611  10.632  1.5138 -1.5531 -0.4126
   23SAPC  H11B 2987   3.180   0.512  10.725 -1.0701  0.6333 -2.1144
   23SAPC     P 2988   3.527   0.534  10.757 -0.0576  0.3762  0.0605
   23SAPC   O13 2989   3.569   0.676  10.797 -0.0090  0.5327  0.5141
   23SAPC   O14 2990   3.609   0.420  10.805  0.3280 -0.0853 -0.3949
   23SAPC   O12 2991   3.382   0.509  10.806 -0.5448 -0.2946 -0.0964
   23SAPC   O11 2992   3.507   0.522  10.605  0.3206 -0.1220 -0.3469
   23SAPC    C1 2993   3.621   0.495  10.520  0.4158  0.0386 -0.4037
   23SAPC    HA 2994   3.701   0.572  10.528  1.1369 -0.9125  2.9727
   23SAPC    HB 2995   3.673   0.401  10.550 -1.6996 -1.3674 -0.9324
   23SAPC    C2 2996   3.586   0.479  10.369  0.4165 -0.3185  0.6739
   23SAPC    HS 2997   3.676   0.499  10.308  0.1262 -0.5836  0.1488
   23SAPC   O21 2998   3.487   0.580  10.330  0.4941 -0.0946  0.2505
   23SAPC   C21 2999   3.527   0.707  10.330  0.6076  0.1987 -0.3692
   23SAPC   O22 3000   3.639   0.751  10.349 -0.1443 -0.0466 -0.2796
   23SAPC   C22 3001   3.421   0.797  10.266  0.2332  0.7598 -0.6697
   23SAPC   H2R 3002   3.326   0.739  10.257  0.0016  0.6788  1.5794
   23SAPC   H2S 3003   3.394   0.875  10.341 -1.2407 -0.4139  0.0822
   23SAPC    C3 3004   3.545   0.334  10.359  0.5757  0.2206  0.0333
   23SAPC    HX 3005   3.457   0.317  10.425  1.7870  0.1600  1.6835
   23SAPC    HY 3006   3.627   0.277  10.406 -1.9930 -3.5573  0.3145
   23SAPC   O31 3007   3.530   0.295  10.220  0.4859 -0.1262  0.3871
   23SAPC   C31 3008   3.415   0.238  10.182 -0.2851  0.4087 -0.0659
   23SAPC   O32 3009   3.315   0.230  10.250  0.3284 -0.1251  0.2030
   23SAPC   C32 3010   3.418   0.189  10.035  0.4506 -0.2981 -0.2351
   23SAPC   H2X 3011   3.311   0.177  10.009  0.7192 -0.4586 -1.3205
   23SAPC   H2Y 3012   3.458   0.085  10.038 -2.9012 -1.7102  1.1130
   23SAPC   C23 3013   3.462   0.870  10.144 -1.0259  0.4165  0.4278
   23SAPC   H3R 3014   3.552   0.925  10.180 -0.7394  0.1615  0.1071
   23SAPC   H3S 3015   3.380   0.941  10.120  0.2780  1.7190 -0.3867
   23SAPC   C24 3016   3.487   0.776  10.021 -0.5169  0.5055  0.3742
   23SAPC   H4R 3017   3.574   0.717  10.057 -0.0579  0.7989 -0.2381
   23SAPC   H4S 3018   3.531   0.833   9.937  0.3403 -0.2804  0.2764
   23SAPC   C25 3019   3.382   0.675   9.968 -0.3073 -0.6448 -0.7727
   23SAPC   H5R 3020   3.338   0.603  10.039  0.5207 -0.6892 -0.2939
   23SAPC   C26 3021   3.322   0.679   9.852  0.4116 -0.2648  0.5642
   23SAPC   H6R 3022   3.246   0.602   9.829  0.5764  0.2277 -1.8362
   23SAPC   C27 3023   3.351   0.779   9.747 -0.4094  0.0025 -0.2030
   23SAPC   H7R 3024   3.457   0.771   9.716 -0.1258  2.2655  0.0661
   23SAPC   H7S 3025   3.324   0.877   9.791 -0.7754 -0.5495  0.8610
   23SAPC   C28 3026   3.253   0.741   9.633 -0.0855 -0.6544  0.1848
   23SAPC   H8R 3027   3.147   0.741   9.665  0.5548 -1.1548  2.4528
   23SAPC   C29 3028   3.300   0.734   9.504 -0.3838  0.7390 -0.1474
   23SAPC   H9R 3029   3.224   0.692   9.436 -1.1611  0.5381  0.8073
   23SAPC  C210 3030   3.439   0.737   9.450  0.4565 -0.8878  0.1726
   23SAPC  H10R 3031   3.522   0.723   9.521  1.9589 -0.2240 -1.3812
   23SAPC  H10S 3032   3.453   0.839   9.410  1.1684 -0.9228  0.3209
   23SAPC  C211 3033   3.461   0.629   9.344 -0.1868 -0.1708 -0.2002
   23SAPC  H11R 3034   3.515   0.541   9.381 -3.0612 -1.1575  2.1189
   23SAPC  C212 3035   3.444   0.644   9.208  0.3555  0.2209 -0.9583
   23SAPC  H12R 3036   3.473   0.557   9.146  1.0952 -0.7011  0.6280
   23SAPC  C213 3037   3.395   0.767   9.137  0.0706  0.1103  0.0390
   23SAPC  H13R 3038   3.387   0.856   9.203  1.5779 -1.2019  2.1413
   23SAPC  H13S 3039   3.297   0.745   9.090  0.6099 -0.3913 -0.8940
   23SAPC  C214 3040   3.498   0.802   9.031 -0.6028 -0.5488 -1.0921
   23SAPC  H14R 3041   3.584   0.860   9.067 -1.5781  0.7680 -0.8141
   23SAPC  C215 3042   3.506   0.742   8.911 -0.8113 -0.6281 -0.2321
   23SAPC  H15R 3043   3.604   0.753   8.863 -0.8808 -0.2415 -0.2863
   23SAPC  C216 3044   3.407   0.648   8.848  0.0513  0.8009  0.1165
   23SAPC  H16R 3045   3.366   0.576   8.921  2.6066 -1.6068 -0.6535
   23SAPC  H16S 3046   3.456   0.587   8.770 -0.3774 -0.5279  0.8671
   23SAPC  C217 3047   3.284   0.723   8.782  0.0924 -0.1642 -0.0323
   23SAPC  H17R 3048   3.307   0.829   8.760  1.3384 -0.3038  0.5494
   23SAPC  H17S 3049   3.208   0.723   8.863  0.7992 -0.3791  0.6380
   23SAPC  C218 3050   3.222   0.651   8.664 -0.4862  0.3961  0.2557
   23SAPC  H18R 3051   3.189   0.545   8.670  1.1927 -0.3610 -2.2163
   23SAPC  H18S 3052   3.304   0.651   8.589 -0.0010  2.0005  0.7565
   23SAPC  C219 3053   3.111   0.735   8.597 -1.3687  0.0809  0.3411
   23SAPC  H19R 3054   3.143   0.838   8.571  0.0873 -0.7118 -1.2525
   23SAPC  H19S 3055   3.026   0.756   8.665 -0.0644  0.6675  1.8625
   23SAPC  C220 3056   3.060   0.667   8.473 -0.3721 -0.0185  0.4238
   23SAPC  H20R 3057   2.984   0.734   8.427  0.2976 -0.1059 -0.8656
   23SAPC  H20S 3058   3.022   0.564   8.487 -0.6671 -0.2434 -1.7094
   23SAPC  H20T 3059   3.140   0.662   8.396 -1.6102  0.7300 -0.9670
   23SAPC   C33 3060   3.478   0.283   9.927 -0.5995 -0.1735  0.3839
   23SAPC   H3X 3061   3.587   0.301   9.939 -0.6324  2.4229 -2.0113
   23SAPC   H3Y 3062   3.435   0.386   9.934 -0.7310 -0.2128  0.1600
   23SAPC   C34 3063   3.444   0.232   9.781 -0.0553 -0.4848 -0.4138
   23SAPC   H4X 3064   3.478   0.314   9.713  3.0927  0.3579  1.9298
   23SAPC   H4Y 3065   3.334   0.227   9.763 -0.3997  1.4522  0.8546
   23SAPC   C35 3066   3.526   0.108   9.740 -0.1593  0.4820 -0.0022
   23SAPC   H5X 3067   3.503   0.030   9.816  0.6768  2.8339  2.8139
   23SAPC   H5Y 3068   3.634   0.129   9.757 -0.0766 -0.0469  0.1623
   23SAPC   C36 3069   3.490   0.048   9.600  0.1482 -0.3014 -0.2607
   23SAPC   H6X 3070   3.382   0.022   9.596  0.2768 -0.6722 -3.0473
   23SAPC   H6Y 3071   3.552  -0.044   9.598 -0.1207 -0.5225  0.8540
   23SAPC   C37 3072   3.527   0.123   9.468  0.4008 -0.3849 -0.0682
   23SAPC   H7X 3073   3.635   0.152   9.474  0.1923  0.8368 -1.5006
   23SAPC   H7Y 3074   3.472   0.216   9.443  0.2113 -0.6931 -0.8503
   23SAPC   C38 3075   3.528   0.040   9.349  0.6460  0.4492 -0.3150
   23SAPC   H8X 3076   3.429  -0.011   9.348  0.1230  1.3060  1.8295
   23SAPC   H8Y 3077   3.612  -0.032   9.354 -0.2926 -0.6342  0.5496
   23SAPC   C39 3078   3.533   0.113   9.218 -0.0844  0.2822 -0.1932
   23SAPC   H9X 3079   3.632   0.163   9.207  0.0575  1.0468  3.3271
   23SAPC   H9Y 3080   3.460   0.196   9.209  3.0556  3.4462  1.0652
   23SAPC  C310 3081   3.520   0.017   9.101  0.8933  0.1040  0.6037
   23SAPC  H10X 3082   3.526   0.085   9.013 -1.8908  0.6066  0.7207
   23SAPC  H10Y 3083   3.417  -0.025   9.105 -0.0185  2.2160  0.3693
   23SAPC  C311 3084   3.618  -0.105   9.098  0.6965 -0.1205  0.7515
   23SAPC  H11X 3085   3.585  -0.177   9.176 -1.8582  0.5392  0.3733
   23SAPC  H11Y 3086   3.718  -0.068   9.128 -0.4933  2.0966  2.2136
   23SAPC  C312 3087   3.627  -0.192   8.968 -0.0784 -0.3249 -0.0635
   23SAPC  H12X 3088   3.699  -0.275   8.986  1.4827  0.5386 -1.9517
   23SAPC  H12Y 3089   3.661  -0.138   8.878 -1.2584  0.0334 -0.3107
   23SAPC  C313 3090   3.490  -0.260   8.950 -0.3607 -0.0963  0.0511
   23SAPC  H13X 3091   3.422  -0.172   8.949 -1.1959 -0.6653  2.2689
   23SAPC  H13Y 3092   3.475  -0.317   9.044  0.7879  0.3360  0.5220
   23SAPC  C314 3093   3.472  -0.343   8.824  0.4283 -0.0183 -0.4175
   23SAPC  H14X 3094   3.512  -0.279   8.743 -0.4202  0.4272 -0.4982
   23SAPC  H14Y 3095   3.364  -0.368   8.814  0.7551 -1.1343 -1.4317
   23SAPC  C315 3096   3.549  -0.475   8.802 -0.5930  0.8967 -0.2455
   23SAPC  H15X 3097   3.542  -0.545   8.888  2.2251 -1.4704 -1.7455
   23SAPC  H15Y 3098   3.646  -0.446   8.755 -1.1026  0.7358 -1.4563
   23SAPC  C316 3099   3.474  -0.553   8.691  0.4721 -0.3321  0.0640
   23SAPC  H16X 3100   3.459  -0.489   8.602 -0.9139 -0.8644 -0.1051
   23SAPC  H16Y 3101   3.373  -0.574   8.732  0.1694  1.5159  0.3520
   23SAPC  C317 3102   3.538  -0.685   8.642 -0.6336 -0.6454  0.3336
   23SAPC  H17X 3103   3.459  -0.743   8.590 -0.6283 -1.0440  0.7610
   23SAPC  H17Y 3104   3.578  -0.749   8.724 -2.3046 -0.6731  1.1736
   23SAPC  C318 3105   3.661  -0.665   8.543  0.9973  0.9178  0.0337
   23SAPC  H18X 3106   3.622  -0.617   8.451  2.5859  1.6005 -0.3208
   23SAPC  H18Y 3107   3.689  -0.772   8.534  0.6235  0.8603 -0.4317
   23SAPC  H18Z 3108   3.744  -0.610   8.592  1.8721 -0.0296 -0.3509
   24SAPC     N 3109   6.584   0.568  10.978 -0.2644 -0.1312 -0.2722
   24SAPC   C12 3110   6.695   0.501  10.898  0.6379 -0.1694  0.1950
   24SAPC  H12A 3111   6.647   0.445  10.820 -1.1058  0.1175  1.0126
   24SAPC  H12B 3112   6.739   0.431  10.967 -2.2929 -2.5378 -0.1544
   24SAPC   C13 3113   6.644   0.642  11.093 -0.4696 -0.0393 -0.0992
   24SAPC  H13A 3114   6.717   0.712  11.055 -1.2329  0.9311  0.1902
   24SAPC  H13B 3115   6.574   0.698  11.153 -3.3891 -3.7947  0.3658
   24SAPC  H13C 3116   6.701   0.578  11.160  0.6218  1.9760  0.9878
   24SAPC   C14 3117   6.506   0.666  10.889 -0.6889 -0.1354 -0.3708
   24SAPC  H14A 3118   6.437   0.616  10.823 -0.4194  1.7429 -2.1936
   24SAPC  H14B 3119   6.454   0.735  10.953  1.1291  1.2268 -0.2600
   24SAPC  H14C 3120   6.585   0.713  10.832  0.4358 -1.0930  0.3432
   24SAPC   C15 3121   6.488   0.474  11.033  0.3950  0.3579 -0.1122
   24SAPC  H15A 3122   6.411   0.529  11.086 -0.3217  0.6306 -1.3935
   24SAPC  H15B 3123   6.442   0.413  10.956 -0.8031 -0.1834  0.9958
   24SAPC  H15C 3124   6.537   0.406  11.101  1.2136 -0.4967 -1.5054
   24SAPC   C11 3125   6.805   0.600  10.847 -0.0174  0.3342 -0.1451
   24SAPC  H11A 3126   6.882   0.542  10.791 -1.3542 -1.9434  0.2323
   24SAPC  H11B 3127   6.861   0.638  10.935  2.0547 -1.5976 -0.5339
   24SAPC     P 3128   6.840   0.840  10.755  0.2714 -0.3017  0.0305
   24SAPC   O13 3129   6.787   0.928  10.863 -0.4132 -0.2490 -0.0957
   24SAPC   O14 3130   6.984   0.819  10.739  0.5472  0.6181  0.3086
   24SAPC   O12 3131   6.762   0.699  10.757  0.4084  0.0411 -0.0648
   24SAPC   O11 3132   6.792   0.904  10.618 -0.7702  0.0128  0.1969
   24SAPC    C1 3133   6.695   0.839  10.539  0.0638 -0.2455 -0.2025
   24SAPC    HA 3134   6.610   0.793  10.594 -0.7697  0.0078 -1.2385
   24SAPC    HB 3135   6.655   0.921  10.476  2.0875 -0.9972 -2.6399
   24SAPC    C2 3136   6.758   0.718  10.449 -0.1051 -0.5182 -0.0033
   24SAPC    HS 3137   6.814   0.658  10.524 -1.5008 -0.3245  1.2478
   24SAPC   O21 3138   6.848   0.774  10.350 -0.3677 -0.0416 -0.6061
   24SAPC   C21 3139   6.939   0.688  10.303  0.2595 -0.6624  0.3027
   24SAPC   O22 3140   6.947   0.571  10.335 -0.0564  0.5322 -0.4983
   24SAPC   C22 3141   7.046   0.760  10.216 -0.3467 -0.0656  0.1644
   24SAPC   H2R 3142   7.127   0.795  10.285 -1.6982  2.7823  0.4393
   24SAPC   H2S 3143   7.084   0.683  10.145 -2.8035  0.8420 -2.3027
   24SAPC    C3 3144   6.654   0.639  10.375 -0.4720  0.2105  0.5375
   24SAPC    HX 3145   6.590   0.577  10.443 -0.8304 -1.5983 -1.3498
   24SAPC    HY 3146   6.701   0.567  10.305 -0.4901  1.0607 -0.3673
   24SAPC   O31 3147   6.574   0.740  10.307 -0.5693 -0.1345 -0.0887
   24SAPC   C31 3148   6.451   0.711  10.269  0.1226  0.4066  0.1263
   24SAPC   O32 3149   6.407   0.598  10.268  0.1057 -0.4738 -0.4244
   24SAPC   C32 3150   6.377   0.843  10.229 -0.4826  0.6022  0.1934
   24SAPC   H2X 3151   6.398   0.914  10.312  1.9779  2.8649 -2.1428
   24SAPC   H2Y 3152   6.270   0.816  10.219  0.2460 -1.8295 -2.1770
   24SAPC   C23 3153   7.002   0.878  10.138  0.0020 -0.1538  0.2419
   24SAPC   H3R 3154   7.090   0.914  10.082  0.2330 -0.0809  0.6529
   24SAPC   H3S 3155   6.971   0.958  10.208  0.1829  0.4762 -0.3793
   24SAPC   C24 3156   6.888   0.853  10.038  0.7713  0.0978 -0.2348
   24SAPC   H4R 3157   6.870   0.941   9.973  2.7352  0.3505 -0.5040
   24SAPC   H4S 3158   6.794   0.828  10.093 -2.0292  3.1534 -3.1868
   24SAPC   C25 3159   6.901   0.732   9.950 -0.3872 -0.3521 -0.8757
   24SAPC   H5R 3160   6.875   0.638  10.001 -0.9502  0.4852  0.4191
   24SAPC   C26 3161   6.934   0.735   9.822 -0.2215  0.4243 -0.1146
   24SAPC   H6R 3162   6.952   0.637   9.777  2.9980  0.4438  0.8691
   24SAPC   C27 3163   6.946   0.855   9.732 -0.2743 -0.1539 -0.4098
   24SAPC   H7R 3164   7.053   0.860   9.705  0.1889 -1.1865  1.1160
   24SAPC   H7S 3165   6.922   0.945   9.792 -0.5212  0.5535 -1.5461
   24SAPC   C28 3166   6.859   0.866   9.605 -0.7355  0.1954 -0.5415
   24SAPC   H8R 3167   6.788   0.950   9.598  0.0135  0.8739 -0.1554
   24SAPC   C29 3168   6.886   0.795   9.492  0.4580  0.0874 -0.0912
   24SAPC   H9R 3169   6.818   0.812   9.407 -0.4614 -3.0847 -0.1248
   24SAPC  C210 3170   6.990   0.687   9.484  0.5036 -0.0612 -0.3825
   24SAPC  H10R 3171   7.036   0.665   9.583  1.4553  1.1961 -0.5205
   24SAPC  H10S 3172   7.089   0.715   9.442  1.2127 -0.3552  1.0226
   24SAPC  C211 3173   6.937   0.556   9.426 -0.1671  0.3174  0.4366
   24SAPC  H11R 3174   6.860   0.501   9.482 -0.7855  0.4351 -0.2745
   24SAPC  C212 3175   6.987   0.504   9.311 -0.0086  0.1743  0.1140
   24SAPC  H12R 3176   6.936   0.417   9.269  1.3084 -0.5726  0.0199
   24SAPC  C213 3177   7.087   0.563   9.220  0.3140 -0.3080 -0.0034
   24SAPC  H13R 3178   7.183   0.578   9.273  0.3552 -0.2448 -0.0982
   24SAPC  H13S 3179   7.056   0.665   9.188 -2.9027 -0.7926  1.1084
   24SAPC  C214 3180   7.131   0.500   9.096 -0.3612 -0.1164  0.5414
   24SAPC  H14R 3181   7.124   0.391   9.081 -0.4573  0.1142 -1.3202
   24SAPC  C215 3182   7.188   0.564   8.992 -1.0610 -0.2640  0.2402
   24SAPC  H15R 3183   7.196   0.503   8.901 -0.5143  0.0426  0.0761
   24SAPC  C216 3184   7.218   0.708   8.965 -0.0779  0.3690  0.1720
   24SAPC  H16R 3185   7.326   0.723   8.944 -0.4074  1.3793 -0.8914
   24SAPC  H16S 3186   7.206   0.776   9.052  0.4386  1.9880 -0.9765
   24SAPC  C217 3187   7.113   0.758   8.867  0.6341 -0.4610  0.2336
   24SAPC  H17R 3188   7.120   0.869   8.870  1.1234 -0.4927  2.2642
   24SAPC  H17S 3189   7.017   0.731   8.916  1.2149 -1.3892  0.9026
   24SAPC  C218 3190   7.118   0.695   8.723 -0.2278 -0.4603  0.3855
   24SAPC  H18R 3191   7.098   0.588   8.746  1.1359 -0.7076  0.5477
   24SAPC  H18S 3192   7.219   0.705   8.676 -1.5602 -0.1178 -2.6158
   24SAPC  C219 3193   7.009   0.750   8.626  0.1716 -0.2028  0.6040
   24SAPC  H19R 3194   6.911   0.736   8.675  0.4230 -0.6520  0.9865
   24SAPC  H19S 3195   7.019   0.688   8.534  2.2123  0.2685  0.4502
   24SAPC  C220 3196   7.031   0.893   8.573 -0.1436  0.4982 -0.4745
   24SAPC  H20R 3197   7.050   0.968   8.652 -2.8392 -2.4828  3.3964
   24SAPC  H20S 3198   6.936   0.914   8.521 -0.6877 -2.0060 -0.5972
   24SAPC  H20T 3199   7.109   0.903   8.494 -0.9441  1.1027 -1.1951
   24SAPC   C33 3200   6.450   0.899  10.099 -0.3785 -0.1058 -0.6761
   24SAPC   H3X 3201   6.559   0.881  10.102 -0.4228 -0.5328 -1.4396
   24SAPC   H3Y 3202   6.435   1.009  10.110  0.4998 -0.2220  2.5644
   24SAPC   C34 3203   6.396   0.844   9.972  0.4095 -0.2720  0.4257
   24SAPC   H4X 3204   6.290   0.874   9.958  0.8270 -0.1966 -3.4065
   24SAPC   H4Y 3205   6.391   0.733   9.971 -1.2591 -0.2914 -3.3488
   24SAPC   C35 3206   6.469   0.877   9.839  0.8184 -0.7039 -0.1917
   24SAPC   H5X 3207   6.570   0.831   9.847  1.5080  0.9973  2.5319
   24SAPC   H5Y 3208   6.483   0.987   9.827  1.3849 -0.6663  0.6826
   24SAPC   C36 3209   6.384   0.820   9.724 -0.7573 -0.2770  0.9770
   24SAPC   H6X 3210   6.277   0.824   9.751 -1.3881  0.6093 -1.3662
   24SAPC   H6Y 3211   6.406   0.713   9.704 -1.6639 -0.1153 -1.0624
   24SAPC   C37 3212   6.401   0.902   9.597  0.2609  0.7745  0.4593
   24SAPC   H7X 3213   6.505   0.906   9.560 -0.6886  2.6929 -2.4074
   24SAPC   H7Y 3214   6.362   1.005   9.610  0.2830  0.5807  2.3077
   24SAPC   C38 3215   6.324   0.848   9.471  0.9580 -0.3552 -0.5230
   24SAPC   H8X 3216   6.240   0.917   9.448 -2.2556 -3.0444  2.1562
   24SAPC   H8Y 3217   6.284   0.746   9.486  1.8375 -0.6083  0.1971
   24SAPC   C39 3218   6.413   0.848   9.350 -0.0219 -0.2159 -0.6686
   24SAPC   H9X 3219   6.480   0.759   9.348 -0.7232 -0.7457 -0.8126
   24SAPC   H9Y 3220   6.468   0.944   9.340  0.8538 -0.2699  2.5810
   24SAPC  C310 3221   6.333   0.831   9.220  0.2233 -0.2602  0.4508
   24SAPC  H10X 3222   6.252   0.907   9.232  0.8487  0.4209  0.4569
   24SAPC  H10Y 3223   6.278   0.737   9.203 -0.4532  0.2296 -0.1159
   24SAPC  C311 3224   6.426   0.854   9.103 -0.1574  0.4789 -0.3537
   24SAPC  H11X 3225   6.493   0.771   9.074 -0.9884 -0.4898  0.4474
   24SAPC  H11Y 3226   6.503   0.929   9.133  0.3997 -0.8470  1.6890
   24SAPC  C312 3227   6.344   0.899   8.980 -0.2153  0.9248 -0.3608
   24SAPC  H12X 3228   6.289   0.990   9.014  0.8589  0.8419  1.7476
   24SAPC  H12Y 3229   6.271   0.819   8.955  1.6382  0.0148 -3.3827
   24SAPC  C313 3230   6.430   0.923   8.851 -0.0128 -0.2661 -0.0362
   24SAPC  H13X 3231   6.471   1.026   8.848  0.8503 -0.6125 -0.2955
   24SAPC  H13Y 3232   6.359   0.919   8.766  0.5255 -2.5183 -0.4365
   24SAPC  C314 3233   6.543   0.826   8.820  0.4166  0.4783 -0.0166
   24SAPC  H14X 3234   6.499   0.725   8.831  1.7293 -0.4249 -2.3213
   24SAPC  H14Y 3235   6.619   0.832   8.900 -0.6711  0.9535  1.0034
   24SAPC  C315 3236   6.597   0.843   8.681 -0.2892  0.2722  0.1777
   24SAPC  H15X 3237   6.694   0.789   8.675 -1.0627 -1.9483  4.1424
   24SAPC  H15Y 3238   6.625   0.949   8.661  2.2562 -0.3947 -0.2229
   24SAPC  C316 3239   6.504   0.781   8.571  0.2061 -0.3653  0.0421
   24SAPC  H16X 3240   6.417   0.848   8.555  1.1383  0.5365 -1.5164
   24SAPC  H16Y 3241   6.477   0.675   8.591  1.9360 -1.0519 -1.0206
   24SAPC  C317 3242   6.580   0.783   8.436 -0.2823 -0.3858 -0.4419
   24SAPC  H17X 3243   6.676   0.727   8.438  0.6789  1.1170 -1.8598
   24SAPC  H17Y 3244   6.618   0.885   8.412  1.8848 -1.1910 -0.6655
   24SAPC  C318 3245   6.492   0.743   8.313  0.1871  0.3205  0.3245
   24SAPC  H18X 3246   6.420   0.824   8.292  1.4368  1.1564 -1.0071
   24SAPC  H18Y 3247   6.435   0.651   8.339  0.9873 -0.6024 -1.0516
   24SAPC  H18Z 3248   6.544   0.718   8.217  0.1252 -0.6250  0.5221
   25SAPC     N 3249   2.324   5.149   6.023 -0.4080 -0.4891 -0.0160
   25SAPC   C12 3250   2.244   5.029   5.984  0.0293  0.1183 -0.1311
   25SAPC  H12A 3251   2.308   4.965   5.925 -0.9113 -0.1777 -0.8408
   25SAPC  H12B 3252   2.162   5.072   5.928 -0.9958 -0.9329  0.5224
   25SAPC   C13 3253   2.453   5.111   6.099 -0.9947  0.2597 -0.0985
   25SAPC  H13A 3254   2.511   5.200   6.119 -0.3478 -0.0640 -0.4935
   25SAPC  H13B 3255   2.422   5.076   6.196  1.6020  1.2203  1.1840
   25SAPC  H13C 3256   2.521   5.038   6.056  1.3714  0.8848  2.3159
   25SAPC   C14 3257   2.376   5.212   5.898  0.0489  0.0127  0.2411
   25SAPC  H14A 3258   2.439   5.146   5.840 -2.4702  0.4595 -3.3090
   25SAPC  H14B 3259   2.293   5.228   5.831  0.1233 -0.6851 -0.0253
   25SAPC  H14C 3260   2.433   5.303   5.906 -0.9134  0.5190  1.9901
   25SAPC   C15 3261   2.243   5.266   6.088 -0.2022  0.2588 -0.5613
   25SAPC  H15A 3262   2.308   5.335   6.138  1.1579 -0.0118 -1.8795
   25SAPC  H15B 3263   2.179   5.313   6.014  1.0514  0.0986 -1.7891
   25SAPC  H15C 3264   2.193   5.215   6.169  0.7667  1.3394  0.7451
   25SAPC   C11 3265   2.193   4.943   6.110 -0.6106 -0.4366  0.1254
   25SAPC  H11A 3266   2.286   4.908   6.161 -0.8299 -0.5418  0.4606
   25SAPC  H11B 3267   2.156   4.850   6.062  2.3623 -0.8917 -1.5344
   25SAPC     P 3268   1.943   4.975   6.179  0.4230  0.0703 -0.2071
   25SAPC   O13 3269   1.908   4.993   6.037 -0.1415  0.2029  0.1952
   25SAPC   O14 3270   1.919   4.841   6.238  0.4130 -0.4139 -0.0507
   25SAPC   O12 3271   2.097   5.018   6.188  0.2512 -0.1662 -0.5641
   25SAPC   O11 3272   1.871   5.078   6.267  0.1870  0.4034 -0.3822
   25SAPC    C1 3273   1.815   5.054   6.392  0.2930 -0.0934 -0.7029
   25SAPC    HA 3274   1.741   4.971   6.389 -1.0394  0.9787  0.7279
   25SAPC    HB 3275   1.895   5.018   6.460 -0.2182  3.0869  1.8709
   25SAPC    C2 3276   1.744   5.179   6.457 -0.1220  0.6763 -1.0260
   25SAPC    HS 3277   1.666   5.229   6.395 -1.5964 -0.8776 -0.4990
   25SAPC   O21 3278   1.856   5.268   6.482 -0.3546  0.1450 -0.3488
   25SAPC   C21 3279   1.827   5.400   6.495  0.1979 -0.8072  0.2812
   25SAPC   O22 3280   1.723   5.449   6.481  0.2522 -0.2270 -0.5981
   25SAPC   C22 3281   1.958   5.477   6.522 -0.3272  0.5657  0.4766
   25SAPC   H2R 3282   2.044   5.430   6.470 -1.2225  2.0409 -2.6107
   25SAPC   H2S 3283   1.949   5.571   6.462 -0.5846 -0.5708 -1.3507
   25SAPC    C3 3284   1.673   5.139   6.594  0.0716 -0.2093 -0.3466
   25SAPC    HX 3285   1.744   5.075   6.651  0.8219 -0.2053 -1.2612
   25SAPC    HY 3286   1.591   5.066   6.583 -0.4590  0.0255  1.6114
   25SAPC   O31 3287   1.633   5.258   6.677 -0.3345 -0.0593 -0.2985
   25SAPC   C31 3288   1.512   5.306   6.657 -0.1219  0.0599  0.0519
   25SAPC   O32 3289   1.444   5.270   6.564  0.3686 -0.2687 -0.1461
   25SAPC   C32 3290   1.491   5.439   6.729  0.7018  0.4564  0.3004
   25SAPC   H2X 3291   1.454   5.509   6.651  1.2580 -0.5081 -0.8661
   25SAPC   H2Y 3292   1.584   5.481   6.772 -0.0217 -0.7127  3.2420
   25SAPC   C23 3293   1.974   5.502   6.671 -0.1327 -0.4341 -0.5781
   25SAPC   H3R 3294   1.892   5.575   6.690  0.7700  0.9034 -1.5721
   25SAPC   H3S 3295   2.073   5.548   6.694 -1.0432  0.0300  2.9111
   25SAPC   C24 3296   1.960   5.383   6.771  0.3292  0.8391  0.0909
   25SAPC   H4R 3297   2.005   5.291   6.726 -1.2756 -0.6293  1.3549
   25SAPC   H4S 3298   1.854   5.354   6.783  0.4367  0.1553 -0.5389
   25SAPC   C25 3299   2.026   5.408   6.903 -0.1114  0.0753 -0.8553
   25SAPC   H5R 3300   2.136   5.409   6.900 -0.0434  0.1492  0.6051
   25SAPC   C26 3301   1.968   5.440   7.018  0.1978 -0.0976 -0.4674
   25SAPC   H6R 3302   2.031   5.469   7.103 -0.5317 -0.3367  0.1625
   25SAPC   C27 3303   1.823   5.449   7.041  0.5174 -0.1342 -0.9857
   25SAPC   H7R 3304   1.768   5.451   6.944  0.6724 -0.0654 -1.0738
   25SAPC   H7S 3305   1.803   5.547   7.089 -0.6492 -0.2066 -1.2991
   25SAPC   C28 3306   1.766   5.333   7.121 -0.5734  0.3539 -0.1682
   25SAPC   H8R 3307   1.775   5.232   7.078 -2.1897 -0.5269  1.4013
   25SAPC   C29 3308   1.722   5.336   7.249 -0.0194  0.2092 -0.1230
   25SAPC   H9R 3309   1.690   5.243   7.299  2.0965 -0.7000 -0.3753
   25SAPC  C210 3310   1.710   5.460   7.333 -0.1630  0.6015 -0.1311
   25SAPC  H10R 3311   1.606   5.463   7.372 -0.7017  0.7974 -1.5483
   25SAPC  H10S 3312   1.721   5.548   7.266  2.7653 -0.7058 -1.5506
   25SAPC  C211 3313   1.820   5.466   7.434 -0.3484 -0.4363  0.0078
   25SAPC  H11R 3314   1.915   5.511   7.401 -1.4049  3.0250  1.2540
   25SAPC  C212 3315   1.809   5.429   7.564  0.3860 -0.3299 -0.0896
   25SAPC  H12R 3316   1.892   5.457   7.631  1.8648 -1.3488 -1.4332
   25SAPC  C213 3317   1.686   5.374   7.634  0.1320 -0.2811 -0.1061
   25SAPC  H13R 3318   1.622   5.296   7.587 -1.9421  1.5440 -0.5361
   25SAPC  H13S 3319   1.614   5.458   7.651 -0.7645 -0.8761 -0.8365
   25SAPC  C214 3320   1.730   5.315   7.772 -0.7494 -0.7841 -0.2407
   25SAPC  H14R 3321   1.746   5.206   7.767  0.6703 -0.6170  0.3556
   25SAPC  C215 3322   1.754   5.380   7.881 -0.3610 -0.9843 -0.3450
   25SAPC  H15R 3323   1.784   5.322   7.970  0.4888 -0.6227 -0.3889
   25SAPC  C216 3324   1.726   5.528   7.891  0.0849 -0.2656 -0.8458
   25SAPC  H16R 3325   1.619   5.541   7.920  0.1093 -1.7436 -0.0037
   25SAPC  H16S 3326   1.745   5.580   7.795  0.6803 -0.2685 -0.7345
   25SAPC  C217 3327   1.809   5.602   8.002  0.0626  1.2688 -0.3486
   25SAPC  H17R 3328   1.916   5.581   7.981 -0.4339  1.4266 -3.4954
   25SAPC  H17S 3329   1.778   5.554   8.097 -2.3207 -1.4390 -2.3072
   25SAPC  C218 3330   1.781   5.750   8.011 -0.0253 -0.0918  0.5110
   25SAPC  H18R 3331   1.670   5.751   8.016 -0.2976 -5.3282  1.3783
   25SAPC  H18S 3332   1.823   5.797   7.920  0.1766  2.1876  1.7049
   25SAPC  C219 3333   1.848   5.828   8.126 -0.1286 -0.2730  1.0224
   25SAPC  H19R 3334   1.953   5.838   8.091 -1.2216 -0.4283 -2.7455
   25SAPC  H19S 3335   1.843   5.767   8.219  1.9634  1.1861  2.1860
   25SAPC  C220 3336   1.786   5.967   8.148 -0.3236 -0.2444 -0.5664
   25SAPC  H20R 3337   1.847   6.023   8.221  0.4384  0.8287 -1.9859
   25SAPC  H20S 3338   1.686   5.942   8.190  0.5032 -0.1503  1.5493
   25SAPC  H20T 3339   1.775   6.030   8.057 -0.8183 -0.2836 -0.5367
   25SAPC   C33 3340   1.378   5.434   6.835 -0.0437 -0.4812 -0.4328
   25SAPC   H3X 3341   1.292   5.391   6.780 -1.4192 -0.6442  1.7298
   25SAPC   H3Y 3342   1.344   5.536   6.863  3.6133  0.4533  1.2225
   25SAPC   C34 3343   1.427   5.358   6.959  1.5189 -0.2699  0.6538
   25SAPC   H4X 3344   1.501   5.424   7.009  0.2013  2.1273 -0.3810
   25SAPC   H4Y 3345   1.465   5.256   6.938  1.3897 -0.0809 -0.5807
   25SAPC   C35 3346   1.322   5.354   7.065  0.6423 -0.3540  0.2645
   25SAPC   H5X 3347   1.250   5.273   7.042 -0.4192  1.0995 -1.8785
   25SAPC   H5Y 3348   1.279   5.456   7.069  0.0899 -0.6041  0.7959
   25SAPC   C36 3349   1.390   5.318   7.198  0.0618  0.1279  0.1502
   25SAPC   H6X 3350   1.443   5.408   7.234 -0.5217  0.3911  0.3542
   25SAPC   H6Y 3351   1.446   5.224   7.177 -0.3859  0.3283 -2.2523
   25SAPC   C37 3352   1.277   5.285   7.302  0.3270 -0.6755 -0.8959
   25SAPC   H7X 3353   1.249   5.177   7.296 -1.1566 -0.3513 -0.2379
   25SAPC   H7Y 3354   1.187   5.347   7.282  1.2659  2.0225  2.3173
   25SAPC   C38 3355   1.316   5.331   7.446 -0.7044 -1.1863 -0.1064
   25SAPC   H8X 3356   1.390   5.414   7.439 -0.7311 -1.3056 -3.5109
   25SAPC   H8Y 3357   1.375   5.257   7.504  0.5510  1.8174  2.8307
   25SAPC   C39 3358   1.205   5.369   7.543  0.1458 -0.7010  0.0063
   25SAPC   H9X 3359   1.145   5.275   7.546  0.1746 -0.7222  2.9571
   25SAPC   H9Y 3360   1.146   5.451   7.497 -1.9976 -1.9631  0.3960
   25SAPC  C310 3361   1.259   5.411   7.686 -0.5836  0.4659  0.6835
   25SAPC  H10X 3362   1.176   5.464   7.737 -1.1611 -1.2351  1.6116
   25SAPC  H10Y 3363   1.344   5.482   7.684  0.3192 -0.5948  0.2306
   25SAPC  C311 3364   1.292   5.291   7.777  0.6472 -0.7625 -0.0681
   25SAPC  H11X 3365   1.368   5.225   7.730  0.1939 -1.5972  0.3551
   25SAPC  H11Y 3366   1.198   5.232   7.781  0.3183 -0.2763 -0.5785
   25SAPC  C312 3367   1.329   5.331   7.922 -0.2558 -1.0320  0.2810
   25SAPC  H12X 3368   1.265   5.409   7.967 -0.1229 -0.5028 -0.4425
   25SAPC  H12Y 3369   1.426   5.381   7.901  0.7679 -3.5900 -1.7817
   25SAPC  C313 3370   1.326   5.205   8.019  1.0232 -0.1191  0.5783
   25SAPC  H13X 3371   1.407   5.132   7.996  2.7937  2.0503 -0.4487
   25SAPC  H13Y 3372   1.229   5.154   8.002  0.3283  1.7969 -1.8312
   25SAPC  C314 3373   1.366   5.247   8.165  0.0929 -0.6752  0.0725
   25SAPC  H14X 3374   1.359   5.150   8.219  3.1281 -0.7286  0.5676
   25SAPC  H14Y 3375   1.302   5.326   8.211  0.9049  0.0966 -0.0962
   25SAPC  C315 3376   1.513   5.286   8.178 -0.4434 -0.4773  0.5445
   25SAPC  H15X 3377   1.536   5.379   8.122 -0.3326 -1.5878 -1.3584
   25SAPC  H15Y 3378   1.572   5.203   8.133  1.7959  1.3024  0.0444
   25SAPC  C316 3379   1.564   5.297   8.324  0.5512 -0.9578 -0.4633
   25SAPC  H16X 3380   1.532   5.206   8.379 -1.5787 -1.1728 -1.9549
   25SAPC  H16Y 3381   1.505   5.378   8.370 -0.1589 -1.3529 -0.6684
   25SAPC  C317 3382   1.714   5.326   8.341  0.1401 -0.3911 -0.1541
   25SAPC  H17X 3383   1.742   5.425   8.298  1.9312 -0.6945  0.2574
   25SAPC  H17Y 3384   1.764   5.245   8.284 -1.1167 -1.5981  0.4164
   25SAPC  C318 3385   1.767   5.314   8.491  0.1922 -0.1022  0.2248
   25SAPC  H18X 3386   1.713   5.382   8.560  0.2596 -1.1235  1.3240
   25SAPC  H18Y 3387   1.877   5.325   8.499  0.3763 -1.0776 -0.6262
   25SAPC  H18Z 3388   1.754   5.209   8.525  1.1581 -0.5070 -0.6038
   26SAPC     N 3389   6.781   5.533   6.290  0.4859 -0.5018 -0.4639
   26SAPC   C12 3390   6.922   5.580   6.261  0.6876 -0.4321  0.1138
   26SAPC  H12A 3391   6.927   5.681   6.300 -2.3638 -0.7379  1.5898
   26SAPC  H12B 3392   6.932   5.589   6.154 -0.4797 -1.9283 -0.1482
   26SAPC   C13 3393   6.686   5.636   6.251 -0.2920  0.4897 -0.1107
   26SAPC  H13A 3394   6.678   5.639   6.143  0.4774  0.7568 -0.1685
   26SAPC  H13B 3395   6.585   5.620   6.285 -0.6184 -4.4292 -2.5145
   26SAPC  H13C 3396   6.716   5.736   6.279 -0.6158  1.1253 -1.8902
   26SAPC   C14 3397   6.747   5.400   6.233 -0.8930 -0.5758  1.3106
   26SAPC  H14A 3398   6.801   5.325   6.289  0.6713  0.9491  1.9128
   26SAPC  H14B 3399   6.643   5.371   6.234 -0.2484 -3.1754  0.7442
   26SAPC  H14C 3400   6.769   5.396   6.127 -2.0308 -1.2345  1.0779
   26SAPC   C15 3401   6.779   5.515   6.441 -0.5233 -0.6539  0.5723
   26SAPC  H15A 3402   6.826   5.419   6.461  0.0929 -0.5092 -0.1206
   26SAPC  H15B 3403   6.846   5.582   6.494  0.7757 -1.4373 -0.0133
   26SAPC  H15C 3404   6.681   5.519   6.484 -1.2878 -0.8093 -1.0838
   26SAPC   C11 3405   7.043   5.501   6.328  0.0455  0.1448  0.7572
   26SAPC  H11A 3406   7.048   5.540   6.433  0.6857 -0.9396  1.1440
   26SAPC  H11B 3407   7.137   5.537   6.282  0.1460  0.9592  1.5412
   26SAPC     P 3408   7.059   5.266   6.436  0.2473  0.0543 -0.1150
   26SAPC   O13 3409   6.932   5.262   6.509 -0.0030  0.4710 -0.0781
   26SAPC   O14 3410   7.112   5.146   6.370 -0.2588  0.0514 -0.2543
   26SAPC   O12 3411   7.032   5.361   6.317 -0.0087 -0.3325  0.2970
   26SAPC   O11 3412   7.165   5.333   6.519  0.1399 -0.2501 -1.1278
   26SAPC    C1 3413   7.295   5.356   6.463 -0.6312  0.4327 -0.6714
   26SAPC    HA 3414   7.361   5.267   6.478 -0.6994 -0.0169 -2.6969
   26SAPC    HB 3415   7.295   5.369   6.353  2.3346  0.2536 -0.7670
   26SAPC    C2 3416   7.375   5.461   6.547 -0.0092 -0.1390 -1.0383
   26SAPC    HS 3417   7.484   5.444   6.542  0.3352  1.7367 -0.5460
   26SAPC   O21 3418   7.325   5.447   6.679 -0.3023  0.1347 -0.0880
   26SAPC   C21 3419   7.371   5.340   6.743 -0.5408 -0.4248 -0.1085
   26SAPC   O22 3420   7.453   5.259   6.697  0.7998 -0.7786 -0.2169
   26SAPC   C22 3421   7.322   5.338   6.886  0.1805 -0.0954 -0.1929
   26SAPC   H2R 3422   7.362   5.431   6.932  0.1814  1.6053 -3.3702
   26SAPC   H2S 3423   7.213   5.355   6.878  0.4587  2.7331  0.8350
   26SAPC    C3 3424   7.345   5.604   6.495  0.2105  0.1270 -0.4703
   26SAPC    HX 3425   7.236   5.607   6.477  0.2880  2.2804 -0.8915
   26SAPC    HY 3426   7.408   5.619   6.405  0.2526 -0.9426 -0.6359
   26SAPC   O31 3427   7.383   5.709   6.585 -0.0370  0.2901 -0.6662
   26SAPC   C31 3428   7.515   5.740   6.592  0.5117 -0.3956  0.6248
   26SAPC   O32 3429   7.608   5.688   6.525  0.8906 -0.7268 -0.1197
   26SAPC   C32 3430   7.526   5.851   6.695 -0.2330 -0.0200  0.4959
   26SAPC   H2X 3431   7.505   5.949   6.647 -2.0300 -0.5028  0.2149
   26SAPC   H2Y 3432   7.633   5.863   6.720  0.4221 -0.1003 -2.0085
   26SAPC   C23 3433   7.357   5.208   6.971 -0.1878 -0.5230  0.3276
   26SAPC   H3R 3434   7.362   5.119   6.904  1.5626 -2.2025  2.5327
   26SAPC   H3S 3435   7.293   5.184   7.058 -0.5858 -2.0739 -0.3568
   26SAPC   C24 3436   7.501   5.212   7.024  0.7895 -0.0179 -0.8045
   26SAPC   H4R 3437   7.519   5.310   7.073  1.0799 -0.0330 -0.8779
   26SAPC   H4S 3438   7.565   5.216   6.933 -0.0627 -3.0786 -1.6699
   26SAPC   C25 3439   7.526   5.094   7.107  0.6549 -0.7497 -0.4304
   26SAPC   H5R 3440   7.488   4.997   7.071 -3.7268  0.7525 -0.4334
   26SAPC   C26 3441   7.573   5.093   7.234 -0.0966 -0.2221  0.1134
   26SAPC   H6R 3442   7.598   5.004   7.293  1.8352  0.3202  0.1855
   26SAPC   C27 3443   7.611   5.218   7.314  0.2464 -0.6516 -0.4598
   26SAPC   H7R 3444   7.608   5.314   7.258 -0.1442 -0.7235 -0.5660
   26SAPC   H7S 3445   7.716   5.207   7.350  0.8979 -0.5751 -2.2461
   26SAPC   C28 3446   7.524   5.227   7.438  1.1290 -0.9227  0.1936
   26SAPC   H8R 3447   7.421   5.255   7.412  0.8827 -1.1893  0.8598
   26SAPC   C29 3448   7.547   5.193   7.570 -0.6408  0.2259 -0.3198
   26SAPC   H9R 3449   7.464   5.204   7.642 -1.8543  1.1493 -1.8148
   26SAPC  C210 3450   7.669   5.136   7.627  0.1529  0.4574  0.5878
   26SAPC  H10R 3451   7.740   5.109   7.546 -1.3404 -1.7270 -0.1032
   26SAPC  H10S 3452   7.639   5.037   7.668 -0.9638  1.1186  1.4191
   26SAPC  C211 3453   7.732   5.220   7.733 -0.1045 -0.6112 -0.2802
   26SAPC  H11R 3454   7.743   5.327   7.712  3.4195 -0.4816  1.4573
   26SAPC  C212 3455   7.773   5.188   7.854 -0.1341 -0.3980 -0.3706
   26SAPC  H12R 3456   7.822   5.271   7.907  0.1942 -0.6236 -0.3184
   26SAPC  C213 3457   7.764   5.055   7.929 -0.3225  0.2005 -0.4387
   26SAPC  H13R 3458   7.855   4.998   7.903 -1.6226 -1.5580 -1.3416
   26SAPC  H13S 3459   7.682   4.995   7.883  0.9497 -2.0962  0.1457
   26SAPC  C214 3460   7.728   5.090   8.074 -0.3362  0.1569 -0.1360
   26SAPC  H14R 3461   7.622   5.114   8.090  0.4058  2.6622  1.7026
   26SAPC  C215 3462   7.796   5.064   8.181 -0.4986 -0.4686  0.1597
   26SAPC  H15R 3463   7.764   5.097   8.281  0.2313 -2.0662  0.9472
   26SAPC  C216 3464   7.932   5.002   8.189  0.0248  0.2497  0.4401
   26SAPC  H16R 3465   8.014   5.070   8.220  1.2440 -1.1718  0.4282
   26SAPC  H16S 3466   7.955   4.958   8.089  1.4567 -0.1855  0.9484
   26SAPC  C217 3467   7.927   4.877   8.278  0.3642  0.4645 -0.2797
   26SAPC  H17R 3468   8.028   4.832   8.266  0.4499 -0.1556  2.2937
   26SAPC  H17S 3469   7.848   4.807   8.243  0.1250 -0.5781  2.1652
   26SAPC  C218 3470   7.889   4.897   8.427 -0.2975 -0.0772  0.0250
   26SAPC  H18R 3471   7.909   4.799   8.475  2.0361  0.9301  1.2931
   26SAPC  H18S 3472   7.781   4.924   8.434  0.3389  2.6591  0.7709
   26SAPC  C219 3473   7.983   4.994   8.505  0.2611 -0.9510 -0.3604
   26SAPC  H19R 3474   7.990   5.090   8.450  0.4665 -1.6898 -1.6568
   26SAPC  H19S 3475   8.089   4.961   8.507  1.4544  2.5032  0.3530
   26SAPC  C220 3476   7.942   5.018   8.660 -0.3962  0.3790  0.5771
   26SAPC  H20R 3477   7.833   5.035   8.670  0.2349  3.9885  3.4614
   26SAPC  H20S 3478   7.988   5.114   8.694  0.6049  0.0464  0.2130
   26SAPC  H20T 3479   7.977   4.934   8.724 -1.5293 -0.6115 -0.0724
   26SAPC   C33 3480   7.431   5.835   6.817  0.1302  0.8289  0.2906
   26SAPC   H3X 3481   7.328   5.811   6.783  0.0367 -0.1466  1.1935
   26SAPC   H3Y 3482   7.433   5.931   6.873 -1.4302  1.8577 -1.3212
   26SAPC   C34 3483   7.478   5.732   6.921  0.2791 -0.6096  0.4619
   26SAPC   H4X 3484   7.557   5.790   6.973  1.9678 -1.0228 -1.4962
   26SAPC   H4Y 3485   7.528   5.643   6.876  0.9281  0.3143 -0.7029
   26SAPC   C35 3486   7.371   5.701   7.024  0.2188  0.7688 -0.7504
   26SAPC   H5X 3487   7.300   5.632   6.972 -0.4094 -0.2543  1.3524
   26SAPC   H5Y 3488   7.309   5.787   7.058 -0.1232  0.1063  0.3406
   26SAPC   C36 3489   7.427   5.629   7.155  0.2383 -0.1615 -0.3137
   26SAPC   H6X 3490   7.519   5.681   7.187 -0.1963  0.2187  0.3288
   26SAPC   H6Y 3491   7.448   5.522   7.134 -1.0683 -0.4905  0.0076
   26SAPC   C37 3492   7.320   5.632   7.264  0.2483 -0.0581  0.4725
   26SAPC   H7X 3493   7.244   5.552   7.251 -0.4118  0.4664  1.0200
   26SAPC   H7Y 3494   7.278   5.734   7.249  0.3298 -0.1446 -0.3934
   26SAPC   C38 3495   7.388   5.630   7.406  0.5836  0.3108  1.5556
   26SAPC   H8X 3496   7.462   5.713   7.404 -0.8607  1.6730 -0.8636
   26SAPC   H8Y 3497   7.444   5.534   7.401 -1.0999 -0.7606 -3.5970
   26SAPC   C39 3498   7.280   5.637   7.512 -0.4731 -0.2770  0.1396
   26SAPC   H9X 3499   7.211   5.554   7.487  2.1548 -1.7931 -2.8269
   26SAPC   H9Y 3500   7.235   5.738   7.517  1.2081  0.4755  0.5974
   26SAPC  C310 3501   7.338   5.600   7.654 -0.1959  0.1886  0.7022
   26SAPC  H10X 3502   7.423   5.668   7.679 -0.9192  1.0776  0.8138
   26SAPC  H10Y 3503   7.371   5.495   7.639 -1.7674 -0.1680 -0.4920
   26SAPC  C311 3504   7.244   5.594   7.775  0.4083  1.1824 -0.4274
   26SAPC  H11X 3505   7.175   5.507   7.768  0.4583  1.0642  0.4270
   26SAPC  H11Y 3506   7.183   5.686   7.784  1.4564  1.7270  1.8634
   26SAPC  C312 3507   7.325   5.570   7.904 -0.6807 -0.4519  0.2331
   26SAPC  H12X 3508   7.340   5.665   7.958 -1.8638 -0.2140  0.1826
   26SAPC  H12Y 3509   7.420   5.525   7.868 -1.1225 -0.5651 -0.8276
   26SAPC  C313 3510   7.272   5.462   7.995 -0.5106  0.4171  0.5828
   26SAPC  H13X 3511   7.320   5.367   7.965 -2.2423 -0.4327  0.3979
   26SAPC  H13Y 3512   7.163   5.454   7.974 -0.4758  1.3854 -0.0334
   26SAPC  C314 3513   7.282   5.483   8.143 -0.3310 -0.2300  0.6302
   26SAPC  H14X 3514   7.230   5.578   8.168 -1.2806  0.0345 -2.0026
   26SAPC  H14Y 3515   7.384   5.496   8.185  0.4845 -0.0381 -1.3031
   26SAPC  C315 3516   7.220   5.362   8.206  0.2553  0.1190  0.4129
   26SAPC  H15X 3517   7.290   5.281   8.234  0.8558  0.3085 -0.5045
   26SAPC  H15Y 3518   7.158   5.304   8.135  0.5883 -1.5137  1.4140
   26SAPC  C316 3519   7.159   5.398   8.338  0.7085  0.3355 -0.1957
   26SAPC  H16X 3520   7.066   5.458   8.333  0.0849 -0.6125 -0.3881
   26SAPC  H16Y 3521   7.223   5.457   8.406  0.3636  0.7071 -0.1909
   26SAPC  C317 3522   7.126   5.268   8.419  0.4175 -0.1831 -0.6943
   26SAPC  H17X 3523   7.216   5.204   8.424 -0.0642 -0.7841  1.0076
   26SAPC  H17Y 3524   7.049   5.208   8.365 -0.7303  1.1294 -0.5829
   26SAPC  C318 3525   7.078   5.287   8.559  0.0682  0.3049  0.3780
   26SAPC  H18X 3526   7.164   5.338   8.607  1.5008  0.6830 -2.3836
   26SAPC  H18Y 3527   7.067   5.183   8.598  1.5529 -0.8293 -1.9732
   26SAPC  H18Z 3528   6.985   5.348   8.553  1.4409  2.3465 -1.5974
   27SAPC     N 3529   6.103   1.559   6.824 -0.6883 -0.2430  0.6655
   27SAPC   C12 3530   5.995   1.596   6.727 -0.5547 -0.4171  0.7196
   27SAPC  H12A 3531   5.960   1.512   6.668  1.3042  0.7114 -2.2007
   27SAPC  H12B 3532   6.038   1.654   6.647  0.9478  1.0343  2.4990
   27SAPC   C13 3533   6.188   1.675   6.851 -0.4701 -0.0928  0.1676
   27SAPC  H13A 3534   6.226   1.712   6.757  1.1404 -0.3116  0.7002
   27SAPC  H13B 3535   6.144   1.758   6.904 -0.6396 -0.5317  0.7227
   27SAPC  H13C 3536   6.278   1.651   6.905 -0.0735  1.2421  0.1488
   27SAPC   C14 3537   6.055   1.513   6.957 -0.1198  0.8251  0.4885
   27SAPC  H14A 3538   6.137   1.506   7.027 -1.2934  0.1114  1.8527
   27SAPC  H14B 3539   5.980   1.579   7.000 -0.8236  0.5718 -0.3057
   27SAPC  H14C 3540   6.006   1.417   6.950  1.0609  0.2994 -0.8843
   27SAPC   C15 3541   6.188   1.442   6.780 -0.5082 -0.2538  0.0603
   27SAPC  H15A 3542   6.279   1.427   6.836 -0.2024 -0.3512 -0.4552
   27SAPC  H15B 3543   6.129   1.352   6.788 -1.2294  0.2514  0.6079
   27SAPC  H15C 3544   6.226   1.454   6.679  2.0604  2.7163  1.2042
   27SAPC   C11 3545   5.880   1.682   6.782  0.6793 -0.0245  0.4872
   27SAPC  H11A 3546   5.835   1.742   6.700 -0.7667 -0.2785  1.0608
   27SAPC  H11B 3547   5.928   1.762   6.841  0.0157  1.2352 -0.6217
   27SAPC     P 3548   5.691   1.503   6.796  0.4266  0.1357  0.2182
   27SAPC   O13 3549   5.661   1.528   6.652 -0.0877 -0.0918  0.1393
   27SAPC   O14 3550   5.745   1.376   6.835  0.3307 -0.4419  0.4973
   27SAPC   O12 3551   5.778   1.616   6.859  0.4153 -0.0032  0.8178
   27SAPC   O11 3552   5.557   1.519   6.875  0.2350 -0.6232  0.4916
   27SAPC    C1 3553   5.455   1.617   6.840 -0.4034 -0.0771  1.1491
   27SAPC    HA 3554   5.475   1.668   6.743  0.0869 -1.0533  0.7312
   27SAPC    HB 3555   5.361   1.561   6.825 -2.3814  3.2078  0.0764
   27SAPC    C2 3556   5.433   1.726   6.949 -0.2509  0.2517  0.6260
   27SAPC    HS 3557   5.533   1.773   6.967  1.4898 -2.7544 -0.4362
   27SAPC   O21 3558   5.377   1.670   7.067  0.7161 -0.7900  0.0461
   27SAPC   C21 3559   5.457   1.609   7.139  0.3202  0.4084 -0.3287
   27SAPC   O22 3560   5.582   1.620   7.141  0.0067 -0.0398  0.7055
   27SAPC   C22 3561   5.381   1.527   7.247 -0.2675 -0.9506 -0.2594
   27SAPC   H2R 3562   5.336   1.602   7.316 -0.5383  0.8118 -2.2627
   27SAPC   H2S 3563   5.300   1.474   7.192 -2.0229  0.8155  0.4838
   27SAPC    C3 3564   5.349   1.843   6.889  0.6931 -0.8665 -0.2884
   27SAPC    HX 3565   5.287   1.801   6.808  0.9537  1.2368 -1.6572
   27SAPC    HY 3566   5.422   1.916   6.848  0.0288 -0.3550 -0.5664
   27SAPC   O31 3567   5.269   1.907   6.994  0.5708 -0.5408 -0.1331
   27SAPC   C31 3568   5.147   1.857   7.013  0.0378  0.4910  0.4322
   27SAPC   O32 3569   5.103   1.762   6.949 -0.3748  0.2998 -0.3044
   27SAPC   C32 3570   5.062   1.928   7.120  0.0848 -0.8021  0.0887
   27SAPC   H2X 3571   4.958   1.894   7.099 -0.4291  0.4914  0.3950
   27SAPC   H2Y 3572   5.055   2.036   7.092  1.3889 -0.5145  0.7982
   27SAPC   C23 3573   5.460   1.420   7.322 -0.0018 -0.0049  0.0647
   27SAPC   H3R 3574   5.488   1.344   7.246  2.0993  0.8916 -0.1133
   27SAPC   H3S 3575   5.389   1.392   7.403  0.4282  1.3212  0.9212
   27SAPC   C24 3576   5.588   1.450   7.409 -0.6495 -0.6818 -0.6005
   27SAPC   H4R 3577   5.655   1.495   7.333 -2.2043 -0.2400 -1.7660
   27SAPC   H4S 3578   5.634   1.353   7.436  0.3921 -0.2645 -0.8172
   27SAPC   C25 3579   5.565   1.533   7.535  0.6863 -0.2187 -0.2648
   27SAPC   H5R 3580   5.512   1.628   7.517 -1.4465 -0.8520  2.0333
   27SAPC   C26 3581   5.586   1.501   7.664 -0.1225  0.4798 -0.1258
   27SAPC   H6R 3582   5.556   1.569   7.746  1.0593 -0.9946  1.5926
   27SAPC   C27 3583   5.638   1.363   7.695  0.1338 -0.5638 -0.3862
   27SAPC   H7R 3584   5.704   1.374   7.784  1.5217  1.9649 -1.6192
   27SAPC   H7S 3585   5.711   1.331   7.619  1.7137 -1.2287  1.3301
   27SAPC   C28 3586   5.531   1.255   7.723 -0.5627  0.0012 -0.2676
   27SAPC   H8R 3587   5.468   1.232   7.635 -0.6806 -1.4725  0.1867
   27SAPC   C29 3588   5.515   1.184   7.841 -1.1220 -0.1250 -0.6044
   27SAPC   H9R 3589   5.445   1.100   7.849  0.5713 -1.5954 -0.5210
   27SAPC  C210 3590   5.596   1.193   7.969 -0.3059  0.1254  0.9362
   27SAPC  H10R 3591   5.670   1.275   7.964  0.9379 -0.9300  1.4513
   27SAPC  H10S 3592   5.659   1.103   7.984  1.2629  0.9446 -0.4275
   27SAPC  C211 3593   5.495   1.203   8.083  0.2840 -0.0866 -0.6151
   27SAPC  H11R 3594   5.395   1.162   8.064  0.2893 -0.5036  0.2223
   27SAPC  C212 3595   5.517   1.238   8.211  0.5348 -0.3481  0.1070
   27SAPC  H12R 3596   5.432   1.243   8.281 -0.5669 -1.8846 -1.0569
   27SAPC  C213 3597   5.639   1.289   8.262  0.3509 -1.1396  0.3580
   27SAPC  H13R 3598   5.636   1.314   8.370  0.2237  2.4972 -0.3617
   27SAPC  H13S 3599   5.671   1.386   8.218  1.6265 -1.3325  0.8029
   27SAPC  C214 3600   5.755   1.203   8.260 -0.2170  0.4524  0.8465
   27SAPC  H14R 3601   5.762   1.116   8.192  0.2616  2.0960 -1.3074
   27SAPC  C215 3602   5.862   1.222   8.343  0.3921  0.4748  0.4384
   27SAPC  H15R 3603   5.950   1.159   8.324 -0.9234 -0.3773 -3.7911
   27SAPC  C216 3604   5.875   1.320   8.455 -0.1930 -0.3156 -0.3357
   27SAPC  H16R 3605   5.815   1.413   8.443 -0.2073 -0.2416  0.2640
   27SAPC  H16S 3606   5.980   1.356   8.453  0.0777 -1.0267  0.6200
   27SAPC  C217 3607   5.843   1.270   8.596  0.2716 -0.0162 -1.0502
   27SAPC  H17R 3608   5.743   1.222   8.596  0.2688 -0.1452 -3.4747
   27SAPC  H17S 3609   5.839   1.363   8.657  0.6590 -0.6831  0.0023
   27SAPC  C218 3610   5.941   1.162   8.647  0.5399 -0.0992 -0.0003
   27SAPC  H18R 3611   5.979   1.102   8.562 -0.9586  0.2690 -0.9603
   27SAPC  H18S 3612   5.897   1.095   8.724  0.5033  0.0974  0.1495
   27SAPC  C219 3613   6.068   1.217   8.717 -0.1620  0.0478 -0.4053
   27SAPC  H19R 3614   6.031   1.287   8.795 -1.5367 -1.0185 -0.0647
   27SAPC  H19S 3615   6.121   1.276   8.639  0.1410 -0.9569 -0.9627
   27SAPC  C220 3616   6.162   1.101   8.759  0.1159 -0.2421  0.1474
   27SAPC  H20R 3617   6.176   1.028   8.677 -0.4956  1.5284 -1.6236
   27SAPC  H20S 3618   6.114   1.046   8.843  0.3043 -0.8646 -0.1488
   27SAPC  H20T 3619   6.256   1.141   8.802  0.0840 -0.8170  0.7619
   27SAPC   C33 3620   5.109   1.920   7.267 -0.4119 -0.1742  0.1645
   27SAPC   H3X 3621   5.052   1.993   7.329  0.2785  3.1671 -2.7934
   27SAPC   H3Y 3622   5.211   1.963   7.268 -0.8066  0.7923 -0.1266
   27SAPC   C34 3623   5.110   1.774   7.323  0.0000 -0.0953  0.1880
   27SAPC   H4X 3624   5.176   1.699   7.274 -1.0658 -1.1423  0.3117
   27SAPC   H4Y 3625   5.008   1.735   7.305 -0.4062  1.1221 -0.2324
   27SAPC   C35 3626   5.119   1.770   7.478 -0.1262  0.1151  0.3416
   27SAPC   H5X 3627   5.049   1.845   7.522 -0.8032  0.1355 -0.7532
   27SAPC   H5Y 3628   5.222   1.800   7.508 -0.4384  1.2807  0.2923
   27SAPC   C36 3629   5.091   1.635   7.533  0.3581 -0.1615 -0.8597
   27SAPC   H6X 3630   5.151   1.565   7.471 -0.3931 -0.4018 -1.3412
   27SAPC   H6Y 3631   4.984   1.616   7.507 -0.7234  2.9538  0.7668
   27SAPC   C37 3632   5.106   1.618   7.682  0.5754  0.6348  0.2562
   27SAPC   H7X 3633   5.006   1.609   7.730  0.1253  0.9433 -0.5875
   27SAPC   H7Y 3634   5.166   1.698   7.731  0.5970 -0.4530  2.0814
   27SAPC   C38 3635   5.190   1.491   7.719  0.6965  0.8564 -0.0534
   27SAPC   H8X 3636   5.296   1.493   7.684 -0.0631 -2.3786 -3.0476
   27SAPC   H8Y 3637   5.145   1.403   7.669 -1.8536  0.7185  2.2587
   27SAPC   C39 3638   5.188   1.474   7.874 -0.9023 -0.3267  0.6148
   27SAPC   H9X 3639   5.238   1.377   7.893 -0.0206 -0.5771 -2.4351
   27SAPC   H9Y 3640   5.083   1.464   7.908 -1.5772  0.1700 -1.2213
   27SAPC  C310 3641   5.255   1.590   7.936  0.3078  0.5970 -0.2712
   27SAPC  H10X 3642   5.182   1.673   7.949  0.2286  0.2122  2.2616
   27SAPC  H10Y 3643   5.342   1.612   7.870  1.3058  0.9045  1.1194
   27SAPC  C311 3644   5.319   1.559   8.072 -0.3395 -0.3416  0.0675
   27SAPC  H11X 3645   5.383   1.469   8.060 -0.2676 -0.0506 -2.4148
   27SAPC  H11Y 3646   5.230   1.547   8.137 -0.1882  1.5091  0.6914
   27SAPC  C312 3647   5.404   1.678   8.130  0.1880  0.5437 -0.1822
   27SAPC  H12X 3648   5.352   1.775   8.117  2.6703  1.6944 -2.3263
   27SAPC  H12Y 3649   5.498   1.684   8.071  1.0118 -0.9917  0.8718
   27SAPC  C313 3650   5.446   1.646   8.267  0.0540  0.4247 -0.0191
   27SAPC  H13X 3651   5.476   1.541   8.282 -1.7116  0.2686  3.2675
   27SAPC  H13Y 3652   5.358   1.659   8.333 -0.9048 -1.6828 -0.8045
   27SAPC  C314 3653   5.568   1.736   8.303  0.2953 -0.2265 -0.4156
   27SAPC  H14X 3654   5.534   1.841   8.309  2.1376  0.3328  0.7813
   27SAPC  H14Y 3655   5.637   1.729   8.216 -0.6979 -0.5192 -1.2141
   27SAPC  C315 3656   5.637   1.675   8.432  0.1969  0.8116 -0.0591
   27SAPC  H15X 3657   5.711   1.752   8.461  1.0631 -0.3325  0.8682
   27SAPC  H15Y 3658   5.690   1.578   8.420 -1.9403 -0.3132 -0.8683
   27SAPC  C316 3659   5.540   1.668   8.548 -0.3109 -0.0165 -0.4347
   27SAPC  H16X 3660   5.492   1.569   8.564 -0.7939  0.3705  0.5900
   27SAPC  H16Y 3661   5.458   1.741   8.532 -0.2611  0.0706 -0.2849
   27SAPC  C317 3662   5.597   1.699   8.688 -0.0137 -0.1929  0.2317
   27SAPC  H17X 3663   5.640   1.801   8.697 -1.8110  0.6745 -0.5270
   27SAPC  H17Y 3664   5.679   1.626   8.707  0.7392  0.5781  0.0338
   27SAPC  C318 3665   5.484   1.680   8.801 -0.6122  0.4310  0.0400
   27SAPC  H18X 3666   5.405   1.757   8.787  0.3938  1.0025 -3.4191
   27SAPC  H18Y 3667   5.533   1.677   8.901 -1.8642 -2.5287  0.6762
   27SAPC  H18Z 3668   5.432   1.583   8.786 -0.0249  0.4295 -2.4219
   28SAPC     N 3669   6.488   4.737   6.267  0.7851 -0.3135 -0.3491
   28SAPC   C12 3670   6.344   4.771   6.222  0.3111  0.1934  0.1666
   28SAPC  H12A 3671   6.275   4.718   6.285 -3.4952  2.3510 -1.8676
   28SAPC  H12B 3672   6.327   4.718   6.130  0.7602 -0.8467  0.6628
   28SAPC   C13 3673   6.525   4.798   6.398 -0.3518  0.2816 -0.1891
   28SAPC  H13A 3674   6.452   4.781   6.477  0.2155  0.3002  0.3490
   28SAPC  H13B 3675   6.621   4.767   6.438 -0.6596  0.5064  0.7537
   28SAPC  H13C 3676   6.526   4.906   6.393 -1.0739  0.3041 -0.0118
   28SAPC   C14 3677   6.505   4.586   6.289 -0.2477  0.2394  0.2832
   28SAPC  H14A 3678   6.607   4.552   6.305  0.2047  0.2376 -2.1905
   28SAPC  H14B 3679   6.441   4.552   6.368 -3.2308  0.0317 -2.0421
   28SAPC  H14C 3680   6.488   4.533   6.197 -1.0607 -1.8565  1.5898
   28SAPC   C15 3681   6.588   4.781   6.161  0.0243 -0.1649 -0.6522
   28SAPC  H15A 3682   6.561   4.880   6.127 -0.6353  0.4108  1.4410
   28SAPC  H15B 3683   6.686   4.778   6.207  0.1227  4.0147 -0.2491
   28SAPC  H15C 3684   6.590   4.728   6.066 -1.2110  0.4190 -1.0306
   28SAPC   C11 3685   6.315   4.924   6.212  0.0464 -0.0881 -0.4377
   28SAPC  H11A 3686   6.220   4.929   6.155 -1.2007  0.9498  1.6154
   28SAPC  H11B 3687   6.392   4.973   6.149 -0.5819 -1.5267 -2.4442
   28SAPC     P 3688   6.190   4.963   6.452  0.3564  0.3106  0.4894
   28SAPC   O13 3689   6.062   5.004   6.385  0.0032 -0.8734 -0.2478
   28SAPC   O14 3690   6.188   4.834   6.522 -0.3959  0.3118 -0.5635
   28SAPC   O12 3691   6.307   4.974   6.350  0.2584 -0.0010 -0.0802
   28SAPC   O11 3692   6.229   5.064   6.561 -0.3070 -0.0109  0.1126
   28SAPC    C1 3693   6.358   5.077   6.626  0.0344 -0.4392 -0.0192
   28SAPC    HA 3694   6.384   4.976   6.664 -0.1519 -0.0356  1.2334
   28SAPC    HB 3695   6.437   5.115   6.559  1.8069 -2.2627  0.9467
   28SAPC    C2 3696   6.355   5.176   6.748  0.1523 -0.4472  0.0629
   28SAPC    HS 3697   6.448   5.175   6.808 -0.5826 -0.8268  1.2319
   28SAPC   O21 3698   6.250   5.145   6.836  0.5538 -0.0254 -0.2078
   28SAPC   C21 3699   6.265   5.030   6.904 -0.5706  0.5726  0.1638
   28SAPC   O22 3700   6.365   4.964   6.898 -0.1055 -0.3030  0.1000
   28SAPC   C22 3701   6.143   5.001   6.988 -0.2347  0.1969 -0.0118
   28SAPC   H2R 3702   6.081   5.093   6.996  0.5080  0.6759  0.3222
   28SAPC   H2S 3703   6.093   4.919   6.932 -2.1596  1.3369 -0.0452
   28SAPC    C3 3704   6.333   5.317   6.690 -0.5905 -0.3677  0.1132
   28SAPC    HX 3705   6.233   5.317   6.641  0.6394  4.0377 -2.9381
   28SAPC    HY 3706   6.396   5.322   6.599 -1.3229 -1.0065 -0.4417
   28SAPC   O31 3707   6.344   5.418   6.796  0.8503  0.3514  0.6100
   28SAPC   C31 3708   6.468   5.463   6.805  0.0365 -0.3507 -0.8746
   28SAPC   O32 3709   6.557   5.444   6.725 -0.5070  0.5527 -0.6427
   28SAPC   C32 3710   6.489   5.551   6.931  0.1308 -0.0309 -0.2702
   28SAPC   H2X 3711   6.427   5.643   6.925 -0.2157 -0.1432  1.1732
   28SAPC   H2Y 3712   6.594   5.586   6.944 -0.1537 -0.0639  2.6135
   28SAPC   C23 3713   6.175   4.940   7.126  0.0513 -0.1461  0.1423
   28SAPC   H3R 3714   6.211   4.837   7.101 -0.7390 -0.4498  0.2155
   28SAPC   H3S 3715   6.077   4.931   7.179  0.5921  2.6407  1.7867
   28SAPC   C24 3716   6.267   5.027   7.212  0.0595  0.8390 -0.3714
   28SAPC   H4R 3717   6.320   4.965   7.288  0.5053  2.2923  0.5376
   28SAPC   H4S 3718   6.353   5.047   7.145  1.2989 -1.2575  0.4744
   28SAPC   C25 3719   6.207   5.157   7.262 -0.7400 -0.0808 -0.0397
   28SAPC   H5R 3720   6.202   5.240   7.190 -2.8329 -0.5647 -0.5014
   28SAPC   C26 3721   6.149   5.172   7.378 -0.6939 -0.2917  0.1835
   28SAPC   H6R 3722   6.103   5.269   7.399  1.1335  0.8882 -0.9495
   28SAPC   C27 3723   6.138   5.068   7.480  0.2336 -0.8614 -1.3548
   28SAPC   H7R 3724   6.210   4.986   7.459  0.3868 -1.1866  0.2840
   28SAPC   H7S 3725   6.038   5.022   7.468  0.0509 -0.8852  0.1317
   28SAPC   C28 3726   6.159   5.117   7.621 -0.2398  0.1003  0.4196
   28SAPC   H8R 3727   6.267   5.107   7.642 -0.1547 -2.7967 -0.8721
   28SAPC   C29 3728   6.072   5.147   7.718 -0.0801 -0.1236  0.5636
   28SAPC   H9R 3729   6.116   5.168   7.817  0.1896 -0.6525  0.5562
   28SAPC  C210 3730   5.924   5.137   7.708 -0.3237  0.7227 -0.3520
   28SAPC  H10R 3731   5.879   5.051   7.761 -0.2051  0.7572 -0.1964
   28SAPC  H10S 3732   5.881   5.121   7.607 -0.8103  0.1489 -0.0591
   28SAPC  C211 3733   5.867   5.261   7.779  0.2463 -0.6368 -0.0840
   28SAPC  H11R 3734   5.835   5.257   7.884 -2.1171 -2.8520 -0.7805
   28SAPC  C212 3735   5.849   5.384   7.714 -0.2387  0.4912  0.1720
   28SAPC  H12R 3736   5.833   5.470   7.781  1.4824 -0.2638  1.6484
   28SAPC  C213 3737   5.870   5.413   7.568 -0.1234 -0.2872 -0.6662
   28SAPC  H13R 3738   5.926   5.327   7.525  0.3474  0.0489 -0.7270
   28SAPC  H13S 3739   5.949   5.491   7.566 -1.6896  1.3681 -0.4267
   28SAPC  C214 3740   5.748   5.460   7.506  0.1084 -0.6674 -0.0786
   28SAPC  H14R 3741   5.688   5.532   7.562  1.7431  1.4002 -0.8492
   28SAPC  C215 3742   5.711   5.415   7.383 -1.1317  0.8533  0.0689
   28SAPC  H15R 3743   5.624   5.461   7.334 -2.0020  0.0550  0.8019
   28SAPC  C216 3744   5.761   5.319   7.280 -0.4142 -0.0087 -0.0746
   28SAPC  H16R 3745   5.679   5.247   7.263  1.2122 -1.9130 -0.2052
   28SAPC  H16S 3746   5.845   5.264   7.328 -1.6068 -0.2683  1.8341
   28SAPC  C217 3747   5.801   5.387   7.150 -0.3852 -0.2398  1.0984
   28SAPC  H17R 3748   5.878   5.466   7.169 -0.5273 -0.1882  1.4808
   28SAPC  H17S 3749   5.717   5.415   7.083 -3.0534 -1.5244  3.6598
   28SAPC  C218 3750   5.891   5.289   7.068 -0.0901 -0.1561  0.4832
   28SAPC  H18R 3751   5.825   5.214   7.020  2.7564 -1.1379 -2.2543
   28SAPC  H18S 3752   5.975   5.248   7.128 -0.3002  0.1660  1.0057
   28SAPC  C219 3753   5.952   5.363   6.950 -0.7827  0.0848  0.3719
   28SAPC  H19R 3754   5.881   5.444   6.921  0.5565  1.2314  0.1674
   28SAPC  H19S 3755   5.959   5.301   6.858  0.5897  1.0938 -0.2462
   28SAPC  C220 3756   6.082   5.432   6.975 -1.0744 -0.2479  0.1387
   28SAPC  H20R 3757   6.118   5.489   6.887  0.6767 -2.5856 -0.7484
   28SAPC  H20S 3758   6.163   5.366   7.012  0.1925  0.5269 -1.1421
   28SAPC  H20T 3759   6.065   5.507   7.055 -0.0834 -0.0426  0.1714
   28SAPC   C33 3760   6.457   5.476   7.062 -0.9519  0.3346  0.3309
   28SAPC   H3X 3761   6.537   5.401   7.078 -1.0195 -0.3582 -2.2348
   28SAPC   H3Y 3762   6.361   5.420   7.062 -0.1042 -1.2104 -1.5548
   28SAPC   C34 3763   6.439   5.579   7.185 -0.0649  0.3841 -1.2098
   28SAPC   H4X 3764   6.359   5.651   7.160 -4.2391 -3.2421  0.4333
   28SAPC   H4Y 3765   6.537   5.631   7.188 -0.4406  1.0621  0.1415
   28SAPC   C35 3766   6.408   5.502   7.309 -0.1232 -0.2979 -0.0635
   28SAPC   H5X 3767   6.484   5.423   7.329  0.6179  0.1686 -0.9504
   28SAPC   H5Y 3768   6.305   5.463   7.294 -0.8442  2.1381 -2.0279
   28SAPC   C36 3769   6.395   5.585   7.438 -0.2738 -0.1859  1.0146
   28SAPC   H6X 3770   6.330   5.672   7.414 -0.4625 -1.2021 -2.7013
   28SAPC   H6Y 3771   6.491   5.630   7.471  1.1531 -1.4114 -1.1781
   28SAPC   C37 3772   6.337   5.504   7.558 -0.7825 -0.0735 -0.2862
   28SAPC   H7X 3773   6.414   5.424   7.555 -0.4120  0.2363  0.6222
   28SAPC   H7Y 3774   6.235   5.466   7.542 -0.1382 -1.1191 -2.1802
   28SAPC   C38 3775   6.350   5.578   7.690 -0.1983 -0.8006 -0.3667
   28SAPC   H8X 3776   6.296   5.674   7.675 -0.4635 -0.7601  0.7660
   28SAPC   H8Y 3777   6.458   5.601   7.707 -0.7159  1.2028  0.5778
   28SAPC   C39 3778   6.302   5.503   7.808 -0.0464 -0.2060 -0.9455
   28SAPC   H9X 3779   6.377   5.503   7.891 -0.5280 -1.2088 -0.4869
   28SAPC   H9Y 3780   6.288   5.396   7.780  0.5687 -0.9796  1.4943
   28SAPC  C310 3781   6.175   5.551   7.876  0.5459  0.0942  0.5484
   28SAPC  H10X 3782   6.094   5.567   7.801  2.1366  0.8163 -1.0970
   28SAPC  H10Y 3783   6.200   5.643   7.932  3.7898 -0.1868 -0.2548
   28SAPC  C311 3784   6.117   5.446   7.973 -0.9765 -0.1544 -0.0663
   28SAPC  H11X 3785   6.203   5.403   8.028 -0.5890 -3.1926 -2.7399
   28SAPC  H11Y 3786   6.081   5.360   7.912  0.5912 -1.4320  0.7389
   28SAPC  C312 3787   6.012   5.504   8.065 -0.1443 -0.0676 -0.4488
   28SAPC  H12X 3788   5.929   5.558   8.015 -0.0957 -0.6493 -1.1713
   28SAPC  H12Y 3789   6.059   5.579   8.133 -0.5025  1.3816 -1.7445
   28SAPC  C313 3790   5.955   5.386   8.147 -0.0561  0.2119 -0.1051
   28SAPC  H13X 3791   6.040   5.336   8.199  1.4069  0.7139 -1.9350
   28SAPC  H13Y 3792   5.906   5.306   8.087 -2.0401  1.3936 -0.1647
   28SAPC  C314 3793   5.858   5.418   8.258  0.7912  0.4105 -0.2820
   28SAPC  H14X 3794   5.791   5.506   8.243 -2.1011 -1.5299  0.5366
   28SAPC  H14Y 3795   5.923   5.451   8.342  1.6055  0.7793 -1.0331
   28SAPC  C315 3796   5.785   5.298   8.304 -0.2262  0.8210  0.3238
   28SAPC  H15X 3797   5.860   5.223   8.335 -1.5012 -0.0179  1.4888
   28SAPC  H15Y 3798   5.708   5.252   8.238 -1.3146  0.7495  1.5949
   28SAPC  C316 3799   5.704   5.328   8.425  0.3679 -0.5088  0.2798
   28SAPC  H16X 3800   5.626   5.402   8.399  0.4386 -0.7937 -0.8081
   28SAPC  H16Y 3801   5.770   5.375   8.501  0.1276  0.3744 -0.0491
   28SAPC  C317 3802   5.633   5.211   8.500  0.0527  0.9683  0.2679
   28SAPC  H17X 3803   5.701   5.123   8.496  0.3967  1.2163  0.5522
   28SAPC  H17Y 3804   5.538   5.185   8.449  0.4877 -2.9269  1.1563
   28SAPC  C318 3805   5.607   5.231   8.651 -0.4176 -0.4139  0.2899
   28SAPC  H18X 3806   5.520   5.169   8.680 -0.0399 -0.8334  0.5413
   28SAPC  H18Y 3807   5.589   5.340   8.662  3.6545  0.5849 -0.9582
   28SAPC  H18Z 3808   5.703   5.204   8.701  0.2837  1.8332  0.2935
   29SAPC     N 3809   1.746   1.623   5.863  0.3231 -0.0562  0.0549
   29SAPC   C12 3810   1.704   1.594   6.010 -0.3039  0.9315 -0.2176
   29SAPC  H12A 3811   1.604   1.635   6.018 -0.6243  0.3222 -0.9750
   29SAPC  H12B 3812   1.766   1.643   6.083 -1.7051  1.8001  0.4297
   29SAPC   C13 3813   1.723   1.773   5.838 -0.0198 -0.8312 -0.0875
   29SAPC  H13A 3814   1.745   1.799   5.736  1.9378 -2.2559 -0.0832
   29SAPC  H13B 3815   1.618   1.786   5.860  0.6827  0.5313  2.9157
   29SAPC  H13C 3816   1.775   1.841   5.903  1.0226 -0.0773 -1.6686
   29SAPC   C14 3817   1.894   1.605   5.849 -0.3628  0.9484  0.7138
   29SAPC  H14A 3818   1.940   1.670   5.922  1.4836  3.2069 -2.2164
   29SAPC  H14B 3819   1.922   1.503   5.869 -1.7250  0.1694 -1.0197
   29SAPC  H14C 3820   1.931   1.626   5.749  2.3094 -1.9137  0.9396
   29SAPC   C15 3821   1.671   1.544   5.760 -0.2099  1.1537  0.6903
   29SAPC  H15A 3822   1.709   1.544   5.659 -0.4748  0.5803  0.5834
   29SAPC  H15B 3823   1.659   1.444   5.801  0.0378  1.3502  1.2537
   29SAPC  H15C 3824   1.571   1.584   5.756 -0.7116  0.5423  3.8438
   29SAPC   C11 3825   1.703   1.449   6.058 -0.1008 -0.2790  0.2298
   29SAPC  H11A 3826   1.688   1.459   6.168 -1.1818  1.2659 -0.0256
   29SAPC  H11B 3827   1.807   1.409   6.048  0.5084  1.7152 -2.1773
   29SAPC     P 3828   1.478   1.313   6.059  0.2629 -0.3635 -0.0961
   29SAPC   O13 3829   1.396   1.422   6.114 -0.0526 -0.1326  0.4912
   29SAPC   O14 3830   1.406   1.222   5.965 -0.3730  0.3077 -0.4239
   29SAPC   O12 3831   1.611   1.368   5.996 -0.4070 -0.0110 -0.3292
   29SAPC   O11 3832   1.528   1.217   6.180  0.1448 -0.1316 -0.3408
   29SAPC    C1 3833   1.618   1.114   6.140 -0.4468  0.0912 -0.4573
   29SAPC    HA 3834   1.563   1.042   6.076 -1.1903  1.0280 -0.8797
   29SAPC    HB 3835   1.708   1.154   6.088 -0.3001  0.8522  0.3711
   29SAPC    C2 3836   1.686   1.036   6.259  0.4764  0.3535  0.7499
   29SAPC    HS 3837   1.754   0.959   6.215  0.2351  1.0264 -0.8728
   29SAPC   O21 3838   1.572   0.988   6.337 -0.0160  0.1660 -0.2718
   29SAPC   C21 3839   1.554   0.860   6.349  0.2876  0.4245  0.7871
   29SAPC   O22 3840   1.609   0.774   6.276 -0.3401  0.0310  0.2646
   29SAPC   C22 3841   1.459   0.840   6.473  0.2655 -0.1846  0.2742
   29SAPC   H2R 3842   1.472   0.927   6.541 -0.3185 -1.0312  1.5089
   29SAPC   H2S 3843   1.362   0.853   6.421  1.3922  0.0034 -1.8994
   29SAPC    C3 3844   1.760   1.140   6.354 -0.1315 -0.0145  0.2187
   29SAPC    HX 3845   1.685   1.221   6.364  0.3410  0.4228  0.2234
   29SAPC    HY 3846   1.845   1.186   6.301  1.1620  0.9914  3.0092
   29SAPC   O31 3847   1.810   1.088   6.472  0.4109  0.0414 -0.2485
   29SAPC   C31 3848   1.898   1.164   6.537 -0.1966 -0.3937 -0.2386
   29SAPC   O32 3849   1.941   1.272   6.499 -0.6033  0.2207  0.3375
   29SAPC   C32 3850   1.937   1.092   6.665 -0.1286  0.6821 -0.0412
   29SAPC   H2X 3851   2.013   1.012   6.650 -1.3389 -0.1807 -2.1699
   29SAPC   H2Y 3852   1.858   1.034   6.717  1.4732  0.3893  2.2356
   29SAPC   C23 3853   1.484   0.711   6.551  0.1302  0.4571 -0.6091
   29SAPC   H3R 3854   1.589   0.714   6.588 -1.1569 -0.0326  3.6139
   29SAPC   H3S 3855   1.490   0.625   6.481 -0.4956  1.1295 -1.5114
   29SAPC   C24 3856   1.390   0.700   6.673 -0.2989 -0.0878  0.2402
   29SAPC   H4R 3857   1.286   0.719   6.638  0.4765  1.0000 -1.6160
   29SAPC   H4S 3858   1.434   0.787   6.727  1.1265 -0.1775 -0.7302
   29SAPC   C25 3859   1.407   0.585   6.764  0.4461 -0.6094  0.0637
   29SAPC   H5R 3860   1.483   0.514   6.727  1.6934  0.9353 -0.4504
   29SAPC   C26 3861   1.348   0.567   6.885 -0.2330  0.1220  0.9743
   29SAPC   H6R 3862   1.382   0.484   6.948  0.0635 -0.1939  0.4135
   29SAPC   C27 3863   1.244   0.674   6.928 -0.1084  0.6412 -0.5171
   29SAPC   H7R 3864   1.171   0.622   6.993  0.9109  2.1391  1.9856
   29SAPC   H7S 3865   1.183   0.715   6.845 -1.6068 -0.1642  0.1606
   29SAPC   C28 3866   1.318   0.789   6.996  0.1370  1.0674  0.3067
   29SAPC   H8R 3867   1.364   0.877   6.948 -2.2834  1.6526 -1.0729
   29SAPC   C29 3868   1.325   0.797   7.130 -0.0214 -0.4278 -0.0262
   29SAPC   H9R 3869   1.362   0.892   7.170 -3.2305 -0.4899  3.7153
   29SAPC  C210 3870   1.269   0.699   7.225 -0.6754  0.8895  0.1137
   29SAPC  H10R 3871   1.268   0.595   7.185  0.1674  0.5634  0.9228
   29SAPC  H10S 3872   1.162   0.726   7.239 -0.7948 -0.0211  1.1117
   29SAPC  C211 3873   1.358   0.689   7.351 -0.3376 -0.1267 -0.0094
   29SAPC  H11R 3874   1.462   0.659   7.335 -0.7361 -2.0248  0.7130
   29SAPC  C212 3875   1.317   0.718   7.474 -0.4985  0.2453 -0.4886
   29SAPC  H12R 3876   1.396   0.701   7.549 -1.9365 -1.0407  0.7999
   29SAPC  C213 3877   1.186   0.771   7.532  0.8450 -0.0480  0.0814
   29SAPC  H13R 3878   1.130   0.685   7.577  2.6803 -1.3163  0.0452
   29SAPC  H13S 3879   1.116   0.810   7.455  0.0020 -0.1548  0.7728
   29SAPC  C214 3880   1.210   0.886   7.631  0.4417  0.4623 -0.4906
   29SAPC  H14R 3881   1.167   0.983   7.599  2.3369  1.7256  0.6351
   29SAPC  C215 3882   1.261   0.878   7.758  0.1577 -0.5035  0.1384
   29SAPC  H15R 3883   1.283   0.978   7.795 -1.6356  0.2992 -0.7919
   29SAPC  C216 3884   1.308   0.758   7.838  0.0751 -0.7936 -0.4378
   29SAPC  H16R 3885   1.405   0.780   7.887 -0.8580 -0.5067  1.3775
   29SAPC  H16S 3886   1.310   0.662   7.783 -0.3424 -1.3783  0.5420
   29SAPC  C217 3887   1.203   0.736   7.949  0.5107  0.8624  0.1791
   29SAPC  H17R 3888   1.240   0.640   7.991  1.8027  1.0179 -0.5784
   29SAPC  H17S 3889   1.099   0.730   7.910  0.7616  0.7197 -0.4766
   29SAPC  C218 3890   1.206   0.850   8.044  0.3246  0.2383 -0.5642
   29SAPC  H18R 3891   1.179   0.945   7.993 -1.4341  1.1505  1.8951
   29SAPC  H18S 3892   1.305   0.862   8.093 -0.5056  0.2688  1.1818
   29SAPC  C219 3893   1.106   0.814   8.148 -0.4406  0.9278 -0.0139
   29SAPC  H19R 3894   1.124   0.710   8.182 -2.7422 -0.1191 -1.7307
   29SAPC  H19S 3895   1.000   0.812   8.116 -0.7192  0.7475  0.8777
   29SAPC  C220 3896   1.110   0.899   8.277 -0.0064  1.0923  0.5499
   29SAPC  H20R 3897   1.049   0.859   8.360 -1.7375  0.2892 -1.0335
   29SAPC  H20S 3898   1.092   1.007   8.255 -0.0925  0.7677 -1.1580
   29SAPC  H20T 3899   1.214   0.882   8.313 -0.3710  0.2187  1.2053
   29SAPC   C33 3900   1.988   1.194   6.775  0.9049  0.3435  0.3596
   29SAPC   H3X 3901   1.902   1.258   6.803 -0.2042  0.5567 -3.1212
   29SAPC   H3Y 3902   2.069   1.250   6.724  1.0090 -0.3451 -0.2495
   29SAPC   C34 3903   2.036   1.124   6.902  0.4051  0.3589 -0.3538
   29SAPC   H4X 3904   2.146   1.111   6.896  0.3364 -1.9576  1.6171
   29SAPC   H4Y 3905   2.000   1.019   6.905  0.0689  0.4820  0.0435
   29SAPC   C35 3906   1.992   1.190   7.035  0.3324 -0.2443  0.0432
   29SAPC   H5X 3907   1.882   1.188   7.052 -0.2278 -0.9829 -3.0963
   29SAPC   H5Y 3908   2.023   1.297   7.044 -0.7761 -0.0395  2.0657
   29SAPC   C36 3909   2.052   1.120   7.150 -0.3751  0.5185 -0.4565
   29SAPC   H6X 3910   2.162   1.133   7.158 -0.4364  0.3818  0.9228
   29SAPC   H6Y 3911   2.040   1.011   7.136 -0.4700  0.6121 -1.1190
   29SAPC   C37 3912   1.975   1.157   7.281  0.4756  0.1001 -0.5518
   29SAPC   H7X 3913   1.882   1.096   7.279  0.7617 -0.4098  0.8160
   29SAPC   H7Y 3914   1.943   1.262   7.301 -1.4597 -0.6823  0.8443
   29SAPC   C38 3915   2.050   1.103   7.408  0.4825  0.6308 -0.4377
   29SAPC   H8X 3916   2.137   1.170   7.424  0.7421 -0.4204  3.7307
   29SAPC   H8Y 3917   2.083   1.000   7.382 -0.3640 -0.0761  1.1649
   29SAPC   C39 3918   1.969   1.113   7.535  0.1363  1.0133 -0.2433
   29SAPC   H9X 3919   1.877   1.053   7.519  0.4311  0.3628  0.4535
   29SAPC   H9Y 3920   1.931   1.216   7.552 -1.0836  0.1670  2.8342
   29SAPC  C310 3921   2.047   1.073   7.665  0.5808 -0.0031 -0.6272
   29SAPC  H10X 3922   2.129   1.147   7.667 -0.1600  0.8392 -0.8999
   29SAPC  H10Y 3923   2.077   0.966   7.659 -0.4011 -0.2987 -0.4862
   29SAPC  C311 3924   1.964   1.093   7.791  0.2347  0.0354  0.2398
   29SAPC  H11X 3925   1.883   1.017   7.793 -0.6253  0.9078 -0.8947
   29SAPC  H11Y 3926   1.927   1.196   7.807  1.1919  0.2040  1.5628
   29SAPC  C312 3927   2.046   1.073   7.927 -0.5047 -0.7997  0.3208
   29SAPC  H12X 3928   2.127   1.149   7.934 -0.5217 -0.5990 -1.1986
   29SAPC  H12Y 3929   2.083   0.968   7.920 -1.1222 -0.9490 -0.9347
   29SAPC  C313 3930   1.967   1.107   8.051  0.3375  0.0017 -0.1442
   29SAPC  H13X 3931   1.870   1.052   8.054  0.6877 -0.6270  2.2567
   29SAPC  H13Y 3932   1.943   1.215   8.049 -0.2454 -0.1080 -2.7075
   29SAPC  C314 3933   2.043   1.069   8.182 -0.1065  0.4314  0.1402
   29SAPC  H14X 3934   2.138   1.122   8.205 -0.3152 -0.1918  2.6985
   29SAPC  H14Y 3935   2.067   0.961   8.175 -0.6368  0.3108  0.1289
   29SAPC  C315 3936   1.962   1.087   8.307 -0.1939 -0.1848 -0.8363
   29SAPC  H15X 3937   2.002   1.015   8.382 -0.4422  1.1146  0.5909
   29SAPC  H15Y 3938   1.862   1.056   8.269 -0.4402  1.7449 -1.8737
   29SAPC  C316 3939   1.968   1.220   8.375  0.2984  0.1306 -0.7307
   29SAPC  H16X 3940   1.914   1.292   8.310 -1.1859  0.7284  1.0601
   29SAPC  H16Y 3941   2.073   1.252   8.389 -0.5667  2.8166  0.1121
   29SAPC  C317 3942   1.898   1.228   8.512  0.5453  0.2113 -0.3097
   29SAPC  H17X 3943   1.942   1.166   8.593 -0.5471 -4.1250 -2.7064
   29SAPC  H17Y 3944   1.792   1.193   8.511  0.7147 -0.4251  0.9860
   29SAPC  C318 3945   1.890   1.379   8.550 -0.0653  0.4054 -0.0755
   29SAPC  H18X 3946   1.843   1.433   8.465  0.5747 -1.1253 -1.4469
   29SAPC  H18Y 3947   1.989   1.409   8.589 -0.1289 -0.2337  0.6000
   29SAPC  H18Z 3948   1.823   1.399   8.636 -1.0887  1.3903 -1.0666
   30SAPC     N 3949   3.037   2.911   6.248  0.1094  0.2593 -0.0641
   30SAPC   C12 3950   3.045   2.930   6.101 -0.1450 -0.9154  0.1603
   30SAPC  H12A 3951   3.096   3.023   6.079  1.8874 -1.6150  1.5939
   30SAPC  H12B 3952   2.948   2.942   6.054  0.1258 -1.5071 -0.5614
   30SAPC   C13 3953   2.972   2.783   6.296 -0.2205  0.1828 -0.1023
   30SAPC  H13A 3954   2.864   2.785   6.301 -0.2445 -0.6240 -0.1201
   30SAPC  H13B 3955   2.995   2.700   6.231 -2.3760 -0.8558  0.3557
   30SAPC  H13C 3956   3.011   2.766   6.396  1.3750 -0.6859 -0.8353
   30SAPC   C14 3957   3.172   2.923   6.311 -0.2494 -0.1978  0.0207
   30SAPC  H14A 3958   3.242   2.855   6.263  1.0700  0.4772  0.9232
   30SAPC  H14B 3959   3.215   3.021   6.300 -3.0775  1.5705  3.1431
   30SAPC  H14C 3960   3.184   2.899   6.416  3.5270  0.2767 -0.1613
   30SAPC   C15 3961   2.957   3.024   6.313 -0.0631  0.1791  0.8725
   30SAPC  H15A 3962   2.982   3.118   6.265  0.9318 -0.8515 -0.7412
   30SAPC  H15B 3963   2.851   3.017   6.294 -0.1513 -0.1144  1.4586
   30SAPC  H15C 3964   2.973   3.028   6.420  1.8410 -1.9215  0.7412
   30SAPC   C11 3965   3.136   2.836   6.010 -0.3180 -0.2261 -0.0711
   30SAPC  H11A 3966   3.242   2.844   6.042 -0.3982 -1.9727  0.7426
   30SAPC  H11B 3967   3.114   2.859   5.904  1.1286  0.2155 -0.2976
   30SAPC     P 3968   2.982   2.620   5.951 -0.0789 -0.2323 -0.6829
   30SAPC   O13 3969   2.883   2.714   5.896  0.3717 -0.0548  0.1912
   30SAPC   O14 3970   3.035   2.520   5.857 -0.2479  1.0283  0.0994
   30SAPC   O12 3971   3.097   2.705   6.023 -0.4189 -0.1493 -0.4144
   30SAPC   O11 3972   2.930   2.548   6.080 -0.0269 -0.2046 -0.3000
   30SAPC    C1 3973   3.009   2.446   6.143 -0.4813  0.2140  1.1972
   30SAPC    HA 3974   3.070   2.391   6.067 -0.6562  1.7402 -0.1103
   30SAPC    HB 3975   3.066   2.491   6.227 -0.8135  0.6125  1.2094
   30SAPC    C2 3976   2.919   2.333   6.204 -0.0837 -0.0237 -0.3000
   30SAPC    HS 3977   2.853   2.282   6.130 -1.7152  2.8287 -0.9533
   30SAPC   O21 3978   2.829   2.400   6.299 -0.1131  0.1911 -0.0383
   30SAPC   C21 3979   2.740   2.322   6.362  0.3226  0.2780 -0.5547
   30SAPC   O22 3980   2.713   2.204   6.337 -0.4147  0.4839  0.7488
   30SAPC   C22 3981   2.670   2.407   6.463 -0.2914 -0.3437 -0.7352
   30SAPC   H2R 3982   2.576   2.440   6.414 -0.0877  0.6463 -0.4836
   30SAPC   H2S 3983   2.647   2.341   6.549 -0.5184 -1.6005 -1.7184
   30SAPC    C3 3984   3.011   2.231   6.280  0.7700  0.8991  0.1113
   30SAPC    HX 3985   3.087   2.183   6.216 -0.5913 -0.6056 -0.4415
   30SAPC    HY 3986   2.946   2.149   6.317  0.5285 -0.6840 -3.4867
   30SAPC   O31 3987   3.074   2.298   6.389 -0.1463  0.0309 -0.2534
   30SAPC   C31 3988   3.114   2.220   6.486 -0.2739 -0.1949  0.3691
   30SAPC   O32 3989   3.098   2.099   6.485 -0.2553 -0.0395 -0.1674
   30SAPC   C32 3990   3.181   2.310   6.587 -0.7728  0.2820  0.6539
   30SAPC   H2X 3991   3.143   2.413   6.569  1.0378  0.5510 -2.3024
   30SAPC   H2Y 3992   3.289   2.324   6.568 -0.7552 -0.4404  0.2023
   30SAPC   C23 3993   2.754   2.532   6.517  0.2772  0.3378  0.3723
   30SAPC   H3R 3994   2.769   2.614   6.444  2.9124 -0.7646 -0.4575
   30SAPC   H3S 3995   2.862   2.510   6.531  0.7931  0.5331 -2.6037
   30SAPC   C24 3996   2.688   2.594   6.646 -0.6712  0.5311  0.6634
   30SAPC   H4R 3997   2.666   2.518   6.724 -1.7930 -2.7675 -2.5857
   30SAPC   H4S 3998   2.596   2.641   6.607 -0.6399 -2.1232 -3.1632
   30SAPC   C25 3999   2.785   2.705   6.701  0.2247 -0.0380 -0.4737
   30SAPC   H5R 4000   2.799   2.785   6.626 -0.5623  0.9806  0.4315
   30SAPC   C26 4001   2.843   2.710   6.820 -0.6563 -0.1728 -0.2019
   30SAPC   H6R 4002   2.901   2.802   6.837  0.3276 -0.3228 -2.4229
   30SAPC   C27 4003   2.833   2.613   6.938  0.5372  0.0589  0.0057
   30SAPC   H7R 4004   2.913   2.626   7.014  0.1864  1.8104  0.1148
   30SAPC   H7S 4005   2.840   2.513   6.891  3.2939 -0.2858  0.9693
   30SAPC   C28 4006   2.694   2.621   7.002 -1.0679  0.2705 -0.2781
   30SAPC   H8R 4007   2.622   2.570   6.936  0.0168 -1.2554 -0.3409
   30SAPC   C29 4008   2.661   2.674   7.122 -0.0562 -0.1092 -0.6220
   30SAPC   H9R 4009   2.559   2.657   7.159 -0.0204 -0.1310 -0.5338
   30SAPC  C210 4010   2.757   2.742   7.217  0.4730  0.1388 -0.2565
   30SAPC  H10R 4011   2.826   2.815   7.171  0.3454  2.8685  3.4404
   30SAPC  H10S 4012   2.825   2.669   7.267  1.5235 -0.6637 -2.6911
   30SAPC  C211 4013   2.690   2.810   7.333  0.4708  0.7486  0.2065
   30SAPC  H11R 4014   2.666   2.740   7.415 -0.3027  0.8932  0.1110
   30SAPC  C212 4015   2.640   2.934   7.330  0.3261 -0.1733 -0.0479
   30SAPC  H12R 4016   2.575   2.961   7.414  1.3602  0.3248  0.6256
   30SAPC  C213 4017   2.643   3.046   7.225  0.1104 -0.9022  0.3498
   30SAPC  H13R 4018   2.688   3.016   7.128  1.7620  0.3580  0.7043
   30SAPC  H13S 4019   2.712   3.127   7.255 -2.2248  1.9981 -1.5324
   30SAPC  C214 4020   2.513   3.113   7.198  1.2461  0.3587 -0.0418
   30SAPC  H14R 4021   2.454   3.076   7.113  1.2714  0.0815  0.0583
   30SAPC  C215 4022   2.449   3.209   7.268 -0.9932  0.4941 -0.1922
   30SAPC  H15R 4023   2.350   3.252   7.249 -1.0286  0.4338 -0.1443
   30SAPC  C216 4024   2.498   3.277   7.390  0.4047  0.2710  0.2180
   30SAPC  H16R 4025   2.542   3.375   7.364 -0.9486  0.8975  0.2145
   30SAPC  H16S 4026   2.584   3.221   7.433 -0.0441 -0.4982  0.1276
   30SAPC  C217 4027   2.400   3.299   7.509 -0.0190 -0.6086  0.1006
   30SAPC  H17R 4028   2.314   3.357   7.470  0.7512  0.0051 -0.7082
   30SAPC  H17S 4029   2.453   3.372   7.573 -0.3909  0.4089 -0.7344
   30SAPC  C218 4030   2.353   3.171   7.583 -0.4505  0.1674  0.0735
   30SAPC  H18R 4031   2.427   3.137   7.658  0.7072 -0.4847 -1.3012
   30SAPC  H18S 4032   2.330   3.091   7.509 -1.4318 -0.2231  0.7833
   30SAPC  C219 4033   2.235   3.200   7.679 -0.5585  0.8166 -0.1138
   30SAPC  H19R 4034   2.257   3.301   7.720  0.7308  0.8280 -0.7892
   30SAPC  H19S 4035   2.232   3.117   7.752  1.6060 -0.5791 -1.5052
   30SAPC  C220 4036   2.105   3.197   7.611  0.0535  0.4263 -0.5009
   30SAPC  H20R 4037   2.107   3.272   7.529  1.8650 -1.4659 -2.3007
   30SAPC  H20S 4038   2.023   3.218   7.683  0.0476  2.6716 -1.0854
   30SAPC  H20T 4039   2.063   3.102   7.572  0.9217  0.6590 -2.0766
   30SAPC   C33 4040   3.154   2.258   6.730  0.2139  0.5478  0.1165
   30SAPC   H3X 4041   3.180   2.150   6.738 -2.3917 -0.0940  0.9311
   30SAPC   H3Y 4042   3.046   2.257   6.756  0.3488 -2.0871  0.8593
   30SAPC   C34 4043   3.231   2.325   6.848  0.0788  0.3700  0.6509
   30SAPC   H4X 4044   3.201   2.430   6.830 -0.1271 -0.1716 -3.1100
   30SAPC   H4Y 4045   3.340   2.310   6.830 -0.2244 -1.6365  0.2660
   30SAPC   C35 4046   3.208   2.269   6.992  0.1166  0.5564 -0.4476
   30SAPC   H5X 4047   3.262   2.172   7.002  0.1821  0.5493 -0.8633
   30SAPC   H5Y 4048   3.102   2.238   6.996  0.3506 -0.1865  0.5823
   30SAPC   C36 4049   3.250   2.366   7.091 -0.3628  0.5089  0.3243
   30SAPC   H6X 4050   3.187   2.458   7.089 -2.7112 -1.0070 -1.8893
   30SAPC   H6Y 4051   3.355   2.397   7.073 -1.0596  2.3832 -0.9101
   30SAPC   C37 4052   3.227   2.305   7.231  0.1031 -0.2548  0.3158
   30SAPC   H7X 4053   3.278   2.207   7.234 -1.6869 -1.2550 -0.0254
   30SAPC   H7Y 4054   3.117   2.295   7.246 -0.2985  2.2750 -0.4151
   30SAPC   C38 4055   3.293   2.389   7.339  0.2313 -0.5198  0.5994
   30SAPC   H8X 4056   3.249   2.491   7.342 -1.8738 -1.4011  2.3561
   30SAPC   H8Y 4057   3.401   2.390   7.313  0.1602 -0.7975  0.2735
   30SAPC   C39 4058   3.288   2.341   7.489  0.2682  0.6311  0.7155
   30SAPC   H9X 4059   3.354   2.399   7.558 -0.5355 -0.9664  2.9445
   30SAPC   H9Y 4060   3.313   2.233   7.498 -1.1013  0.3856  1.8313
   30SAPC  C310 4061   3.148   2.358   7.541  0.9397 -0.0079 -0.5115
   30SAPC  H10X 4062   3.148   2.318   7.644 -1.4690 -0.9314 -0.8020
   30SAPC  H10Y 4063   3.074   2.298   7.483  1.5775  0.1398 -1.5057
   30SAPC  C311 4064   3.101   2.512   7.540 -0.4810  0.3648 -0.3118
   30SAPC  H11X 4065   3.083   2.541   7.435  0.3192  0.8759 -0.3146
   30SAPC  H11Y 4066   3.173   2.578   7.593 -1.2325  2.0201 -1.2845
   30SAPC  C312 4067   2.957   2.537   7.591  0.7696  0.3574  0.2744
   30SAPC  H12X 4068   2.891   2.512   7.506 -0.4357 -0.5498  1.4589
   30SAPC  H12Y 4069   2.942   2.645   7.617 -0.8481  0.5394 -1.2693
   30SAPC  C313 4070   2.921   2.455   7.719 -0.0686  0.4724  0.5770
   30SAPC  H13X 4071   3.015   2.448   7.778  0.8035 -0.1535 -0.8222
   30SAPC  H13Y 4072   2.904   2.349   7.689 -0.7497  1.0515 -1.2194
   30SAPC  C314 4073   2.799   2.501   7.799 -0.2406  0.2087 -0.3722
   30SAPC  H14X 4074   2.700   2.521   7.753 -1.0364  0.3444  1.2967
   30SAPC  H14Y 4075   2.828   2.600   7.840  0.9229  0.7555 -2.4057
   30SAPC  C315 4076   2.776   2.412   7.924 -0.4435 -0.0243 -0.4848
   30SAPC  H15X 4077   2.872   2.413   7.981 -0.7466  2.5771  0.0905
   30SAPC  H15Y 4078   2.753   2.305   7.905  0.2351 -0.6700  1.9627
   30SAPC  C316 4079   2.666   2.470   8.020  0.2961 -0.2652  0.7291
   30SAPC  H16X 4080   2.662   2.581   8.008 -0.0058 -0.2119  1.2527
   30SAPC  H16Y 4081   2.685   2.453   8.128 -0.7620 -1.3569  0.7728
   30SAPC  C317 4082   2.527   2.424   7.997 -0.0816  0.4217  0.3289
   30SAPC  H17X 4083   2.524   2.314   8.012  0.0745  0.6445  2.2282
   30SAPC  H17Y 4084   2.494   2.435   7.891 -1.4755 -1.9945  0.4403
   30SAPC  C318 4085   2.426   2.495   8.093  0.2557  0.4055  0.5508
   30SAPC  H18X 4086   2.464   2.467   8.194 -0.6479 -0.7854  0.5953
   30SAPC  H18Y 4087   2.323   2.460   8.072  0.5737  0.6768 -1.7198
   30SAPC  H18Z 4088   2.427   2.606   8.088 -1.2913  0.5347  2.0528
   31SAPC     N 4089   3.944   2.682   5.943 -0.1534  0.7059 -0.0458
   31SAPC   C12 4090   4.025   2.557   5.991 -0.2092  0.1073 -0.2082
   31SAPC  H12A 4091   4.079   2.570   6.083  1.1221  2.1115 -1.1985
   31SAPC  H12B 4092   4.104   2.532   5.921 -0.1781  0.9271 -0.4754
   31SAPC   C13 4093   3.879   2.654   5.807  0.1110 -0.0352 -1.0220
   31SAPC  H13A 4094   3.804   2.578   5.820  0.0427  0.1445 -0.3093
   31SAPC  H13B 4095   3.824   2.742   5.777  0.5050  0.5679 -0.0241
   31SAPC  H13C 4096   3.945   2.608   5.735 -0.4973 -0.3815 -1.3719
   31SAPC   C14 4097   3.841   2.725   6.042  0.8014  0.1240 -1.3297
   31SAPC  H14A 4098   3.782   2.635   6.059  1.6019 -0.3203 -0.8498
   31SAPC  H14B 4099   3.880   2.751   6.139  0.6759 -1.3793 -0.8493
   31SAPC  H14C 4100   3.782   2.803   5.997  2.4766  0.1079 -3.7122
   31SAPC   C15 4101   4.042   2.797   5.920  0.1891  0.2494  0.1919
   31SAPC  H15A 4102   4.093   2.822   6.012  0.7573 -1.3915  0.3523
   31SAPC  H15B 4103   4.120   2.768   5.851  0.8412 -0.0845  1.0561
   31SAPC  H15C 4104   3.984   2.884   5.893 -0.7510 -1.0557 -2.3865
   31SAPC   C11 4105   3.935   2.431   6.002  0.1658 -0.9397 -0.1440
   31SAPC  H11A 4106   3.993   2.336   6.001  0.3871 -0.8164 -1.5328
   31SAPC  H11B 4107   3.879   2.410   5.908 -0.6743  0.4709  0.0240
   31SAPC     P 4108   3.886   2.426   6.267 -0.3426  0.2271 -0.2947
   31SAPC   O13 4109   3.858   2.288   6.299 -0.0857 -0.3181 -0.4291
   31SAPC   O14 4110   4.026   2.471   6.289 -0.2819 -0.6659  1.0801
   31SAPC   O12 4111   3.846   2.449   6.112 -0.0512 -0.0201 -0.2532
   31SAPC   O11 4112   3.786   2.523   6.340 -0.2335 -0.3219  0.1365
   31SAPC    C1 4113   3.641   2.514   6.356 -0.4525 -0.0598  0.6346
   31SAPC    HA 4114   3.594   2.594   6.296  0.8801  0.4780  0.2629
   31SAPC    HB 4115   3.587   2.422   6.325 -1.7298 -0.2407  3.1284
   31SAPC    C2 4116   3.592   2.553   6.502 -0.4390  0.8450 -0.1257
   31SAPC    HS 4117   3.664   2.633   6.531 -0.9541  1.3360 -0.1901
   31SAPC   O21 4118   3.609   2.443   6.593 -0.0971 -0.2249 -0.6073
   31SAPC   C21 4119   3.729   2.415   6.643 -0.2444 -0.6034 -0.5679
   31SAPC   O22 4120   3.832   2.479   6.637  0.3881  0.0303  0.8096
   31SAPC   C22 4121   3.700   2.295   6.732 -0.2250  0.2545  0.1519
   31SAPC   H2R 4122   3.621   2.223   6.701  1.2958 -0.8598 -1.3417
   31SAPC   H2S 4123   3.794   2.236   6.723  0.1979  1.0771 -1.0034
   31SAPC    C3 4124   3.445   2.606   6.503  0.6006 -0.3190 -0.3918
   31SAPC    HX 4125   3.373   2.526   6.476 -1.0896  0.5913  1.1670
   31SAPC    HY 4126   3.439   2.688   6.428  2.9715 -0.0836 -0.3901
   31SAPC   O31 4127   3.412   2.645   6.640 -0.3205 -0.0931  0.6557
   31SAPC   C31 4128   3.307   2.729   6.657  0.1506  0.3976 -0.5202
   31SAPC   O32 4129   3.235   2.773   6.566 -0.8188  1.2617 -0.3936
   31SAPC   C32 4130   3.289   2.758   6.806  0.4811 -0.1053  0.3461
   31SAPC   H2X 4131   3.388   2.793   6.842 -0.6104  0.7068  2.7760
   31SAPC   H2Y 4132   3.250   2.669   6.858 -0.2070  0.9898  1.7691
   31SAPC   C23 4133   3.672   2.334   6.882  0.2415 -0.1904 -0.5650
   31SAPC   H3R 4134   3.564   2.358   6.894 -0.0904 -1.1016 -1.4558
   31SAPC   H3S 4135   3.735   2.419   6.914  1.8078 -1.5426  0.0854
   31SAPC   C24 4136   3.704   2.217   6.975 -0.6173  0.5434 -0.6071
   31SAPC   H4R 4137   3.814   2.207   6.990 -0.9328 -0.4533  1.3359
   31SAPC   H4S 4138   3.684   2.117   6.931 -0.1304 -0.7919  2.0383
   31SAPC   C25 4139   3.620   2.208   7.099  0.0744  0.2678 -0.2090
   31SAPC   H5R 4140   3.515   2.190   7.071 -0.1674  0.4882  0.5352
   31SAPC   C26 4141   3.647   2.229   7.232  0.9847  0.8029  0.9137
   31SAPC   H6R 4142   3.571   2.206   7.308  0.6205  1.2586  0.6912
   31SAPC   C27 4143   3.789   2.252   7.284 -0.0476 -0.0075 -0.5746
   31SAPC   H7R 4144   3.788   2.340   7.352  0.3914  0.5110 -1.2176
   31SAPC   H7S 4145   3.862   2.282   7.205  0.5726 -1.6069 -0.6402
   31SAPC   C28 4146   3.826   2.130   7.368  0.7962 -0.3328 -0.4179
   31SAPC   H8R 4147   3.907   2.071   7.323  1.8813  1.2591 -0.6316
   31SAPC   C29 4148   3.772   2.097   7.486 -0.9627  0.4166 -0.1769
   31SAPC   H9R 4149   3.822   2.018   7.543 -2.2298  1.4360  2.5102
   31SAPC  C210 4150   3.663   2.169   7.561  0.4903  0.2204 -0.3417
   31SAPC  H10R 4151   3.564   2.148   7.514 -0.9789 -0.0615  2.5972
   31SAPC  H10S 4152   3.674   2.278   7.549  1.0696  0.0169 -1.8414
   31SAPC  C211 4153   3.651   2.134   7.708  0.4372 -0.2838 -0.3290
   31SAPC  H11R 4154   3.562   2.079   7.742 -0.7447  1.5516 -0.3112
   31SAPC  C212 4155   3.722   2.188   7.807 -0.0094 -0.3003  0.1168
   31SAPC  H12R 4156   3.707   2.150   7.909 -1.6661  1.0786  0.4274
   31SAPC  C213 4157   3.847   2.276   7.788 -0.1418 -0.0833 -0.2225
   31SAPC  H13R 4158   3.827   2.348   7.705 -1.1701 -1.4646 -1.2381
   31SAPC  H13S 4159   3.923   2.208   7.744 -0.2372 -0.2837 -0.0812
   31SAPC  C214 4160   3.891   2.344   7.914  0.2362  0.5128 -0.3242
   31SAPC  H14R 4161   3.824   2.378   7.994  3.3811 -0.0454  2.8062
   31SAPC  C215 4162   4.021   2.366   7.943  0.0296 -0.0796 -0.1800
   31SAPC  H15R 4163   4.034   2.415   8.041 -0.8395 -0.9167  0.3674
   31SAPC  C216 4164   4.143   2.348   7.857 -0.2619 -0.8352 -0.2391
   31SAPC  H16R 4165   4.119   2.307   7.756  1.4746 -0.9641 -0.6354
   31SAPC  H16S 4166   4.204   2.274   7.912  0.6748  0.2122  0.1683
   31SAPC  C217 4167   4.230   2.476   7.842  0.5009 -0.4574  0.9244
   31SAPC  H17R 4168   4.232   2.527   7.940  2.9755 -0.0840  0.7361
   31SAPC  H17S 4169   4.189   2.550   7.769 -0.5336 -1.7537  0.1268
   31SAPC  C218 4170   4.378   2.438   7.819 -0.2254  0.0418  0.7103
   31SAPC  H18R 4171   4.385   2.378   7.726 -0.6767 -0.1386  0.7910
   31SAPC  H18S 4172   4.420   2.375   7.900  0.1177  0.3589  0.7795
   31SAPC  C219 4173   4.481   2.555   7.814  0.3566  0.0402 -0.3879
   31SAPC  H19R 4174   4.477   2.604   7.714  0.2058 -1.6633 -1.2588
   31SAPC  H19S 4175   4.580   2.504   7.818 -0.1339 -0.8655  0.6524
   31SAPC  C220 4176   4.470   2.667   7.920  0.3742  0.4042  0.1449
   31SAPC  H20R 4177   4.552   2.740   7.905 -0.4893  1.1686 -1.1159
   31SAPC  H20S 4178   4.476   2.622   8.021  0.3015 -0.8554 -0.4025
   31SAPC  H20T 4179   4.372   2.720   7.916  0.5760  0.8969  1.2163
   31SAPC   C33 4180   3.185   2.873   6.813  0.4409  0.2347 -0.1110
   31SAPC   H3X 4181   3.091   2.840   6.763  1.0793 -1.5653 -0.2124
   31SAPC   H3Y 4182   3.233   2.952   6.751  1.7039 -1.7157 -1.7850
   31SAPC   C34 4183   3.161   2.914   6.956  0.1575 -0.2357  0.2887
   31SAPC   H4X 4184   3.254   2.885   7.008 -0.8087 -0.4496  1.9843
   31SAPC   H4Y 4185   3.081   2.857   7.009 -1.0435  1.2296  0.1118
   31SAPC   C35 4186   3.129   3.062   6.983  0.3723 -0.2284  0.6945
   31SAPC   H5X 4187   3.024   3.093   6.966  0.8326  0.1036 -1.8816
   31SAPC   H5Y 4188   3.194   3.117   6.912  0.0844  1.8494  1.9696
   31SAPC   C36 4189   3.176   3.099   7.131 -0.0062 -0.0692  0.3122
   31SAPC   H6X 4190   3.157   3.205   7.158 -4.8812 -0.6944  0.3849
   31SAPC   H6Y 4191   3.283   3.077   7.147 -0.0938  0.3149  1.5672
   31SAPC   C37 4192   3.091   3.028   7.235  0.7531  0.1195 -0.4974
   31SAPC   H7X 4193   3.118   2.921   7.228  0.2756 -0.1872  1.6028
   31SAPC   H7Y 4194   2.981   3.028   7.222  0.7352 -1.5426 -0.5574
   31SAPC   C38 4195   3.128   3.064   7.379  0.5853  0.4997  0.0429
   31SAPC   H8X 4196   3.103   3.170   7.398 -2.8496 -0.0417 -0.8152
   31SAPC   H8Y 4197   3.237   3.060   7.399  0.6707  0.9623 -0.3253
   31SAPC   C39 4198   3.066   2.969   7.484 -0.1296 -0.3472  0.0388
   31SAPC   H9X 4199   3.105   2.867   7.464 -3.4054 -1.4047 -1.8060
   31SAPC   H9Y 4200   2.955   2.978   7.474 -0.4121 -3.7509 -1.2734
   31SAPC  C310 4201   3.111   3.004   7.632  0.2901  0.4739 -0.4490
   31SAPC  H10X 4202   3.029   3.067   7.673 -0.2074  0.1396 -0.9059
   31SAPC  H10Y 4203   3.210   3.052   7.618 -0.7869  2.4798 -1.5920
   31SAPC  C311 4204   3.131   2.882   7.721 -0.3085  0.2194  0.5420
   31SAPC  H11X 4205   3.208   2.817   7.674 -0.1457  0.3697  0.6017
   31SAPC  H11Y 4206   3.041   2.821   7.747  0.4988 -1.0924  0.3772
   31SAPC  C312 4207   3.194   2.925   7.861  0.2300 -0.5384  0.0903
   31SAPC  H12X 4208   3.283   2.990   7.848 -0.1591 -0.0197  0.0415
   31SAPC  H12Y 4209   3.234   2.840   7.921  1.0380 -2.8683 -3.4415
   31SAPC  C313 4210   3.089   3.000   7.942  0.2885 -0.1033  1.3798
   31SAPC  H13X 4211   3.002   2.931   7.948 -0.3879  0.2702 -2.0033
   31SAPC  H13Y 4212   3.056   3.087   7.881  1.0392 -1.0330 -0.4441
   31SAPC  C314 4213   3.139   3.048   8.080  0.6031 -0.6003 -0.3850
   31SAPC  H14X 4214   3.218   3.123   8.059 -1.9332  2.5824  0.6093
   31SAPC  H14Y 4215   3.175   2.960   8.136 -1.2771 -0.8998  0.4391
   31SAPC  C315 4216   3.027   3.123   8.165  0.7452  0.2439  0.4736
   31SAPC  H15X 4217   2.934   3.062   8.166  1.8056 -1.4338  1.6203
   31SAPC  H15Y 4218   2.995   3.215   8.112 -1.8854 -0.5132  0.6174
   31SAPC  C316 4219   3.079   3.139   8.309 -0.3093  0.5345 -0.3171
   31SAPC  H16X 4220   3.180   3.185   8.314  0.2348 -0.6996  1.3437
   31SAPC  H16Y 4221   3.083   3.040   8.360 -0.6184  0.3662 -0.6189
   31SAPC  C317 4222   2.976   3.226   8.389 -0.5072 -0.2143  0.4141
   31SAPC  H17X 4223   3.006   3.252   8.493 -3.0559  0.6868  1.0217
   31SAPC  H17Y 4224   2.884   3.165   8.398  0.2757 -1.5302 -0.2385
   31SAPC  C318 4225   2.938   3.364   8.339  0.3824  0.1791 -0.0447
   31SAPC  H18X 4226   3.033   3.422   8.332  1.1741 -0.8530  1.5402
   31SAPC  H18Y 4227   2.864   3.417   8.403 -0.1938 -0.5472 -0.1065
   31SAPC  H18Z 4228   2.890   3.364   8.238 -1.2634 -0.5722  0.7137
   32SAPC     N 4229   4.817   4.813   6.299 -0.8929 -0.5568  0.2943
   32SAPC   C12 4230   4.931   4.735   6.360  0.3433 -0.3472 -0.3817
   32SAPC  H12A 4231   4.981   4.804   6.426  0.2581 -0.4248 -0.2340
   32SAPC  H12B 4232   5.003   4.724   6.280  0.9732  1.9045 -0.1843
   32SAPC   C13 4233   4.725   4.732   6.223 -0.1907  0.3757 -0.5170
   32SAPC  H13A 4234   4.679   4.667   6.296 -2.2700  1.6224 -0.6301
   32SAPC  H13B 4235   4.652   4.800   6.182 -1.2910  0.4695  1.4860
   32SAPC  H13C 4236   4.776   4.670   6.150  0.5965 -1.8769  1.7919
   32SAPC   C14 4237   4.753   4.881   6.419 -0.4918 -0.1308  0.3434
   32SAPC  H14A 4238   4.826   4.941   6.472 -0.6608 -2.5845  3.6889
   32SAPC  H14B 4239   4.673   4.944   6.383  0.4943  0.9804  0.0550
   32SAPC  H14C 4240   4.713   4.805   6.484  0.4274 -1.3468 -0.4696
   32SAPC   C15 4241   4.884   4.922   6.220  0.0519  0.1129 -0.1360
   32SAPC  H15A 4242   4.941   4.988   6.283 -0.7728 -0.1429  0.9025
   32SAPC  H15B 4243   4.940   4.875   6.141 -0.4805 -1.7032  0.5138
   32SAPC  H15C 4244   4.802   4.984   6.184 -0.2900 -0.1178  0.2458
   32SAPC   C11 4245   4.901   4.606   6.439 -0.1519  0.1359 -0.4736
   32SAPC  H11A 4246   4.836   4.635   6.525 -1.4874 -0.0296 -1.4026
   32SAPC  H11B 4247   4.996   4.572   6.485 -0.7867 -1.4779 -0.3083
   32SAPC     P 4248   4.937   4.417   6.258 -0.2843  0.1579 -0.0809
   32SAPC   O13 4249   4.846   4.345   6.170  0.3095  0.6068 -0.1281
   32SAPC   O14 4250   5.046   4.504   6.200  0.3443 -0.7474  0.0539
   32SAPC   O12 4251   4.848   4.503   6.358 -0.3861  0.4099  0.2911
   32SAPC   O11 4252   5.013   4.312   6.352 -0.2610  0.0836  0.0200
   32SAPC    C1 4253   4.919   4.236   6.438 -0.3016 -1.4555  0.5701
   32SAPC    HA 4254   4.845   4.299   6.492  1.0175  1.6825 -1.0543
   32SAPC    HB 4255   4.863   4.170   6.368  1.7065 -2.5239 -0.1168
   32SAPC    C2 4256   4.989   4.152   6.548  0.4551  0.3656 -0.1003
   32SAPC    HS 4257   5.049   4.076   6.494  3.4062  1.9418  0.6851
   32SAPC   O21 4258   4.890   4.105   6.632  0.2003  0.1865 -0.1657
   32SAPC   C21 4259   4.925   4.000   6.703 -0.2648  0.5253  0.0628
   32SAPC   O22 4260   5.025   3.934   6.687  0.3515  0.0112 -0.3272
   32SAPC   C22 4261   4.821   3.971   6.814  0.4792  0.3868 -0.1589
   32SAPC   H2R 4262   4.742   4.049   6.815 -0.2147 -0.2424 -1.9160
   32SAPC   H2S 4263   4.784   3.873   6.780 -0.7620  0.2455  1.4842
   32SAPC    C3 4264   5.090   4.233   6.632 -0.0468 -0.0511 -0.6998
   32SAPC    HX 4265   5.036   4.328   6.651 -0.9641 -0.4396 -1.2961
   32SAPC    HY 4266   5.173   4.261   6.563 -1.4654  0.4181 -2.3003
   32SAPC   O31 4267   5.124   4.181   6.757 -0.5347 -0.3179 -0.0783
   32SAPC   C31 4268   5.255   4.166   6.785 -0.1294 -0.1457 -0.3178
   32SAPC   O32 4269   5.349   4.192   6.709 -0.2751  0.4579 -0.1546
   32SAPC   C32 4270   5.266   4.106   6.919  0.1058  0.4005  0.2736
   32SAPC   H2X 4271   5.376   4.103   6.936  0.0438 -0.3409  0.5918
   32SAPC   H2Y 4272   5.223   4.004   6.910 -0.8821  0.9656 -2.3764
   32SAPC   C23 4273   4.875   3.961   6.956 -0.6368  0.2526  0.0391
   32SAPC   H3R 4274   4.920   4.061   6.977  1.9326 -0.5300 -1.3246
   32SAPC   H3S 4275   4.954   3.883   6.957 -1.8289 -1.0996 -2.2211
   32SAPC   C24 4276   4.771   3.928   7.068 -0.6172  0.2700  0.9950
   32SAPC   H4R 4277   4.732   3.825   7.049 -1.9719  0.8399  0.5911
   32SAPC   H4S 4278   4.683   3.992   7.045 -0.2188  0.9835  1.4144
   32SAPC   C25 4279   4.809   3.944   7.205 -0.4337 -0.2880 -0.6703
   32SAPC   H5R 4280   4.916   3.923   7.218 -0.4842 -0.2005 -0.0741
   32SAPC   C26 4281   4.746   4.011   7.303  0.0013 -0.0962 -0.4619
   32SAPC   H6R 4282   4.803   4.022   7.396  0.2228  1.8640 -0.7800
   32SAPC   C27 4283   4.610   4.075   7.302  0.1825 -0.6074  0.3874
   32SAPC   H7R 4284   4.535   3.999   7.330 -0.5778 -0.9557 -2.2489
   32SAPC   H7S 4285   4.585   4.097   7.196  2.7583 -0.5090 -0.2738
   32SAPC   C28 4286   4.590   4.205   7.375 -0.0214 -0.6176 -0.6376
   32SAPC   H8R 4287   4.614   4.299   7.322  0.4358  0.9158  2.0640
   32SAPC   C29 4288   4.534   4.216   7.499  0.4471  0.4517  0.2771
   32SAPC   H9R 4289   4.524   4.320   7.533  3.8421  0.3135  2.1726
   32SAPC  C210 4290   4.481   4.106   7.582  0.2480  0.4955 -0.3696
   32SAPC  H10R 4291   4.423   4.040   7.513  0.9751  0.0400 -0.5529
   32SAPC  H10S 4292   4.416   4.139   7.665  1.6926  0.5430  0.7723
   32SAPC  C211 4293   4.592   4.027   7.653  0.6426 -0.3629 -0.2821
   32SAPC  H11R 4294   4.663   3.989   7.577  1.1234  2.2482 -1.2228
   32SAPC  C212 4295   4.602   4.000   7.785  0.7604  0.0411  0.1467
   32SAPC  H12R 4296   4.686   3.951   7.836  0.6528 -0.2529  0.0435
   32SAPC  C213 4297   4.503   4.045   7.887  0.1186 -0.0598 -0.5494
   32SAPC  H13R 4298   4.463   4.146   7.865  2.0513  0.5376 -1.4938
   32SAPC  H13S 4299   4.554   4.063   7.985  0.2490 -0.0950 -0.6111
   32SAPC  C214 4300   4.390   3.947   7.901 -0.0618 -0.9697 -0.5620
   32SAPC  H14R 4301   4.322   3.936   7.815 -1.3355 -2.9386  0.6087
   32SAPC  C215 4302   4.359   3.868   8.006 -0.0073  0.3671  0.1897
   32SAPC  H15R 4303   4.259   3.822   8.013  0.0959 -0.0054 -0.6717
   32SAPC  C216 4304   4.430   3.863   8.131 -0.5070  0.3899  0.3837
   32SAPC  H16R 4305   4.528   3.914   8.120 -1.9512  2.8342 -2.5501
   32SAPC  H16S 4306   4.458   3.756   8.146 -2.5205 -0.3102 -0.4779
   32SAPC  C217 4307   4.359   3.925   8.251  0.2288 -1.0058  0.3697
   32SAPC  H17R 4308   4.261   3.879   8.278 -0.6935  1.2099  0.9825
   32SAPC  H17S 4309   4.354   4.034   8.229 -1.6935 -1.3869 -1.4638
   32SAPC  C218 4310   4.440   3.900   8.378 -0.2768 -0.1158 -0.4664
   32SAPC  H18R 4311   4.540   3.948   8.381 -0.1638 -0.1609 -2.3087
   32SAPC  H18S 4312   4.453   3.790   8.386 -0.7085 -0.0828  0.9742
   32SAPC  C219 4313   4.370   3.934   8.508  0.3988 -0.4250 -0.3498
   32SAPC  H19R 4314   4.263   3.955   8.489  0.2188  2.3241  2.8458
   32SAPC  H19S 4315   4.416   4.028   8.544  1.6504 -0.6569 -1.2699
   32SAPC  C220 4316   4.379   3.821   8.613 -0.0109  0.2438 -0.3143
   32SAPC  H20R 4317   4.325   3.839   8.708 -0.8702 -0.7226 -0.6061
   32SAPC  H20S 4318   4.486   3.801   8.635  0.3109  0.7988 -1.2987
   32SAPC  H20T 4319   4.327   3.729   8.578 -0.6082  0.8738 -1.1172
   32SAPC   C33 4320   5.194   4.187   7.028 -0.5351  0.3078  0.4570
   32SAPC   H3X 4321   5.088   4.210   7.003 -0.7695 -1.9759 -0.8670
   32SAPC   H3Y 4322   5.249   4.284   7.025  0.9011 -0.4735  0.4979
   32SAPC   C34 4323   5.193   4.123   7.165 -0.4760  0.0414 -0.4319
   32SAPC   H4X 4324   5.300   4.115   7.196 -0.9773  0.5608  1.6039
   32SAPC   H4Y 4325   5.156   4.019   7.165  1.9383 -0.8906 -0.4774
   32SAPC   C35 4326   5.110   4.211   7.264  0.3554  0.1883 -0.7121
   32SAPC   H5X 4327   5.002   4.212   7.235  0.4741  0.4327 -1.1562
   32SAPC   H5Y 4328   5.147   4.314   7.280 -1.1914  0.3046  3.4059
   32SAPC   C36 4329   5.114   4.156   7.405 -0.9074 -0.2331 -0.1263
   32SAPC   H6X 4330   5.219   4.171   7.440 -0.5104  1.4686 -1.8729
   32SAPC   H6Y 4331   5.088   4.049   7.395 -0.0991 -0.2633 -2.7780
   32SAPC   C37 4332   5.014   4.235   7.492 -0.1681  0.6898 -0.4024
   32SAPC   H7X 4333   4.914   4.222   7.445 -0.0900 -1.7834 -0.0382
   32SAPC   H7Y 4334   5.054   4.338   7.505  0.5224  0.2808  0.8677
   32SAPC   C38 4335   4.997   4.191   7.644 -0.3511 -0.0791 -0.0945
   32SAPC   H8X 4336   5.098   4.212   7.685 -0.0923  0.5173 -0.9855
   32SAPC   H8Y 4337   4.983   4.081   7.645 -1.2322  0.0244  0.5756
   32SAPC   C39 4338   4.905   4.271   7.734  0.2832  0.2081 -0.2730
   32SAPC   H9X 4339   4.802   4.246   7.702 -0.7261  1.0617  2.0932
   32SAPC   H9Y 4340   4.913   4.382   7.729 -0.5451  0.2722 -0.3170
   32SAPC  C310 4341   4.919   4.220   7.882  0.2756  0.3169  0.2313
   32SAPC  H10X 4342   5.022   4.245   7.916  0.1476  0.4931  0.4877
   32SAPC  H10Y 4343   4.910   4.109   7.880 -2.1827  0.4796 -1.4478
   32SAPC  C311 4344   4.802   4.274   7.972 -0.6516 -0.7702  0.1582
   32SAPC  H11X 4345   4.706   4.237   7.930 -0.1604 -0.2735 -1.4608
   32SAPC  H11Y 4346   4.805   4.385   7.960  0.1325 -0.8241 -0.1769
   32SAPC  C312 4347   4.802   4.226   8.117 -0.0858 -0.0520 -0.2202
   32SAPC  H12X 4348   4.909   4.208   8.142 -0.0399  1.9819  1.2994
   32SAPC  H12Y 4349   4.767   4.120   8.124  0.1514 -0.3121 -2.2393
   32SAPC  C313 4350   4.754   4.316   8.222 -0.0519 -0.1568 -0.1763
   32SAPC  H13X 4351   4.668   4.366   8.172  1.0954  2.4196  0.2691
   32SAPC  H13Y 4352   4.818   4.403   8.248 -1.5145  1.5248 -1.9148
   32SAPC  C314 4353   4.712   4.242   8.351  0.2184 -0.2513 -0.1186
   32SAPC  H14X 4354   4.656   4.147   8.331  0.2404  0.1705 -2.3930
   32SAPC  H14Y 4355   4.650   4.310   8.413  3.1641  0.4853  2.2011
   32SAPC  C315 4356   4.828   4.213   8.441 -0.4713  0.4604 -0.3635
   32SAPC  H15X 4357   4.886   4.302   8.473  0.7124  0.1193 -1.5242
   32SAPC  H15Y 4358   4.906   4.163   8.381  0.8778  0.7296  1.0882
   32SAPC  C316 4359   4.792   4.126   8.565  0.7708 -0.4883  0.7813
   32SAPC  H16X 4360   4.732   4.036   8.539 -0.3683  0.6050 -0.5370
   32SAPC  H16Y 4361   4.730   4.192   8.629  2.1216  1.6397  0.0264
   32SAPC  C317 4362   4.913   4.073   8.637  0.3455 -0.6441 -0.4121
   32SAPC  H17X 4363   4.962   4.167   8.672  0.0831  0.0558 -1.8583
   32SAPC  H17Y 4364   4.982   4.018   8.569  2.2561  2.5589 -1.2612
   32SAPC  C318 4365   4.875   3.997   8.759  0.2016  0.2641  0.3532
   32SAPC  H18X 4366   4.818   4.058   8.832  1.9476  1.3878  0.8139
   32SAPC  H18Y 4367   4.964   3.952   8.807  0.0501  0.0928  0.4793
   32SAPC  H18Z 4368   4.801   3.921   8.725 -1.2916  1.5351  0.6373
   33POPC     N 4369   2.498   4.183  10.853  0.4552  0.3663  0.5890
   33POPC   C12 4370   2.350   4.190  10.816 -0.1514 -0.3957  0.1035
   33POPC  H12A 4371   2.324   4.295  10.827 -1.2305 -0.8063  1.9180
   33POPC  H12B 4372   2.302   4.122  10.886 -1.3005 -1.6559 -1.8245
   33POPC   C13 4373   2.557   4.046  10.835 -0.4051  0.3961  0.9937
   33POPC  H13A 4374   2.566   3.994  10.929  3.6083 -0.8815  0.0700
   33POPC  H13B 4375   2.495   3.985  10.770  2.4575 -2.3133  0.5541
   33POPC  H13C 4376   2.658   4.048  10.799 -0.7086 -3.0472 -0.4656
   33POPC   C14 4377   2.581   4.271  10.761  0.1554  0.7936  0.2009
   33POPC  H14A 4378   2.543   4.372  10.754  2.2832  1.5920 -0.8138
   33POPC  H14B 4379   2.689   4.265  10.765  0.1484  0.8008  0.3836
   33POPC  H14C 4380   2.560   4.227  10.665 -0.1213  0.3936  0.4407
   33POPC   C15 4381   2.523   4.235  10.991  0.4218 -0.4779 -0.3413
   33POPC  H15A 4382   2.478   4.332  11.003  0.5539 -0.2846 -1.3675
   33POPC  H15B 4383   2.631   4.244  11.000  0.2958 -0.1852  1.0597
   33POPC  H15C 4384   2.491   4.162  11.065  1.1881 -0.4134  0.0668
   33POPC   C11 4385   2.312   4.152  10.676 -0.7512 -0.3701  0.0460
   33POPC  H11A 4386   2.335   4.231  10.601  3.7230 -1.5599 -0.1497
   33POPC  H11B 4387   2.202   4.150  10.689 -0.4009 -1.7475  3.9709
   33POPC     P 4388   2.454   4.008  10.502 -0.0891  0.0004  0.1010
   33POPC   O13 4389   2.528   3.883  10.507 -0.2822 -0.4684  0.5537
   33POPC   O14 4390   2.530   4.131  10.484 -0.1454  0.0590 -0.0267
   33POPC   O12 4391   2.358   4.022  10.630 -0.2553  0.2658 -0.1962
   33POPC   O11 4392   2.366   3.995  10.374  0.4071 -0.2265 -0.0842
   33POPC    C1 4393   2.296   4.100  10.309  0.0541  0.0731 -0.5218
   33POPC    HA 4394   2.192   4.104  10.349  0.5983  2.9756  0.7938
   33POPC    HB 4395   2.330   4.202  10.336 -3.4856  0.6931  2.4178
   33POPC    C2 4396   2.298   4.085  10.154 -0.5356  0.1101  0.4142
   33POPC    HS 4397   2.236   3.997  10.126 -1.6906  0.3198  2.1561
   33POPC   O21 4398   2.433   4.077  10.109 -0.4627 -0.1839  1.0512
   33POPC   C21 4399   2.481   3.960  10.083 -0.3482  0.8237  0.4705
   33POPC   O22 4400   2.429   3.852  10.105 -0.2422 -0.4622  0.1902
   33POPC   C22 4401   2.627   3.965  10.034 -0.1468 -0.1453 -0.3668
   33POPC   H2R 4402   2.691   3.899  10.097  0.1273  0.8789  0.4655
   33POPC   H2S 4403   2.671   4.067  10.033  1.1878 -0.6966 -1.8219
   33POPC    C3 4404   2.236   4.207  10.077 -0.3012 -0.3765  0.7816
   33POPC    HX 4405   2.288   4.292  10.126 -1.7538  0.7889  0.3624
   33POPC    HY 4406   2.131   4.209  10.112 -0.9760 -0.2193 -1.1322
   33POPC   O31 4407   2.249   4.202   9.933 -0.2432 -0.3502 -0.2739
   33POPC   C31 4408   2.139   4.166   9.867  0.1075 -0.1500  0.5624
   33POPC   O32 4409   2.042   4.111   9.917 -0.0243  0.0075 -0.3505
   33POPC   C32 4410   2.142   4.208   9.722  0.3095 -0.2845 -0.2529
   33POPC   H2X 4411   2.248   4.224   9.695  0.6454 -0.0005  1.1658
   33POPC   H2Y 4412   2.095   4.309   9.722  2.5038  0.7944 -0.0458
   33POPC   C23 4413   2.643   3.919   9.888 -0.3899  0.1903  0.3005
   33POPC   H3R 4414   2.588   3.823   9.876  0.6293 -0.2188 -1.4356
   33POPC   H3S 4415   2.752   3.901   9.875 -0.5381  0.3150 -1.2941
   33POPC   C24 4416   2.579   4.022   9.782  0.0559  0.0771 -0.7443
   33POPC   H4R 4417   2.650   4.105   9.802 -0.4795  0.3552  0.0179
   33POPC   H4S 4418   2.476   4.043   9.816 -0.2969 -1.7858 -0.5616
   33POPC   C25 4419   2.601   3.981   9.641 -0.6707  0.6038 -0.9375
   33POPC   H5R 4420   2.556   3.880   9.627 -1.1684  1.0441 -2.9069
   33POPC   H5S 4421   2.708   3.961   9.618 -0.5767  1.2012 -1.0349
   33POPC   C26 4422   2.543   4.080   9.547 -0.0509 -0.0193 -0.1060
   33POPC   H6R 4423   2.587   4.180   9.564  1.3897 -0.4489 -1.0887
   33POPC   H6S 4424   2.433   4.078   9.535 -0.2919  1.3271  1.5802
   33POPC   C27 4425   2.595   4.054   9.402  0.3529  0.0654 -0.6133
   33POPC   H7R 4426   2.573   3.946   9.387 -0.3867  0.0032  0.8315
   33POPC   H7S 4427   2.704   4.073   9.405  0.3727 -0.1072 -0.1931
   33POPC   C28 4428   2.526   4.141   9.290  0.0762  0.1774 -0.8548
   33POPC   H8R 4429   2.542   4.247   9.322 -0.7314 -0.0584  0.3551
   33POPC   H8S 4430   2.419   4.113   9.301  0.3844 -0.1599  2.0616
   33POPC   C29 4431   2.587   4.135   9.152  0.7522 -1.2053 -0.2657
   33POPC   H91 4432   2.682   4.189   9.142  0.2177 -0.2596 -0.3574
   33POPC  C210 4433   2.541   4.073   9.044 -1.0749  0.8962  0.0834
   33POPC  H101 4434   2.607   4.087   8.957  0.5228 -0.2166  1.0586
   33POPC  C211 4435   2.425   3.979   9.028  0.6041 -0.5110 -0.0543
   33POPC  H11R 4436   2.379   3.978   8.927 -1.6604 -1.0303  0.9095
   33POPC  H11S 4437   2.342   3.996   9.101  1.6257  1.2559  0.7464
   33POPC  C212 4438   2.478   3.829   9.045 -0.5496  0.3231 -0.1891
   33POPC  H12R 4439   2.552   3.796   8.969  1.1182 -1.6597  2.1608
   33POPC  H12S 4440   2.390   3.763   9.029  0.4320 -1.2411  0.6368
   33POPC  C213 4441   2.536   3.802   9.177 -0.5028 -0.6162 -0.6656
   33POPC  H13R 4442   2.460   3.822   9.255 -0.2219 -1.1822 -0.2400
   33POPC  H13S 4443   2.622   3.871   9.189 -1.0619 -0.0745  0.3325
   33POPC  C214 4444   2.592   3.658   9.194  1.3247  0.1169 -0.0145
   33POPC  H14R 4445   2.628   3.624   9.095  0.3543 -0.5838 -0.1441
   33POPC  H14S 4446   2.507   3.592   9.223 -0.5644  2.6933  0.6164
   33POPC  C215 4447   2.700   3.643   9.294 -0.0677  0.1818 -0.0152
   33POPC  H15R 4448   2.680   3.665   9.401  2.0106 -1.2007  0.7151
   33POPC  H15S 4449   2.794   3.698   9.275 -0.5749  0.6750 -1.1756
   33POPC  C216 4450   2.736   3.490   9.304  0.1426 -0.5512 -0.7864
   33POPC  H16R 4451   2.750   3.440   9.206  1.1667 -0.9451 -0.4583
   33POPC  H16S 4452   2.649   3.435   9.345  0.8760 -0.7390  0.5706
   33POPC  C217 4453   2.856   3.471   9.397 -0.0343 -0.0519 -0.2567
   33POPC  H17R 4454   2.928   3.556   9.390  0.2447 -0.0889  1.6210
   33POPC  H17S 4455   2.916   3.385   9.362 -0.2347 -1.1234  1.8515
   33POPC  C218 4456   2.810   3.445   9.545 -0.5517 -0.0210  0.4282
   33POPC  H18R 4457   2.893   3.413   9.611 -0.3100 -1.2873 -0.4583
   33POPC  H18S 4458   2.733   3.365   9.555  0.1546 -0.6798  0.7190
   33POPC  H18T 4459   2.767   3.540   9.585 -3.3371  0.2147 -2.6701
   33POPC   C33 4460   2.078   4.109   9.620  0.1536  0.2118 -0.4191
   33POPC   H3X 4461   1.968   4.118   9.614  0.0774 -0.4368 -0.1213
   33POPC   H3Y 4462   2.107   4.005   9.647 -0.2657 -0.1011 -1.1475
   33POPC   C34 4463   2.120   4.139   9.482  0.0900  0.2567  0.7360
   33POPC   H4X 4464   2.228   4.117   9.464  0.4381  1.5644  1.0698
   33POPC   H4Y 4465   2.093   4.243   9.455 -1.5377  0.4102  2.7494
   33POPC   C35 4466   2.040   4.052   9.380  0.3700  0.2872 -0.7370
   33POPC   H5X 4467   1.932   4.074   9.396 -0.0269 -2.1963  0.5367
   33POPC   H5Y 4468   2.052   3.947   9.414  0.7023  0.5984  0.1436
   33POPC   C36 4469   2.084   4.073   9.235 -0.9541 -0.6980  0.0695
   33POPC   H6X 4470   2.192   4.048   9.234 -0.1045  2.3382  2.0803
   33POPC   H6Y 4471   2.080   4.183   9.229  3.8006 -0.1443  2.6172
   33POPC   C37 4472   1.992   4.007   9.130 -1.0499 -0.6780  0.1654
   33POPC   H7X 4473   1.891   4.054   9.140 -1.1612 -1.1467  1.4268
   33POPC   H7Y 4474   1.994   3.899   9.154  0.9512 -0.7354 -0.1186
   33POPC   C38 4475   2.042   4.032   8.982 -0.1946 -0.5420  0.4329
   33POPC   H8X 4476   2.144   3.994   8.961 -0.2679 -0.9958  0.8902
   33POPC   H8Y 4477   2.064   4.141   8.969 -0.2248 -0.6013 -0.1518
   33POPC   C39 4478   1.942   3.979   8.873 -0.7440 -0.3345 -0.0325
   33POPC   H9X 4479   1.853   4.046   8.879  0.6501  1.5711  0.6236
   33POPC   H9Y 4480   1.908   3.877   8.900  1.0594 -0.9693  0.0112
   33POPC  C310 4481   1.996   3.982   8.726 -0.0932  0.1986 -0.2456
   33POPC  H10X 4482   2.091   3.925   8.717 -1.7742 -2.8029 -0.2857
   33POPC  H10Y 4483   2.008   4.090   8.702 -1.3287  0.1646 -1.0637
   33POPC  C311 4484   1.903   3.921   8.622  0.0997 -0.2935  0.0515
   33POPC  H11X 4485   1.803   3.965   8.643  0.1082  1.2115 -2.5834
   33POPC  H11Y 4486   1.895   3.811   8.637 -0.4700 -0.3645 -0.7236
   33POPC  C312 4487   1.934   3.951   8.473  0.0418  0.3305 -0.5620
   33POPC  H12X 4488   1.899   4.053   8.446 -2.2403 -0.7630 -2.0899
   33POPC  H12Y 4489   1.864   3.891   8.410  0.6182 -1.3612  0.3386
   33POPC  C313 4490   2.083   3.914   8.438  0.0208 -0.3581 -0.0199
   33POPC  H13X 4491   2.114   3.838   8.513  2.4243  0.3512 -0.2211
   33POPC  H13Y 4492   2.148   4.001   8.461 -1.1098  0.1251  1.4788
   33POPC  C314 4493   2.102   3.871   8.294 -0.2547  0.0931  0.3751
   33POPC  H14X 4494   2.208   3.890   8.269 -0.7416  0.6452 -1.4375
   33POPC  H14Y 4495   2.040   3.936   8.228 -0.3151 -0.8172 -0.4715
   33POPC  C315 4496   2.060   3.728   8.261  0.0066  0.2864  0.1400
   33POPC  H15X 4497   2.053   3.719   8.151 -0.9255 -1.1516  0.2928
   33POPC  H15Y 4498   1.960   3.717   8.307  0.2357  0.4011  0.6840
   33POPC  C316 4499   2.152   3.615   8.325 -0.3108 -0.5587 -0.2446
   33POPC  H16X 4500   2.183   3.644   8.427 -1.2333 -1.4774  0.3047
   33POPC  H16Y 4501   2.224   3.596   8.242 -2.9122  0.4927 -2.9380
   33POPC  H16Z 4502   2.093   3.527   8.356 -1.7156  0.1974 -0.6922
   34POPC     N 4503   0.008   4.882  10.673  0.3739  0.0499  0.9290
   34POPC   C12 4504  -0.143   4.870  10.654  0.4130  0.2761 -0.4836
   34POPC  H12A 4505  -0.173   4.793  10.724  3.7350  0.8894  1.8640
   34POPC  H12B 4506  -0.153   4.834  10.553 -3.1142 -1.2153  0.2614
   34POPC   C13 4507   0.066   4.956  10.552  0.0673  0.3129 -0.1398
   34POPC  H13A 4508   0.162   4.996  10.582  0.4123 -0.0827 -0.7070
   34POPC  H13B 4509   0.066   4.893  10.465  1.1012 -0.4190  0.3637
   34POPC  H13C 4510   0.000   5.039  10.533 -1.0693 -0.9541 -2.0580
   34POPC   C14 4511   0.044   4.942  10.808 -0.7546 -0.1602  0.1144
   34POPC  H14A 4512   0.015   5.044  10.827 -0.8994 -0.3806  1.1712
   34POPC  H14B 4513   0.004   4.891  10.895 -0.0922 -1.0510 -0.0833
   34POPC  H14C 4514   0.152   4.945  10.818 -0.7863 -1.6284  1.2224
   34POPC   C15 4515   0.064   4.748  10.684 -0.1696  0.1248  0.6858
   34POPC  H15A 4516   0.032   4.685  10.602  2.2675 -1.3451  0.7780
   34POPC  H15B 4517   0.044   4.696  10.776  0.0099 -0.7737  0.2304
   34POPC  H15C 4518   0.171   4.741  10.681 -0.1267  0.2715  1.6846
   34POPC   C11 4519  -0.234   4.996  10.651 -0.2517 -0.3295  0.7994
   34POPC  H11A 4520  -0.256   5.029  10.755 -1.2175 -1.5709  1.0161
   34POPC  H11B 4521  -0.333   4.966  10.611  1.1199 -1.0267 -2.3451
   34POPC     P 4522  -0.115   5.246  10.641  0.1183 -0.4053 -0.0920
   34POPC   O13 4523   0.009   5.291  10.567  0.6379  0.1879 -0.0058
   34POPC   O14 4524  -0.099   5.232  10.787 -0.0670 -0.1933  0.3012
   34POPC   O12 4525  -0.175   5.108  10.581 -0.5464 -0.3152 -0.6739
   34POPC   O11 4526  -0.219   5.366  10.611  0.3619  0.5810 -0.1664
   34POPC    C1 4527  -0.352   5.331  10.558  0.5939 -0.3948 -0.2885
   34POPC    HA 4528  -0.425   5.397  10.609  1.7364  0.3636  0.4149
   34POPC    HB 4529  -0.380   5.230  10.594 -1.1787  0.6777  1.5517
   34POPC    C2 4530  -0.359   5.339  10.404  0.2315 -0.6803  0.3322
   34POPC    HS 4531  -0.464   5.340  10.368  0.7236 -0.3486 -1.1916
   34POPC   O21 4532  -0.282   5.233  10.339  0.0237 -0.6427  0.3348
   34POPC   C21 4533  -0.350   5.123  10.330  0.1089  0.8698 -0.2094
   34POPC   O22 4534  -0.468   5.111  10.352  0.5676  0.0186 -0.4774
   34POPC   C22 4535  -0.256   5.004  10.288  1.1780 -0.9825 -0.3671
   34POPC   H2R 4536  -0.211   4.957  10.379  1.2389 -0.1500  0.0469
   34POPC   H2S 4537  -0.169   5.042  10.230 -0.0340 -0.9708 -2.2425
   34POPC    C3 4538  -0.296   5.474  10.365  0.0020 -0.0491  0.1512
   34POPC    HX 4539  -0.186   5.463  10.375 -0.1412 -0.8801  0.9130
   34POPC    HY 4540  -0.337   5.545  10.440 -2.1228 -4.0770  3.1909
   34POPC   O31 4541  -0.339   5.507  10.227  0.1995 -0.0442 -0.0867
   34POPC   C31 4542  -0.265   5.600  10.184  0.3301  0.1984  0.2305
   34POPC   O32 4543  -0.187   5.669  10.248  0.6299  0.2408  0.4476
   34POPC   C32 4544  -0.303   5.635  10.041 -0.5966  0.5603 -0.3649
   34POPC   H2X 4545  -0.271   5.740  10.022 -0.8728  0.8826  0.8179
   34POPC   H2Y 4546  -0.413   5.634  10.026 -1.0661 -1.4720  2.3121
   34POPC   C23 4547  -0.320   4.896  10.203  0.3208  0.3534  0.5648
   34POPC   H3R 4548  -0.405   4.841  10.250  0.3549 -1.7655 -1.6270
   34POPC   H3S 4549  -0.235   4.825  10.191  0.3362  0.2103  1.4753
   34POPC   C24 4550  -0.379   4.947  10.073  0.2098  0.7865  0.4526
   34POPC   H4R 4551  -0.293   4.968  10.006 -2.5867 -0.5711 -3.9615
   34POPC   H4S 4552  -0.437   5.039  10.095  0.6572  1.3635 -0.7075
   34POPC   C25 4553  -0.478   4.847  10.005  0.2483 -1.0798  0.1126
   34POPC   H5R 4554  -0.566   4.846  10.073  0.0834  1.4510  0.0294
   34POPC   H5S 4555  -0.423   4.753   9.982  2.6236  0.0539  0.7833
   34POPC   C26 4556  -0.535   4.908   9.874  0.1696 -0.2265 -0.2373
   34POPC   H6R 4557  -0.586   5.004   9.896  2.6444  1.2383 -0.5133
   34POPC   H6S 4558  -0.606   4.842   9.819  0.1749  0.5761 -1.2366
   34POPC   C27 4559  -0.418   4.931   9.775 -0.0011 -0.1948  0.0699
   34POPC   H7R 4560  -0.355   4.842   9.753  1.4994  0.8728 -0.1623
   34POPC   H7S 4561  -0.358   5.015   9.815 -3.0217  2.0243  0.2579
   34POPC   C28 4562  -0.488   4.971   9.644 -0.0154  0.4203 -0.1672
   34POPC   H8R 4563  -0.429   5.051   9.594 -0.9842  0.4967 -1.2330
   34POPC   H8S 4564  -0.580   5.023   9.679  0.1911 -0.3547  1.6571
   34POPC   C29 4565  -0.542   4.872   9.545  0.1529  0.2342 -0.4847
   34POPC   H91 4566  -0.608   4.799   9.593 -0.5720  0.3364 -1.2915
   34POPC  C210 4567  -0.514   4.876   9.413 -0.0284 -0.0660  0.1173
   34POPC  H101 4568  -0.572   4.813   9.344 -0.8727  1.0067 -0.1929
   34POPC  C211 4569  -0.437   4.975   9.334 -0.0544  0.2389  0.2173
   34POPC  H11R 4570  -0.329   4.951   9.334  0.8446  3.6763 -1.6022
   34POPC  H11S 4571  -0.441   5.081   9.364  1.0377  0.6568 -1.0010
   34POPC  C212 4572  -0.471   4.965   9.181 -0.7367  0.5572 -0.1690
   34POPC  H12R 4573  -0.439   5.053   9.121 -1.5218  1.3196  0.4914
   34POPC  H12S 4574  -0.581   4.960   9.167 -0.3960 -3.8264 -3.0451
   34POPC  C213 4575  -0.438   4.828   9.122  0.8885 -0.1416  0.1096
   34POPC  H13R 4576  -0.504   4.755   9.172 -0.3008 -1.9540 -3.7111
   34POPC  H13S 4577  -0.333   4.801   9.147  0.6626  1.0693  2.7195
   34POPC  C214 4578  -0.462   4.830   8.967 -0.3045  0.0401 -0.0289
   34POPC  H14R 4579  -0.414   4.739   8.926  1.3033  1.4625 -1.4781
   34POPC  H14S 4580  -0.395   4.910   8.929 -0.3027 -0.1382 -0.4016
   34POPC  C215 4581  -0.607   4.853   8.910  0.3388 -0.1043  0.0643
   34POPC  H15R 4582  -0.644   4.945   8.961  0.1804 -0.0831 -0.0875
   34POPC  H15S 4583  -0.668   4.768   8.947  1.6819  0.0070  2.7303
   34POPC  C216 4584  -0.616   4.876   8.762  0.4375  0.6055 -0.5601
   34POPC  H16R 4585  -0.555   4.967   8.739 -0.0006  0.7422 -1.2077
   34POPC  H16S 4586  -0.723   4.894   8.739 -0.0706 -0.4665  0.8022
   34POPC  C217 4587  -0.565   4.762   8.675  0.5262  0.2168 -0.5420
   34POPC  H17R 4588  -0.656   4.698   8.674  0.4273  0.3595 -0.7816
   34POPC  H17S 4589  -0.488   4.707   8.733  0.1052 -0.8385 -0.9526
   34POPC  C218 4590  -0.519   4.806   8.537 -0.0724  0.7009 -0.3330
   34POPC  H18R 4591  -0.583   4.892   8.508 -2.0925  0.7167  3.4924
   34POPC  H18S 4592  -0.535   4.720   8.468  0.0193  0.3788  0.0448
   34POPC  H18T 4593  -0.416   4.847   8.535 -0.6249  2.2098  0.1174
   34POPC   C33 4594  -0.235   5.539   9.946 -0.4931 -0.6372 -0.4803
   34POPC   H3X 4595  -0.262   5.432   9.960 -0.1595 -0.6502  0.1469
   34POPC   H3Y 4596  -0.126   5.545   9.971 -0.4132 -2.0700 -0.3625
   34POPC   C34 4597  -0.240   5.584   9.799 -0.1326 -0.8015 -0.0792
   34POPC   H4X 4598  -0.189   5.682   9.793 -2.2386  0.3935  0.4189
   34POPC   H4Y 4599  -0.344   5.609   9.768  0.2078  1.4057  0.4101
   34POPC   C35 4600  -0.185   5.485   9.694 -0.3522 -0.0285 -0.2031
   34POPC   H5X 4601  -0.251   5.395   9.687 -0.1328 -0.2832  0.8655
   34POPC   H5Y 4602  -0.079   5.453   9.706  0.2789  0.5699 -3.3680
   34POPC   C36 4603  -0.189   5.541   9.550  0.3704 -0.4706 -0.6358
   34POPC   H6X 4604  -0.100   5.601   9.520  0.1332 -0.6285 -1.7259
   34POPC   H6Y 4605  -0.273   5.614   9.551  2.1460  1.6886  0.6170
   34POPC   C37 4606  -0.225   5.425   9.455  0.0626 -0.3897 -0.2359
   34POPC   H7X 4607  -0.301   5.360   9.504 -0.0782 -0.1133 -0.0825
   34POPC   H7Y 4608  -0.125   5.380   9.442  1.5597  2.0062  2.0648
   34POPC   C38 4609  -0.275   5.469   9.309  0.7682  0.5620  0.3997
   34POPC   H8X 4610  -0.297   5.375   9.253 -0.9143  0.5631  1.0114
   34POPC   H8Y 4611  -0.205   5.531   9.249  0.5622 -0.6539 -1.1858
   34POPC   C39 4612  -0.414   5.536   9.325 -0.1415  0.2051  0.5519
   34POPC   H9X 4613  -0.407   5.640   9.363  1.5914 -0.3308  1.7941
   34POPC   H9Y 4614  -0.472   5.482   9.403  1.2498 -0.0033  1.4664
   34POPC  C310 4615  -0.496   5.529   9.192  0.2779  0.0478  0.5821
   34POPC  H10X 4616  -0.452   5.599   9.118  0.7412  0.6856  1.4547
   34POPC  H10Y 4617  -0.595   5.579   9.204  0.2103  0.0734 -0.0424
   34POPC  C311 4618  -0.510   5.405   9.107 -0.2075  0.0404  0.7502
   34POPC  H11X 4619  -0.554   5.322   9.167 -0.2700 -0.4038  0.0907
   34POPC  H11Y 4620  -0.408   5.382   9.072 -0.1101  2.4423 -0.7326
   34POPC  C312 4621  -0.613   5.420   8.989 -0.3806  0.0469  0.5937
   34POPC  H12X 4622  -0.567   5.492   8.918  0.1819  0.0914  0.9983
   34POPC  H12Y 4623  -0.707   5.459   9.032 -0.0392  2.1306 -0.3955
   34POPC  C313 4624  -0.617   5.294   8.892  0.0947  0.4381 -0.3667
   34POPC  H13X 4625  -0.680   5.216   8.938  2.6971 -1.4694  0.1698
   34POPC  H13Y 4626  -0.513   5.257   8.891 -0.6372 -1.7090 -0.3524
   34POPC  C314 4627  -0.671   5.334   8.751 -0.1785  0.0678  0.3125
   34POPC  H14X 4628  -0.598   5.396   8.696 -0.5739 -1.7686 -2.4894
   34POPC  H14Y 4629  -0.775   5.373   8.754  0.2497  1.1780  2.1078
   34POPC  C315 4630  -0.680   5.212   8.664 -0.3666  0.3307  0.6187
   34POPC  H15X 4631  -0.737   5.126   8.706 -0.3937 -0.1744 -0.4287
   34POPC  H15Y 4632  -0.578   5.167   8.659 -0.4308  0.3237 -0.8936
   34POPC  C316 4633  -0.725   5.237   8.519 -0.4618 -0.2422 -0.0250
   34POPC  H16X 4634  -0.701   5.150   8.454 -1.1810 -0.4355 -0.0460
   34POPC  H16Y 4635  -0.674   5.329   8.486 -0.9285  0.4850  1.2033
   34POPC  H16Z 4636  -0.833   5.263   8.508 -0.6605  0.0107  2.0795
   35POPC     N 4637   0.886   2.813  11.449 -0.8661  0.4910 -0.7544
   35POPC   C12 4638   0.928   2.785  11.304 -0.7765 -0.1786 -0.2307
   35POPC  H12A 4639   0.934   2.680  11.282  0.0840 -0.7278  2.3039
   35POPC  H12B 4640   1.031   2.816  11.291 -0.4826 -1.1713 -0.3742
   35POPC   C13 4641   0.751   2.767  11.479  0.2346 -0.2481  0.0074
   35POPC  H13A 4642   0.744   2.660  11.474 -1.6077 -0.2125  1.1542
   35POPC  H13B 4643   0.724   2.787  11.581 -2.1264  0.6129 -0.6989
   35POPC  H13C 4644   0.685   2.803  11.401 -0.6114  0.3766  0.9854
   35POPC   C14 4645   0.980   2.736  11.538 -0.3367  0.3448 -0.2650
   35POPC  H14A 4646   0.956   2.747  11.643 -0.7490 -1.0039 -0.2000
   35POPC  H14B 4647   0.970   2.630  11.521 -2.3069  0.4262  0.1684
   35POPC  H14C 4648   1.085   2.757  11.526 -0.0295 -0.5064  0.7317
   35POPC   C15 4649   0.891   2.959  11.493 -0.4274  0.1244  0.6248
   35POPC  H15A 4650   0.862   2.960  11.597  0.4068  2.0520  0.8723
   35POPC  H15B 4651   0.830   3.023  11.430 -0.9362 -1.3946 -0.5014
   35POPC  H15C 4652   0.991   2.995  11.479 -0.3135 -0.3975  0.0052
   35POPC   C11 4653   0.850   2.860  11.195 -0.1510  0.4407  0.4310
   35POPC  H11A 4654   0.906   2.845  11.100  1.4802 -1.5015  1.6278
   35POPC  H11B 4655   0.853   2.969  11.215  3.9937  0.6998 -0.7164
   35POPC     P 4656   0.678   2.681  11.111  0.5032  0.3280  0.2728
   35POPC   O13 4657   0.539   2.671  11.068 -0.2899 -0.1658 -0.0426
   35POPC   O14 4658   0.723   2.560  11.180 -0.1134  0.3544 -0.1853
   35POPC   O12 4659   0.713   2.812  11.185  0.3487  0.1240  0.0367
   35POPC   O11 4660   0.768   2.681  10.983 -0.6792  0.2716 -0.2054
   35POPC    C1 4661   0.735   2.736  10.853 -0.4391  0.2758 -0.4760
   35POPC    HA 4662   0.800   2.826  10.850 -0.0392 -0.0199 -0.8750
   35POPC    HB 4663   0.632   2.776  10.860  0.3061  2.0104  1.8174
   35POPC    C2 4664   0.763   2.635  10.728 -0.0247  0.0158  0.0575
   35POPC    HS 4665   0.754   2.695  10.635  0.7528 -0.5282 -0.3890
   35POPC   O21 4666   0.661   2.535  10.728  0.1908 -0.0518 -0.3060
   35POPC   C21 4667   0.540   2.564  10.675 -0.6846  0.1502  0.3631
   35POPC   O22 4668   0.508   2.682  10.647 -0.2793  0.8110 -0.0859
   35POPC   C22 4669   0.463   2.433  10.641 -0.8850 -0.1293 -0.0426
   35POPC   H2R 4670   0.400   2.405  10.728 -2.1544  1.0919 -0.5257
   35POPC   H2S 4671   0.543   2.358  10.622 -0.8207  0.2304 -1.2690
   35POPC    C3 4672   0.911   2.576  10.746  1.1041  0.5386 -0.2366
   35POPC    HX 4673   0.917   2.512  10.837 -0.3390 -1.1378 -1.2607
   35POPC    HY 4674   0.970   2.670  10.757  2.1281 -0.3481  3.6238
   35POPC   O31 4675   0.943   2.500  10.634 -0.9691 -0.3178  0.1365
   35POPC   C31 4676   1.075   2.513  10.607 -0.5350 -0.2460  0.4609
   35POPC   O32 4677   1.152   2.595  10.659 -0.5443 -0.1924 -0.3190
   35POPC   C32 4678   1.112   2.406  10.503  0.2040  0.1528  0.1084
   35POPC   H2X 4679   1.045   2.320  10.523  2.0664 -1.3746  0.0600
   35POPC   H2Y 4680   1.216   2.376  10.528  0.4159 -0.6787 -1.6574
   35POPC   C23 4681   0.372   2.445  10.510 -0.0142  0.1504 -0.5335
   35POPC   H3R 4682   0.343   2.549  10.488  1.6482  0.8436  0.3216
   35POPC   H3S 4683   0.280   2.385  10.524 -0.8949  1.7286  0.7392
   35POPC   C24 4684   0.455   2.414  10.385 -0.0142  0.8011  1.0786
   35POPC   H4R 4685   0.485   2.309  10.403  1.2939  0.8416 -0.6179
   35POPC   H4S 4686   0.551   2.468  10.367 -0.1875  0.1774 -2.4382
   35POPC   C25 4687   0.364   2.411  10.262  0.5635 -0.3998 -0.5462
   35POPC   H5R 4688   0.314   2.507  10.237  1.8345  0.2980 -0.4637
   35POPC   H5S 4689   0.283   2.345  10.299  0.7396  1.0882  2.8960
   35POPC   C26 4690   0.427   2.367  10.130  0.3389 -0.3409 -0.9001
   35POPC   H6R 4691   0.449   2.259  10.141 -0.1718 -0.3794 -0.1668
   35POPC   H6S 4692   0.524   2.422  10.125 -0.4275  0.9432 -3.1690
   35POPC   C27 4693   0.337   2.405  10.012 -0.3616  0.8946 -0.4215
   35POPC   H7R 4694   0.330   2.513   9.987 -0.7011  1.1871  0.8489
   35POPC   H7S 4695   0.231   2.376  10.032  0.0416 -0.2360  0.1615
   35POPC   C28 4696   0.378   2.333   9.879 -0.0195  0.0512  0.7924
   35POPC   H8R 4697   0.396   2.226   9.902 -2.2965 -0.8142 -0.9877
   35POPC   H8S 4698   0.480   2.375   9.867 -0.2025  0.1514 -0.6209
   35POPC   C29 4699   0.281   2.359   9.764 -0.4547 -0.4565  0.2051
   35POPC   H91 4700   0.192   2.296   9.779 -1.3736  0.7681  0.0559
   35POPC  C210 4701   0.303   2.450   9.668  0.3631 -0.3955 -0.3470
   35POPC  H101 4702   0.216   2.465   9.603 -0.2549 -2.2113  0.0218
   35POPC  C211 4703   0.426   2.529   9.640 -0.1299 -0.4378  0.1250
   35POPC  H11R 4704   0.484   2.494   9.552  0.1085 -0.6983  0.3853
   35POPC  H11S 4705   0.489   2.541   9.731 -1.3852  1.0240  0.8469
   35POPC  C212 4706   0.396   2.678   9.610  0.2077 -0.5389 -0.2090
   35POPC  H12R 4707   0.318   2.678   9.531 -0.7324 -2.7781  0.6210
   35POPC  H12S 4708   0.486   2.727   9.568 -0.4570 -0.1072 -1.1588
   35POPC  C213 4709   0.354   2.758   9.739  0.2403  0.9347 -0.6415
   35POPC  H13R 4710   0.427   2.742   9.822  0.7731  1.8872 -0.9155
   35POPC  H13S 4711   0.252   2.727   9.771  1.1692 -0.6604  0.9904
   35POPC  C214 4712   0.374   2.905   9.719 -0.2764 -0.2347  0.1024
   35POPC  H14R 4713   0.480   2.932   9.699  0.0332 -1.0115  0.6553
   35POPC  H14S 4714   0.359   2.956   9.817  0.2160 -0.3630  0.2455
   35POPC  C215 4715   0.275   2.968   9.613 -0.4278 -0.3292 -0.1245
   35POPC  H15R 4716   0.172   2.946   9.647 -0.0314  0.4312  1.7044
   35POPC  H15S 4717   0.288   2.911   9.519  3.7139 -3.6029  2.0897
   35POPC  C216 4718   0.296   3.123   9.597 -0.0508 -0.0674 -0.3052
   35POPC  H16R 4719   0.337   3.171   9.688 -1.2695  2.4155 -1.0001
   35POPC  H16S 4720   0.196   3.168   9.581 -0.3323  0.3487  2.2018
   35POPC  C217 4721   0.375   3.175   9.478  1.0171  0.2186 -0.0848
   35POPC  H17R 4722   0.343   3.112   9.392 -0.4895  1.2296 -0.3030
   35POPC  H17S 4723   0.486   3.164   9.478  0.8548 -1.6716  0.3311
   35POPC  C218 4724   0.347   3.322   9.453  0.1264 -0.5104  0.5567
   35POPC  H18R 4725   0.361   3.382   9.546  0.5664  2.8140 -1.4949
   35POPC  H18S 4726   0.240   3.329   9.424 -0.0978  1.4897  1.6847
   35POPC  H18T 4727   0.416   3.360   9.376  0.8646 -0.2209  1.3439
   35POPC   C33 4728   1.104   2.468  10.361  0.1993  0.7206  0.3187
   35POPC   H3X 4729   1.002   2.507  10.341 -0.0485 -0.4300 -0.8173
   35POPC   H3Y 4730   1.124   2.385  10.290  0.5902  0.0237  1.2237
   35POPC   C34 4731   1.214   2.570  10.340 -0.4732  0.1082  0.8138
   35POPC   H4X 4732   1.305   2.507  10.344 -0.9032 -0.4909  1.4048
   35POPC   H4Y 4733   1.218   2.646  10.421 -1.0906  1.3511 -0.2618
   35POPC   C35 4734   1.197   2.648  10.207  0.1845  0.2761 -0.2375
   35POPC   H5X 4735   1.290   2.703  10.183  0.3083 -0.2095 -0.8692
   35POPC   H5Y 4736   1.116   2.723  10.222 -1.6709 -1.7995  0.7333
   35POPC   C36 4737   1.167   2.558  10.085 -0.3392  0.9851 -0.1444
   35POPC   H6X 4738   1.062   2.524  10.079  0.1607 -0.4896 -0.9647
   35POPC   H6Y 4739   1.239   2.474  10.097 -1.2432  0.4278  1.7371
   35POPC   C37 4740   1.211   2.629   9.955 -0.5702 -0.3415 -0.5799
   35POPC   H7X 4741   1.321   2.638   9.959 -0.7727  2.6327  2.4000
   35POPC   H7Y 4742   1.173   2.734   9.949  0.0536 -0.0751  0.0989
   35POPC   C38 4743   1.177   2.557   9.820 -0.0956 -0.1998 -0.5937
   35POPC   H8X 4744   1.067   2.573   9.823 -0.0528  0.4438 -1.9030
   35POPC   H8Y 4745   1.197   2.448   9.825 -0.5458 -0.2232  1.6127
   35POPC   C39 4746   1.234   2.637   9.703  0.2990 -1.2916  0.3540
   35POPC   H9X 4747   1.342   2.614   9.710  0.8558  1.2962  2.0088
   35POPC   H9Y 4748   1.220   2.747   9.708 -1.3554 -1.5290  1.9183
   35POPC  C310 4749   1.174   2.604   9.568 -0.6513 -0.7709  0.4522
   35POPC  H10X 4750   1.067   2.613   9.594 -0.6168  0.1846  0.3133
   35POPC  H10Y 4751   1.188   2.500   9.533  0.4828 -0.0198 -1.5096
   35POPC  C311 4752   1.208   2.691   9.454 -0.0912  0.0951 -0.3383
   35POPC  H11X 4753   1.316   2.707   9.430  0.3978 -1.9629  0.3081
   35POPC  H11Y 4754   1.178   2.797   9.471  2.1674  0.9849 -1.4375
   35POPC  C312 4755   1.153   2.638   9.323 -0.2797  0.0673  0.3245
   35POPC  H12X 4756   1.042   2.644   9.332 -0.3088 -0.2025  0.1423
   35POPC  H12Y 4757   1.184   2.532   9.315 -1.9178 -0.4698  0.7772
   35POPC  C313 4758   1.192   2.718   9.205  0.1763  0.3152  0.1288
   35POPC  H13X 4759   1.301   2.737   9.205  0.1672  0.4747  1.6222
   35POPC  H13Y 4760   1.142   2.817   9.215 -0.0253  0.3204 -0.7869
   35POPC  C314 4761   1.130   2.649   9.070 -0.6187 -0.4355 -0.9159
   35POPC  H14X 4762   1.022   2.634   9.092 -0.2039 -0.9695  0.8960
   35POPC  H14Y 4763   1.175   2.547   9.075  3.7298  1.3564  1.5123
   35POPC  C315 4764   1.162   2.731   8.951  0.1028  0.4281 -0.0224
   35POPC  H15X 4765   1.091   2.816   8.944 -0.1116  0.2975  0.5493
   35POPC  H15Y 4766   1.155   2.669   8.858 -0.2518 -1.0954  0.9785
   35POPC  C316 4767   1.306   2.788   8.950  0.2773 -0.3604 -0.4185
   35POPC  H16X 4768   1.379   2.704   8.939  0.9427  0.3020 -1.1625
   35POPC  H16Y 4769   1.335   2.857   9.033  0.4557  0.3552 -1.0660
   35POPC  H16Z 4770   1.315   2.856   8.863  0.9745  1.1233  0.7747
   36POPC     N 4771   1.691   2.113  11.197 -0.0141  0.6159  0.3906
   36POPC   C12 4772   1.736   2.081  11.055 -0.0050 -0.1621  0.4805
   36POPC  H12A 4773   1.646   2.059  10.999 -1.4265 -0.1082  2.6067
   36POPC  H12B 4774   1.788   1.987  11.052  1.2671  0.4601  1.8175
   36POPC   C13 4775   1.623   1.996  11.255  0.6475  0.1622  0.3760
   36POPC  H13A 4776   1.539   1.972  11.193  2.3472 -1.8636 -1.2924
   36POPC  H13B 4777   1.688   1.910  11.263 -0.6746 -0.7513  1.8928
   36POPC  H13C 4778   1.591   2.029  11.353  1.1407  0.3005  0.4960
   36POPC   C14 4779   1.818   2.135  11.272  0.0749  0.5787  0.5336
   36POPC  H14A 4780   1.890   2.054  11.270  1.5659  1.7497  3.0843
   36POPC  H14B 4781   1.874   2.221  11.241  0.0827  0.8970  1.4118
   36POPC  H14C 4782   1.795   2.150  11.376 -0.2194 -1.1022  0.7513
   36POPC   C15 4783   1.599   2.227  11.211 -0.0322  0.2581  0.3296
   36POPC  H15A 4784   1.501   2.204  11.170 -0.0356 -0.0378  0.5023
   36POPC  H15B 4785   1.633   2.319  11.166  0.1519 -0.0776 -0.2274
   36POPC  H15C 4786   1.586   2.253  11.315 -1.1432  0.0027  0.2765
   36POPC   C11 4787   1.815   2.194  10.977 -0.2982  0.0768  0.4028
   36POPC  H11A 4788   1.795   2.299  11.006  1.6610  1.1058 -1.6757
   36POPC  H11B 4789   1.779   2.187  10.872  1.0492 -1.4154  0.0003
   36POPC     P 4790   2.029   2.046  10.917  0.1191  0.0554 -0.3850
   36POPC   O13 4791   1.980   1.917  10.985 -0.2015 -0.1919  0.5425
   36POPC   O14 4792   2.179   2.065  10.920  0.4134  0.4793 -0.2662
   36POPC   O12 4793   1.959   2.172  10.978 -0.1828 -0.9275 -0.4538
   36POPC   O11 4794   1.987   2.052  10.763  0.3822  0.3905  0.3476
   36POPC    C1 4795   1.930   1.938  10.701 -0.1218 -0.0922  0.3545
   36POPC    HA 4796   1.878   1.966  10.606  1.9602 -2.6672 -1.6900
   36POPC    HB 4797   1.863   1.884  10.771 -0.5054 -0.5266 -0.3379
   36POPC    C2 4798   2.039   1.836  10.657 -0.1890  0.3929 -0.0303
   36POPC    HS 4799   2.081   1.806  10.756  0.9314  2.8877  0.3517
   36POPC   O21 4800   2.136   1.905  10.575 -0.3389 -0.4892 -0.0130
   36POPC   C21 4801   2.259   1.861  10.583  0.1362 -0.5108  0.3774
   36POPC   O22 4802   2.297   1.787  10.669 -0.2214  0.2295  0.2978
   36POPC   C22 4803   2.334   1.922  10.471  0.4348 -0.3341  0.3533
   36POPC   H2R 4804   2.418   1.975  10.519 -0.4694  0.5897  0.9580
   36POPC   H2S 4805   2.274   2.007  10.431 -2.1294 -1.8561  0.7091
   36POPC    C3 4806   1.985   1.713  10.580 -0.0031 -0.0688 -0.1901
   36POPC    HX 4807   1.972   1.746  10.475 -0.0398 -1.2768 -0.5727
   36POPC    HY 4808   1.883   1.697  10.621 -0.1967 -0.0480 -0.6569
   36POPC   O31 4809   2.075   1.606  10.594 -0.0968 -0.2173 -0.6985
   36POPC   C31 4810   2.022   1.500  10.541  0.0835  0.2809  0.1531
   36POPC   O32 4811   1.903   1.483  10.516 -0.9601  0.3729  0.1701
   36POPC   C32 4812   2.138   1.411  10.506  0.3387 -1.1238  0.1212
   36POPC   H2X 4813   2.153   1.350  10.598 -0.8668  2.1304  2.6949
   36POPC   H2Y 4814   2.231   1.465  10.479 -0.1572 -0.2721  0.0734
   36POPC   C23 4815   2.373   1.812  10.369 -0.0629  0.1662  0.1542
   36POPC   H3R 4816   2.290   1.803  10.296  0.1584  1.9518 -0.3544
   36POPC   H3S 4817   2.404   1.717  10.419  2.6135 -0.0474 -1.6713
   36POPC   C24 4818   2.499   1.839  10.287  0.0790  0.5514 -0.6514
   36POPC   H4R 4819   2.581   1.865  10.358  0.5732  0.0702 -1.0390
   36POPC   H4S 4820   2.485   1.925  10.218 -1.4900 -1.5029 -3.0696
   36POPC   C25 4821   2.555   1.720  10.212  1.1024 -0.1141  0.1707
   36POPC   H5R 4822   2.556   1.630  10.277  0.2117 -0.8370 -0.7765
   36POPC   H5S 4823   2.660   1.733  10.178  1.9707 -0.9921  2.3784
   36POPC   C26 4824   2.465   1.658  10.102 -0.2598  0.4130  0.0900
   36POPC   H6R 4825   2.374   1.609  10.144  0.8102 -1.5466  0.2446
   36POPC   H6S 4826   2.521   1.573  10.057 -2.4572 -0.8468 -0.3946
   36POPC   C27 4827   2.425   1.753   9.979  0.0736  0.3009  0.7903
   36POPC   H7R 4828   2.504   1.830   9.962  1.3614 -1.2038 -0.3358
   36POPC   H7S 4829   2.344   1.817  10.020 -0.7487 -0.1166 -0.1501
   36POPC   C28 4830   2.369   1.687   9.849  0.0929 -0.0238 -0.8715
   36POPC   H8R 4831   2.290   1.749   9.802  1.6674  1.3015 -1.8366
   36POPC   H8S 4832   2.320   1.592   9.880 -2.2245  0.3915 -2.9252
   36POPC   C29 4833   2.482   1.657   9.754 -0.3078 -0.1664  0.4170
   36POPC   H91 4834   2.582   1.669   9.799 -0.8940 -1.2178  2.0918
   36POPC  C210 4835   2.463   1.602   9.626  0.6202  0.7915 -0.1602
   36POPC  H101 4836   2.549   1.580   9.561 -0.5465 -0.9589 -1.1976
   36POPC  C211 4837   2.325   1.569   9.567 -0.2789  0.3367 -0.3152
   36POPC  H11R 4838   2.250   1.582   9.648  0.2068 -2.4286  0.7048
   36POPC  H11S 4839   2.342   1.465   9.531  1.8198  0.9054 -1.1294
   36POPC  C212 4840   2.288   1.648   9.445 -0.4766  0.8904  0.8307
   36POPC  H12R 4841   2.285   1.757   9.468  1.1583  1.6084 -1.8929
   36POPC  H12S 4842   2.192   1.613   9.403  0.6401  0.7590 -1.8288
   36POPC  C213 4843   2.393   1.629   9.336  0.0993  0.2450  0.1154
   36POPC  H13R 4844   2.386   1.523   9.303  0.0564  0.1025  0.5665
   36POPC  H13S 4845   2.495   1.642   9.376  0.1854 -1.8335  0.6987
   36POPC  C214 4846   2.368   1.703   9.198  0.0400 -0.1476 -0.0716
   36POPC  H14R 4847   2.369   1.812   9.218 -0.1008 -0.2212  0.3450
   36POPC  H14S 4848   2.269   1.678   9.155 -1.7599  0.0304  3.5932
   36POPC  C215 4849   2.464   1.656   9.085 -0.8425 -0.5628 -1.0448
   36POPC  H15R 4850   2.534   1.584   9.131 -2.1140 -0.5920  1.0050
   36POPC  H15S 4851   2.518   1.747   9.050  0.0559  1.0710  3.7498
   36POPC  C216 4852   2.389   1.581   8.983  0.2201  0.1961 -0.6355
   36POPC  H16R 4853   2.313   1.653   8.948 -1.3165 -0.6563  0.7930
   36POPC  H16S 4854   2.340   1.488   9.020  1.5621 -0.1491  0.3816
   36POPC  C217 4855   2.477   1.546   8.860 -0.7833 -0.0921  0.8440
   36POPC  H17R 4856   2.550   1.465   8.880  0.3875  0.7483  0.1585
   36POPC  H17S 4857   2.535   1.637   8.831 -2.4818 -0.0105 -2.9501
   36POPC  C218 4858   2.398   1.501   8.733  0.3054  0.0917 -0.4205
   36POPC  H18R 4859   2.340   1.578   8.679  0.0724 -0.7393 -1.3778
   36POPC  H18S 4860   2.323   1.429   8.774 -1.1633  2.6296  1.6926
   36POPC  H18T 4861   2.470   1.467   8.655  0.7615  3.5159 -1.6408
   36POPC   C33 4862   2.106   1.309  10.387 -0.1078  0.4601  0.1606
   36POPC   H3X 4863   2.000   1.277  10.397 -0.7366  1.7330 -1.8466
   36POPC   H3Y 4864   2.179   1.226  10.397 -0.4747 -0.2200 -2.2157
   36POPC   C34 4865   2.135   1.366  10.250  0.4088 -0.9677 -0.5168
   36POPC   H4X 4866   2.120   1.282  10.180 -0.4176 -1.4396  0.2102
   36POPC   H4Y 4867   2.239   1.404  10.241  0.0034  0.4076  0.2661
   36POPC   C35 4868   2.052   1.484  10.217 -0.7382 -0.3904 -0.0280
   36POPC   H5X 4869   2.073   1.559  10.296  0.8116  0.2957 -1.0417
   36POPC   H5Y 4870   1.946   1.458  10.236 -1.5453  2.4008 -0.2462
   36POPC   C36 4871   2.075   1.539  10.076 -0.2445 -0.4484 -0.5849
   36POPC   H6X 4872   2.178   1.580  10.066 -0.2992  0.2922  1.2996
   36POPC   H6Y 4873   2.011   1.630  10.078 -0.0130 -0.2657  1.8031
   36POPC   C37 4874   2.027   1.444   9.971 -0.3408 -0.2678  0.7427
   36POPC   H7X 4875   1.928   1.400   9.995 -0.2825 -1.4318 -0.9399
   36POPC   H7Y 4876   2.109   1.369   9.967  1.7838  1.9184  1.3072
   36POPC   C38 4877   2.003   1.516   9.837  0.1323 -1.4234  0.6622
   36POPC   H8X 4878   2.093   1.574   9.810  2.0749 -3.3641  2.6245
   36POPC   H8Y 4879   1.921   1.589   9.856  0.2948 -1.7316  2.8350
   36POPC   C39 4880   1.934   1.431   9.725 -0.3107 -0.1897  0.4080
   36POPC   H9X 4881   1.834   1.395   9.755 -0.5448 -1.1306 -1.3893
   36POPC   H9Y 4882   2.005   1.348   9.708 -0.8104 -0.2748 -1.4782
   36POPC  C310 4883   1.920   1.512   9.602 -0.2732  0.2386  0.5084
   36POPC  H10X 4884   2.016   1.549   9.561 -0.2661  1.0807  1.2483
   36POPC  H10Y 4885   1.854   1.600   9.617 -0.9678  0.0864 -1.4052
   36POPC  C311 4886   1.866   1.429   9.489  0.4035  0.2285 -0.1404
   36POPC  H11X 4887   1.760   1.406   9.513 -0.6506  3.2417 -1.4208
   36POPC  H11Y 4888   1.913   1.331   9.467 -1.8299 -0.1381 -4.0905
   36POPC  C312 4889   1.872   1.516   9.358  0.2686  0.3194 -0.9699
   36POPC  H12X 4890   1.974   1.558   9.343 -0.0192  1.9973  1.1835
   36POPC  H12Y 4891   1.808   1.606   9.367 -0.9747 -0.6757  0.6188
   36POPC  C313 4892   1.834   1.440   9.233 -0.2218  0.7499  0.4970
   36POPC  H13X 4893   1.725   1.428   9.251 -0.5556 -1.1360 -2.2570
   36POPC  H13Y 4894   1.884   1.342   9.225 -2.6334 -0.4021 -2.0025
   36POPC  C314 4895   1.856   1.514   9.100  0.9949  0.0966  0.4926
   36POPC  H14X 4896   1.816   1.617   9.113 -1.8682 -0.9949  1.1993
   36POPC  H14Y 4897   1.804   1.460   9.018 -1.6406  0.8486  1.5533
   36POPC  C315 4898   2.004   1.516   9.056 -0.5358 -0.7300 -0.0702
   36POPC  H15X 4899   2.047   1.413   9.062  2.7822  0.6367  3.0239
   36POPC  H15Y 4900   2.071   1.570   9.126 -0.0498  1.6553 -2.2363
   36POPC  C316 4901   2.020   1.579   8.919  0.1755  0.0864 -0.1189
   36POPC  H16X 4902   1.942   1.535   8.853 -0.2587 -0.0112  0.4465
   36POPC  H16Y 4903   2.119   1.562   8.871 -0.3582  1.6057 -1.8754
   36POPC  H16Z 4904   2.015   1.689   8.914  1.2062  0.1104 -1.0886
   37POPC     N 4905   6.010   4.277   6.299 -0.4485 -0.2009 -0.5622
   37POPC   C12 4906   6.094   4.404   6.297 -0.3713 -0.3584 -0.8428
   37POPC  H12A 4907   6.030   4.490   6.302  0.2705  0.0838  2.1229
   37POPC  H12B 4908   6.159   4.403   6.211  1.8443  2.8762  0.5663
   37POPC   C13 4909   5.893   4.282   6.395 -0.6016 -0.7350  0.3138
   37POPC  H13A 4910   5.818   4.348   6.355 -0.9679 -1.0000  0.5632
   37POPC  H13B 4911   5.848   4.186   6.415 -3.1052  0.5812  1.3672
   37POPC  H13C 4912   5.918   4.313   6.495 -1.4571 -1.9204  0.9158
   37POPC   C14 4913   5.949   4.260   6.159 -0.3571 -0.5834  0.0288
   37POPC  H14A 4914   6.028   4.263   6.086 -0.0967  0.1461  0.3270
   37POPC  H14B 4915   5.887   4.171   6.156 -0.1637 -0.7072 -0.2874
   37POPC  H14C 4916   5.897   4.352   6.137  0.3868 -0.3062 -0.5798
   37POPC   C15 4917   6.092   4.153   6.328 -0.4252  0.3446 -0.5491
   37POPC  H15A 4918   6.177   4.138   6.264  0.1613 -1.5312  0.5858
   37POPC  H15B 4919   6.032   4.066   6.304 -1.8860  1.3554 -0.6611
   37POPC  H15C 4920   6.116   4.143   6.433  1.8667 -2.1856 -1.1847
   37POPC   C11 4921   6.194   4.426   6.411  0.1484 -0.3951 -0.4224
   37POPC  H11A 4922   6.135   4.419   6.504 -0.6883  0.1597 -0.9058
   37POPC  H11B 4923   6.226   4.532   6.413  2.0150 -0.9202  1.1716
   37POPC     P 4924   6.395   4.331   6.539  0.3967  0.0963 -0.3424
   37POPC   O13 4925   6.427   4.466   6.585 -0.0729 -0.1211 -0.0852
   37POPC   O14 4926   6.513   4.244   6.514  0.9084  0.6014 -0.4417
   37POPC   O12 4927   6.305   4.342   6.409 -0.2603 -0.2349  0.5035
   37POPC   O11 4928   6.294   4.272   6.648 -0.5422  0.6957  0.1358
   37POPC    C1 4929   6.242   4.137   6.645 -0.5155 -0.4022 -0.9672
   37POPC    HA 4930   6.272   4.082   6.553  1.9302 -3.4331  1.4064
   37POPC    HB 4931   6.132   4.146   6.651 -0.6150  0.4149 -3.1383
   37POPC    C2 4932   6.303   4.060   6.765  0.1350 -0.0631 -0.2534
   37POPC    HS 4933   6.251   3.962   6.766  0.2473 -0.1809  2.7744
   37POPC   O21 4934   6.278   4.120   6.889  0.3364  0.0583 -0.3631
   37POPC   C21 4935   6.152   4.120   6.927  0.0692 -0.3062  0.4994
   37POPC   O22 4936   6.053   4.069   6.872  0.4892  0.0632 -0.1275
   37POPC   C22 4937   6.143   4.193   7.062  0.3914  0.4959  0.3034
   37POPC   H2R 4938   6.034   4.213   7.074  0.5262  1.3681  0.1709
   37POPC   H2S 4939   6.182   4.295   7.041 -0.8106  0.5730 -1.7768
   37POPC    C3 4940   6.454   4.044   6.756  0.0680  0.3761  0.1348
   37POPC    HX 4941   6.499   4.145   6.751  0.1098  0.4182  1.0632
   37POPC    HY 4942   6.470   3.989   6.661  0.6393 -2.2427  1.6514
   37POPC   O31 4943   6.501   3.970   6.870  0.6906  0.2058 -0.5932
   37POPC   C31 4944   6.544   4.042   6.975  0.7693 -0.2457  0.1934
   37POPC   O32 4945   6.580   4.161   6.967  0.0801 -0.5201  0.2010
   37POPC   C32 4946   6.550   3.956   7.102 -0.6745  0.0504 -0.7437
   37POPC   H2X 4947   6.626   3.878   7.078 -0.1984  0.2854 -0.0353
   37POPC   H2Y 4948   6.445   3.920   7.112  0.1483 -2.5843 -0.7884
   37POPC   C23 4949   6.230   4.121   7.166  0.3703  0.3619 -0.1077
   37POPC   H3R 4950   6.338   4.146   7.155  0.1586  0.9333 -1.0324
   37POPC   H3S 4951   6.214   4.012   7.159 -4.1776  0.9022 -1.3600
   37POPC   C24 4952   6.178   4.159   7.307 -0.5431 -0.0882  0.2269
   37POPC   H4R 4953   6.083   4.106   7.328  0.1051 -1.3711 -0.0115
   37POPC   H4S 4954   6.162   4.268   7.296 -1.0560 -0.1301  0.5349
   37POPC   C25 4955   6.286   4.151   7.415  0.0737  0.2004 -0.2754
   37POPC   H5R 4956   6.387   4.187   7.383  1.4361 -1.9055  1.3696
   37POPC   H5S 4957   6.311   4.042   7.420  0.3550  0.3247  1.4233
   37POPC   C26 4958   6.236   4.212   7.543  0.3024 -0.1122 -0.4814
   37POPC   H6R 4959   6.137   4.169   7.567  1.1649 -1.4374  0.8999
   37POPC   H6S 4960   6.235   4.319   7.514  3.6118  0.0856 -0.2438
   37POPC   C27 4961   6.326   4.197   7.664 -0.1936  0.2814 -0.3800
   37POPC   H7R 4962   6.423   4.236   7.626 -1.7571  2.8631 -1.9973
   37POPC   H7S 4963   6.332   4.090   7.693  0.7627 -0.0856 -1.8436
   37POPC   C28 4964   6.283   4.284   7.788 -0.5388  0.7941  0.7805
   37POPC   H8R 4965   6.233   4.379   7.757 -0.2632  0.0978 -2.0315
   37POPC   H8S 4966   6.378   4.313   7.838 -1.3287  1.1918  2.0966
   37POPC   C29 4967   6.190   4.206   7.877  0.9700 -0.4780 -0.7045
   37POPC   H91 4968   6.086   4.211   7.841  1.9242  2.0046 -3.5666
   37POPC  C210 4969   6.223   4.164   8.002  0.5482 -0.0059  0.9046
   37POPC  H101 4970   6.141   4.113   8.056 -0.1933  2.0362  1.8220
   37POPC  C211 4971   6.359   4.174   8.058 -1.1429  0.1113  0.5257
   37POPC  H11R 4972   6.396   4.275   8.083  1.5175 -0.0391 -2.2395
   37POPC  H11S 4973   6.437   4.137   7.987 -1.4037  0.0078  0.2900
   37POPC  C212 4974   6.382   4.080   8.185 -0.4436 -0.1151  0.3744
   37POPC  H12R 4975   6.487   4.091   8.221 -0.5150  0.2122  0.4884
   37POPC  H12S 4976   6.363   3.972   8.173 -1.7514  0.1170  0.2678
   37POPC  C213 4977   6.290   4.124   8.300 -0.2016 -0.0311 -0.2746
   37POPC  H13R 4978   6.184   4.121   8.268  0.6622  0.0362 -3.6234
   37POPC  H13S 4979   6.319   4.230   8.319  2.4149 -0.6575 -0.2767
   37POPC  C214 4980   6.311   4.053   8.438  0.0688  0.1553  0.1233
   37POPC  H14R 4981   6.296   3.944   8.427 -0.4735  0.2869 -0.4935
   37POPC  H14S 4982   6.235   4.096   8.507  0.6793 -0.4330  1.1985
   37POPC  C215 4983   6.451   4.080   8.499 -0.1636  0.0467 -0.0742
   37POPC  H15R 4984   6.448   4.187   8.530  0.5408 -0.3396  1.4287
   37POPC  H15S 4985   6.537   4.064   8.431 -0.1951  3.4054 -1.1119
   37POPC  C216 4986   6.476   3.995   8.623  0.4400  0.1289 -0.0220
   37POPC  H16R 4987   6.485   3.889   8.593 -0.2941 -0.2592  1.1081
   37POPC  H16S 4988   6.388   4.003   8.690  0.3131 -2.0131  0.1171
   37POPC  C217 4989   6.595   4.042   8.697  1.1480 -0.2010  0.2118
   37POPC  H17R 4990   6.560   4.143   8.725 -1.1799 -0.2522 -2.0782
   37POPC  H17S 4991   6.669   4.041   8.614 -1.2552 -1.0385 -2.0515
   37POPC  C218 4992   6.649   3.955   8.810 -0.1376  0.3018 -0.0761
   37POPC  H18R 4993   6.587   3.968   8.902 -0.7822  0.0816 -0.4721
   37POPC  H18S 4994   6.754   3.983   8.833  1.2359 -2.0849 -2.8179
   37POPC  H18T 4995   6.645   3.848   8.780 -1.0946  0.6390 -1.2345
   37POPC   C33 4996   6.605   4.030   7.233  0.2488  0.4470  0.3692
   37POPC   H3X 4997   6.536   4.115   7.251  0.4517  0.8571 -0.7282
   37POPC   H3Y 4998   6.700   4.079   7.206 -0.7402  1.8560 -0.7177
   37POPC   C34 4999   6.606   3.930   7.345  0.1733 -0.2276  0.3362
   37POPC   H4X 5000   6.687   3.857   7.327 -0.1382 -0.4651 -0.1077
   37POPC   H4Y 5001   6.505   3.885   7.352 -0.2492  0.7525  0.8916
   37POPC   C35 5002   6.625   3.995   7.485  0.2149  0.3996 -0.5673
   37POPC   H5X 5003   6.543   4.068   7.503 -1.1429 -0.5126 -2.6559
   37POPC   H5Y 5004   6.725   4.042   7.475  0.5777 -0.1429  0.3537
   37POPC   C36 5005   6.645   3.899   7.605 -0.0450 -0.7671  0.3578
   37POPC   H6X 5006   6.733   3.840   7.575  0.5335  0.5115 -0.5308
   37POPC   H6Y 5007   6.560   3.828   7.615 -0.9025  0.2643  0.6661
   37POPC   C37 5008   6.668   3.983   7.737  0.0161  0.1385 -0.4931
   37POPC   H7X 5009   6.604   4.073   7.741 -0.1491 -0.0282  0.9603
   37POPC   H7Y 5010   6.771   4.023   7.749  1.7846 -4.3222  1.3598
   37POPC   C38 5011   6.647   3.894   7.866 -0.3900 -0.7047 -0.2774
   37POPC   H8X 5012   6.716   3.809   7.847 -1.6361 -1.1811 -3.1124
   37POPC   H8Y 5013   6.540   3.866   7.877 -0.8662  0.2565 -2.1275
   37POPC   C39 5014   6.704   3.974   7.983 -0.4806 -0.1392  0.0514
   37POPC   H9X 5015   6.651   4.069   8.007  0.5738  0.3016  0.7314
   37POPC   H9Y 5016   6.802   4.017   7.953 -0.7379  0.1801 -0.3460
   37POPC  C310 5017   6.716   3.898   8.112 -0.3161  0.0310 -0.4874
   37POPC  H10X 5018   6.790   3.819   8.086 -0.6805 -0.7707  0.7896
   37POPC  H10Y 5019   6.617   3.858   8.140 -1.5483  3.8184  1.3089
   37POPC  C311 5020   6.779   3.977   8.230  0.8085  0.2957  0.4641
   37POPC  H11X 5021   6.713   4.062   8.256 -0.5317 -0.7490  0.5655
   37POPC  H11Y 5022   6.879   4.014   8.198  0.3778 -0.1676 -1.5876
   37POPC  C312 5023   6.788   3.891   8.358  0.3703 -0.0538  0.3464
   37POPC  H12X 5024   6.838   3.795   8.332 -0.6582 -0.4469 -0.2621
   37POPC  H12Y 5025   6.687   3.863   8.394 -0.5194  0.1292 -1.8523
   37POPC  C313 5026   6.871   3.963   8.470 -0.2309 -0.2917  0.8781
   37POPC  H13X 5027   6.851   3.910   8.566  2.5947 -1.9887  0.6286
   37POPC  H13Y 5028   6.840   4.069   8.474 -1.3405 -0.6256  1.6088
   37POPC  C314 5029   7.023   3.940   8.456 -0.2588 -1.0812 -0.4573
   37POPC  H14X 5030   7.060   3.988   8.363  0.1997 -2.0215 -0.7839
   37POPC  H14Y 5031   7.050   3.832   8.447 -2.3529 -1.5387 -2.0679
   37POPC  C315 5032   7.100   4.001   8.572  0.7194 -0.3795  0.6936
   37POPC  H15X 5033   7.035   4.087   8.599  0.6550 -0.3532  0.4478
   37POPC  H15Y 5034   7.202   4.026   8.535 -0.2607 -0.9244 -2.6482
   37POPC  C316 5035   7.108   3.910   8.694  0.0756 -0.2098  0.8582
   37POPC  H16X 5036   7.183   3.828   8.684  0.4959  0.2173  0.5091
   37POPC  H16Y 5037   7.007   3.870   8.717 -1.2133  1.5896 -1.3233
   37POPC  H16Z 5038   7.140   3.970   8.781 -0.3823  1.0357  0.1804
   38POPC     N 5039   6.077   5.436   6.215  0.0051 -0.0877  0.1648
   38POPC   C12 5040   6.059   5.524   6.331  0.2727 -0.3661  0.1544
   38POPC  H12A 5041   5.998   5.473   6.404  1.3718 -1.9001  0.0361
   38POPC  H12B 5042   5.999   5.611   6.307 -0.7071 -0.1883  2.8749
   38POPC   C13 5043   5.956   5.425   6.139 -0.4143  0.7870 -0.1587
   38POPC  H13A 5044   5.970   5.360   6.053 -0.8132 -2.1220  1.8137
   38POPC  H13B 5045   5.883   5.371   6.198  0.4943  0.0574  0.3278
   38POPC  H13C 5046   5.914   5.520   6.110  0.2942  0.7672 -1.3357
   38POPC   C14 5047   6.195   5.483   6.124  0.3153  0.1953  1.3342
   38POPC  H14A 5048   6.214   5.412   6.045  0.6090  0.5512  1.0789
   38POPC  H14B 5049   6.179   5.581   6.081  0.4905  0.1133  1.0798
   38POPC  H14C 5050   6.283   5.492   6.185  2.6160 -1.5001 -1.4766
   38POPC   C15 5051   6.122   5.297   6.258 -0.3913 -0.1777  0.5821
   38POPC  H15A 5052   6.202   5.313   6.329  0.3152 -0.4100 -0.1460
   38POPC  H15B 5053   6.155   5.227   6.182  3.2458  0.6424  1.1972
   38POPC  H15C 5054   6.050   5.245   6.319 -1.7130  3.7851  2.7826
   38POPC   C11 5055   6.181   5.573   6.417 -0.1305 -0.6660 -0.2560
   38POPC  H11A 5056   6.236   5.487   6.462  1.1393 -0.6353 -1.6620
   38POPC  H11B 5057   6.147   5.627   6.508  1.0174  3.0262 -1.8417
   38POPC     P 5058   6.256   5.799   6.298 -0.2581 -0.0945 -0.5818
   38POPC   O13 5059   6.114   5.818   6.273  0.2291  0.2311 -0.7467
   38POPC   O14 5060   6.355   5.841   6.197  0.0426  0.1122 -1.0005
   38POPC   O12 5061   6.275   5.651   6.345  0.1278 -0.2103 -0.1238
   38POPC   O11 5062   6.300   5.869   6.430  0.1112 -0.0830 -0.1806
   38POPC    C1 5063   6.431   5.840   6.490  0.1525 -0.3288  0.1269
   38POPC    HA 5064   6.504   5.812   6.412 -1.7821 -5.1519 -0.2854
   38POPC    HB 5065   6.413   5.759   6.564  2.3573 -0.9320  0.0519
   38POPC    C2 5066   6.476   5.971   6.564  0.1169  0.1568 -0.7877
   38POPC    HS 5067   6.546   5.947   6.646 -1.8871 -0.6165  0.7682
   38POPC   O21 5068   6.362   6.042   6.629 -0.0664 -0.5008  0.0069
   38POPC   C21 5069   6.319   5.977   6.739  0.0316 -0.3056  0.1711
   38POPC   O22 5070   6.368   5.877   6.787 -0.3769  0.3711 -0.1610
   38POPC   C22 5071   6.195   6.049   6.792 -0.4247 -0.0817  0.0312
   38POPC   H2R 5072   6.110   6.034   6.722 -1.0563  0.6238  0.6293
   38POPC   H2S 5073   6.227   6.153   6.816  0.5625 -0.7425  1.7807
   38POPC    C3 5074   6.559   6.071   6.477  0.0342  0.8698 -0.1041
   38POPC    HX 5075   6.488   6.091   6.394 -1.1200 -1.7907  0.1346
   38POPC    HY 5076   6.649   6.022   6.432  0.2616  0.4413  0.7981
   38POPC   O31 5077   6.601   6.178   6.552  0.4545 -0.1260 -0.4005
   38POPC   C31 5078   6.533   6.295   6.554  0.5838  0.0692 -0.3840
   38POPC   O32 5079   6.424   6.315   6.500 -0.7241  0.3980 -0.1196
   38POPC   C32 5080   6.607   6.390   6.647  0.1484 -0.0862  0.1356
   38POPC   H2X 5081   6.668   6.454   6.580  2.9375 -1.3788  1.2978
   38POPC   H2Y 5082   6.674   6.336   6.717  2.6645  2.8281  0.1564
   38POPC   C23 5083   6.150   5.989   6.930 -0.4515  0.2114  0.2431
   38POPC   H3R 5084   6.078   6.055   6.983 -2.8703  0.1236 -2.6333
   38POPC   H3S 5085   6.234   5.969   6.999  0.0985 -1.5630 -0.8896
   38POPC   C24 5086   6.066   5.861   6.908 -0.0109 -0.1500 -0.6789
   38POPC   H4R 5087   6.126   5.779   6.865 -0.8393  0.1797 -2.5453
   38POPC   H4S 5088   5.990   5.878   6.829 -0.3063  1.4577 -0.0905
   38POPC   C25 5089   5.993   5.816   7.043 -0.4520  0.2650  0.3554
   38POPC   H5R 5090   5.937   5.721   7.031 -2.8114  1.5957  0.1156
   38POPC   H5S 5091   5.925   5.897   7.077  0.5755  2.1727 -1.8835
   38POPC   C26 5092   6.092   5.808   7.168 -0.8454 -0.5847  0.4743
   38POPC   H6R 5093   6.124   5.912   7.192  0.0395 -0.5110 -0.9005
   38POPC   H6S 5094   6.178   5.756   7.122 -0.8624 -1.1278  1.0549
   38POPC   C27 5095   6.039   5.730   7.286  0.4008  0.1879  0.7318
   38POPC   H7R 5096   6.115   5.736   7.367  0.6682 -1.7154  0.6595
   38POPC   H7S 5097   6.029   5.623   7.259 -2.4870 -0.5236  3.8997
   38POPC   C28 5098   5.906   5.775   7.350  0.6230 -0.0797  0.1058
   38POPC   H8R 5099   5.892   5.700   7.432  1.0135 -0.8501 -0.5206
   38POPC   H8S 5100   5.832   5.751   7.270  1.7864 -2.5000 -0.3433
   38POPC   C29 5101   5.899   5.918   7.407  0.1845 -0.2576 -0.4303
   38POPC   H91 5102   5.948   5.996   7.347  0.2695  0.1047  0.1007
   38POPC  C210 5103   5.856   5.961   7.526  0.2735  0.2001 -0.3133
   38POPC  H101 5104   5.877   6.065   7.553  3.1144 -0.4312  0.2354
   38POPC  C211 5105   5.796   5.881   7.636  0.0452 -0.1476  0.1278
   38POPC  H11R 5106   5.788   5.771   7.624 -2.0674 -0.1853  1.2942
   38POPC  H11S 5107   5.696   5.931   7.641 -1.2014 -2.5666  0.9117
   38POPC  C212 5108   5.880   5.912   7.765 -0.7834 -0.5184 -0.5734
   38POPC  H12R 5109   5.891   6.021   7.785 -0.6298  0.0111 -3.2355
   38POPC  H12S 5110   5.982   5.868   7.755 -1.0768 -0.7054 -3.3388
   38POPC  C213 5111   5.817   5.849   7.893 -0.7972 -0.6778  1.1887
   38POPC  H13R 5112   5.798   5.743   7.868  1.4304 -1.0553  0.9023
   38POPC  H13S 5113   5.721   5.902   7.914 -0.6023  0.2649 -0.1438
   38POPC  C214 5114   5.897   5.863   8.024  0.7617  0.7313  0.3191
   38POPC  H14R 5115   5.912   5.969   8.051 -1.8125  0.4090  3.6907
   38POPC  H14S 5116   5.990   5.803   8.014 -0.6477 -1.5558  0.0672
   38POPC  C215 5117   5.808   5.812   8.140  0.1507 -0.7277 -0.8561
   38POPC  H15R 5118   5.806   5.701   8.140 -1.1659 -0.8330  2.4720
   38POPC  H15S 5119   5.704   5.839   8.115  0.5456  0.6425 -1.0803
   38POPC  C216 5120   5.846   5.864   8.276  0.3781 -0.2939 -0.5146
   38POPC  H16R 5121   5.837   5.975   8.284 -0.9218 -0.4090 -0.0807
   38POPC  H16S 5122   5.950   5.832   8.296 -0.3300 -0.6355  3.5874
   38POPC  C217 5123   5.757   5.804   8.393 -0.2126 -0.5450  0.4895
   38POPC  H17R 5124   5.778   5.696   8.377  1.6432  0.1941 -3.3898
   38POPC  H17S 5125   5.649   5.825   8.373  0.4118  0.6342 -2.0304
   38POPC  C218 5126   5.799   5.846   8.531 -0.1270  0.3833  0.2386
   38POPC  H18R 5127   5.787   5.956   8.533  2.7894  0.7902 -0.8296
   38POPC  H18S 5128   5.904   5.821   8.557  0.7392  1.8651 -1.6032
   38POPC  H18T 5129   5.728   5.814   8.610  0.0043 -1.8640 -0.4880
   38POPC   C33 5130   6.514   6.477   6.727  0.1688 -1.1461  0.4651
   38POPC   H3X 5131   6.432   6.410   6.761 -1.1815  0.5353  0.6478
   38POPC   H3Y 5132   6.467   6.558   6.667  1.5186  0.1233  1.0717
   38POPC   C34 5133   6.580   6.547   6.846 -0.1771 -1.1587 -0.3263
   38POPC   H4X 5134   6.496   6.610   6.883  0.0184 -1.8908  1.4857
   38POPC   H4Y 5135   6.657   6.620   6.813 -2.9174  2.9605  1.5931
   38POPC   C35 5136   6.614   6.475   6.978  0.3312 -0.3623  0.0893
   38POPC   H5X 5137   6.676   6.390   6.943  0.9889  0.5774 -1.1336
   38POPC   H5Y 5138   6.527   6.434   7.033  0.7194 -1.2830  0.0257
   38POPC   C36 5139   6.695   6.578   7.074  0.0343 -0.4912 -0.4598
   38POPC   H6X 5140   6.626   6.663   7.094  1.2346  1.4318 -3.7506
   38POPC   H6Y 5141   6.786   6.608   7.017  1.8391 -0.3844  2.3195
   38POPC   C37 5142   6.734   6.525   7.211 -0.4271  0.0146 -0.0361
   38POPC   H7X 5143   6.782   6.609   7.267 -1.1034 -1.9883  3.9642
   38POPC   H7Y 5144   6.806   6.442   7.199 -0.2534  0.2292 -0.4727
   38POPC   C38 5145   6.620   6.477   7.308  0.1466 -0.0774 -0.7497
   38POPC   H8X 5146   6.567   6.389   7.266  0.7217 -0.8020  0.0010
   38POPC   H8Y 5147   6.553   6.564   7.324 -1.3914 -1.5461  1.3237
   38POPC   C39 5148   6.674   6.454   7.442  0.5527  0.3234  0.0204
   38POPC   H9X 5149   6.745   6.536   7.464  1.0931 -0.1767  0.1640
   38POPC   H9Y 5150   6.732   6.359   7.444 -0.4355 -0.3227 -0.7596
   38POPC  C310 5151   6.573   6.462   7.546  0.2783 -0.6772  0.0833
   38POPC  H10X 5152   6.500   6.379   7.537  0.1164 -0.5323  0.0475
   38POPC  H10Y 5153   6.513   6.555   7.551 -2.6511 -2.4821  1.3281
   38POPC  C311 5154   6.643   6.459   7.683 -0.3697  0.1364  0.3271
   38POPC  H11X 5155   6.679   6.561   7.708  1.1644 -0.6179  1.3018
   38POPC  H11Y 5156   6.720   6.380   7.675 -0.1938  0.2558  0.8161
   38POPC  C312 5157   6.549   6.426   7.790 -0.1738  0.4686 -0.1250
   38POPC  H12X 5158   6.501   6.331   7.757 -1.5598  0.5283  1.6071
   38POPC  H12Y 5159   6.470   6.497   7.822 -1.3706 -1.3476  1.1171
   38POPC  C313 5160   6.620   6.384   7.919  0.0506 -0.2723 -0.3707
   38POPC  H13X 5161   6.699   6.309   7.900 -0.8819 -1.4398  0.2461
   38POPC  H13Y 5162   6.542   6.354   7.992  0.8330  1.8499  1.4412
   38POPC  C314 5163   6.691   6.513   7.978 -0.2411  0.3609 -0.0598
   38POPC  H14X 5164   6.605   6.583   7.982 -0.3305  0.1874  1.3960
   38POPC  H14Y 5165   6.773   6.550   7.914  0.3042 -0.0922  0.3652
   38POPC  C315 5166   6.735   6.502   8.119  0.4931  0.0341  0.4894
   38POPC  H15X 5167   6.656   6.472   8.190  0.4581  1.4926  1.0919
   38POPC  H15Y 5168   6.771   6.604   8.142  0.7218  0.5145 -1.7715
   38POPC  C316 5169   6.851   6.402   8.139 -0.2924 -0.1194 -0.1595
   38POPC  H16X 5170   6.817   6.307   8.184 -0.4130 -0.1472 -0.3065
   38POPC  H16Y 5171   6.913   6.455   8.214 -1.3722  0.5668  0.2655
   38POPC  H16Z 5172   6.902   6.390   8.041 -1.3293  1.5526 -0.9663
   39POPC     N 5173   5.481   4.615   5.805  0.1483  0.5114  0.0272
   39POPC   C12 5174   5.516   4.538   5.939  0.8831 -0.6859  0.2983
   39POPC  H12A 5175   5.608   4.482   5.931  1.5823  0.3223  0.9663
   39POPC  H12B 5176   5.432   4.472   5.957  1.0195 -0.9037  0.1512
   39POPC   C13 5177   5.341   4.675   5.818 -0.1744 -0.0200 -0.0636
   39POPC  H13A 5178   5.338   4.743   5.902  1.3741 -1.5633  1.3071
   39POPC  H13B 5179   5.311   4.733   5.732  3.1777 -0.9523 -2.0653
   39POPC  H13C 5180   5.270   4.596   5.835 -1.8092  1.2731 -0.5766
   39POPC   C14 5181   5.583   4.719   5.771  0.0528 -0.2293  0.6152
   39POPC  H14A 5182   5.584   4.794   5.849 -1.3839  2.5915 -1.8730
   39POPC  H14B 5183   5.677   4.674   5.742 -0.9944 -0.6704 -2.4815
   39POPC  H14C 5184   5.545   4.770   5.684 -1.1015  1.6759  2.1325
   39POPC   C15 5185   5.478   4.504   5.701  0.4446 -0.3604  0.3583
   39POPC  H15A 5186   5.572   4.457   5.677 -0.6441 -2.8007  0.5948
   39POPC  H15B 5187   5.444   4.549   5.609 -0.3420 -0.0829  0.7802
   39POPC  H15C 5188   5.414   4.423   5.731  0.4216 -0.3331  0.3837
   39POPC   C11 5189   5.529   4.629   6.064  0.5260 -0.5988  0.6244
   39POPC  H11A 5190   5.524   4.569   6.157  1.9817 -1.1526  0.3705
   39POPC  H11B 5191   5.447   4.703   6.058 -0.1894 -1.2510  1.9979
   39POPC     P 5192   5.793   4.601   6.092 -0.0282  0.7229  0.0554
   39POPC   O13 5193   5.907   4.673   6.032  0.4725 -0.4300  0.0295
   39POPC   O14 5194   5.766   4.460   6.055  0.0626 -0.1245  0.1456
   39POPC   O12 5195   5.663   4.687   6.062 -0.2700  0.1075  0.5942
   39POPC   O11 5196   5.811   4.605   6.249 -0.0746 -0.0289 -0.5034
   39POPC    C1 5197   5.785   4.728   6.316 -0.3481  0.3750 -0.4840
   39POPC    HA 5198   5.693   4.776   6.278 -0.8804 -0.2460 -0.0124
   39POPC    HB 5199   5.868   4.802   6.308 -0.2529  0.3446  0.1699
   39POPC    C2 5200   5.764   4.693   6.471  0.2419  0.0161  0.0806
   39POPC    HS 5201   5.733   4.791   6.511  0.3084  0.3626 -0.6912
   39POPC   O21 5202   5.881   4.640   6.538  0.2840  0.0702 -1.0570
   39POPC   C21 5203   5.931   4.721   6.628  0.1549  0.4245  0.0215
   39POPC   O22 5204   5.902   4.836   6.650  0.7365 -0.3656  0.3536
   39POPC   C22 5205   6.016   4.639   6.725 -0.9157 -0.4391 -0.4225
   39POPC   H2R 5206   6.105   4.698   6.753 -1.7763  0.1351  1.2290
   39POPC   H2S 5207   6.050   4.545   6.676 -1.1251 -0.6303 -0.2125
   39POPC    C3 5208   5.652   4.587   6.485 -0.8338 -0.3044 -0.1400
   39POPC    HX 5209   5.699   4.493   6.449  0.6773 -0.5421  2.2812
   39POPC    HY 5210   5.569   4.599   6.412 -2.1823 -1.8025  1.0773
   39POPC   O31 5211   5.612   4.572   6.617  0.3850  0.0713 -0.3614
   39POPC   C31 5212   5.593   4.446   6.668 -0.1776  0.0148 -0.4232
   39POPC   O32 5213   5.596   4.346   6.602  0.1723 -0.2424 -0.0719
   39POPC   C32 5214   5.584   4.462   6.822  0.1708  0.8199 -0.1584
   39POPC   H2X 5215   5.651   4.546   6.847  0.7134  0.3677 -0.0915
   39POPC   H2Y 5216   5.477   4.491   6.834 -0.1633  0.7109 -2.3930
   39POPC   C23 5217   5.953   4.606   6.863  0.0185 -0.0747  0.9482
   39POPC   H3R 5218   5.872   4.532   6.848 -0.2947  0.6174 -1.2246
   39POPC   H3S 5219   5.910   4.701   6.899 -2.4149 -0.6212 -0.3059
   39POPC   C24 5220   6.052   4.548   6.963 -0.0100 -0.0457 -0.1839
   39POPC   H4R 5221   6.146   4.607   6.967  1.3615 -2.1673  0.6470
   39POPC   H4S 5222   6.073   4.451   6.915 -0.9817  0.3263 -1.3980
   39POPC   C25 5223   6.002   4.526   7.106  0.3893  0.3119  0.1513
   39POPC   H5R 5224   6.096   4.484   7.146 -0.0258 -1.3435 -0.5494
   39POPC   H5S 5225   5.925   4.447   7.113 -0.3475  1.1711  2.9655
   39POPC   C26 5226   5.958   4.659   7.172  0.4906  1.4640 -0.6896
   39POPC   H6R 5227   5.867   4.695   7.120 -0.8832  0.0836  0.6821
   39POPC   H6S 5228   6.041   4.734   7.174  1.4556  0.4301  2.2012
   39POPC   C27 5229   5.919   4.631   7.317  0.3136 -0.4682  0.1466
   39POPC   H7R 5230   5.969   4.536   7.346 -2.7694 -2.6538 -1.0486
   39POPC   H7S 5231   5.810   4.607   7.319  0.7531 -2.8802 -0.8763
   39POPC   C28 5232   5.956   4.736   7.426  0.1470  0.2489 -0.1834
   39POPC   H8R 5233   5.916   4.838   7.405 -0.8110  0.0149  0.4113
   39POPC   H8S 5234   6.066   4.748   7.419  0.3541 -2.1484 -2.4620
   39POPC   C29 5235   5.922   4.701   7.573 -0.4479 -0.0600  0.1733
   39POPC   H91 5236   5.817   4.701   7.605 -0.8554  0.5571 -1.1054
   39POPC  C210 5237   6.008   4.674   7.673  0.0331 -0.8451  0.3107
   39POPC  H101 5238   5.965   4.662   7.773 -1.2324  2.4080  0.2963
   39POPC  C211 5239   6.157   4.679   7.655  0.5311 -0.0214  0.0176
   39POPC  H11R 5240   6.195   4.774   7.612 -0.3679  0.6126  0.5971
   39POPC  H11S 5241   6.190   4.592   7.594  0.3353  0.3847 -0.6763
   39POPC  C212 5242   6.212   4.667   7.802  0.1288 -0.1277  0.0193
   39POPC  H12R 5243   6.321   4.652   7.785 -0.1200  0.2992 -2.3080
   39POPC  H12S 5244   6.179   4.569   7.843  2.9172 -1.4320 -0.5904
   39POPC  C213 5245   6.172   4.784   7.892 -0.4455 -0.0105 -0.1661
   39POPC  H13R 5246   6.065   4.776   7.921 -0.8135 -1.7228 -1.8382
   39POPC  H13S 5247   6.180   4.879   7.834  1.3098  0.5123  0.8509
   39POPC  C214 5248   6.261   4.779   8.015 -0.1937 -0.0447  0.1461
   39POPC  H14R 5249   6.355   4.829   7.982  0.1505 -0.9845 -0.3489
   39POPC  H14S 5250   6.288   4.672   8.027 -0.8307 -0.7406 -3.5073
   39POPC  C215 5251   6.199   4.835   8.153 -0.1681  0.3862 -0.0029
   39POPC  H15R 5252   6.252   4.806   8.247 -1.5894  0.9202  0.9996
   39POPC  H15S 5253   6.095   4.798   8.166 -0.3428  0.9053  0.1223
   39POPC  C216 5254   6.205   4.992   8.134  1.1273  0.3613 -0.5887
   39POPC  H16R 5255   6.105   5.030   8.163  0.6580 -0.2273 -1.3874
   39POPC  H16S 5256   6.224   5.004   8.025 -0.3508 -1.2511 -1.0777
   39POPC  C217 5257   6.306   5.066   8.226 -0.6024  0.7406  0.2605
   39POPC  H17R 5258   6.399   5.006   8.213 -2.0297 -1.5302 -0.0346
   39POPC  H17S 5259   6.283   5.048   8.333  0.7977  0.8789  0.6056
   39POPC  C218 5260   6.317   5.210   8.193 -1.0645 -0.1145  0.7117
   39POPC  H18R 5261   6.221   5.265   8.202 -2.1943 -2.0132  0.7716
   39POPC  H18S 5262   6.358   5.222   8.090 -0.9546  0.5396  0.8285
   39POPC  H18T 5263   6.367   5.268   8.273 -1.9383 -0.1184  1.2746
   39POPC   C33 5264   5.618   4.340   6.904  0.0972  0.1006 -0.5506
   39POPC   H3X 5265   5.725   4.311   6.902 -0.1641 -0.9713  0.0032
   39POPC   H3Y 5266   5.563   4.252   6.862  1.6281 -1.6249  0.8935
   39POPC   C34 5267   5.570   4.346   7.056  0.1648 -0.4203  0.1012
   39POPC   H4X 5268   5.460   4.359   7.066  0.4013  1.2813  0.7347
   39POPC   H4Y 5269   5.623   4.430   7.105 -0.2161  0.2198 -0.5724
   39POPC   C35 5270   5.608   4.219   7.130  0.2206  0.2408  0.8410
   39POPC   H5X 5271   5.631   4.147   7.049  0.5693  1.2577  0.0149
   39POPC   H5Y 5272   5.515   4.188   7.183 -0.5233  0.6911 -0.1702
   39POPC   C36 5273   5.725   4.227   7.237  0.1441  0.4097  0.1284
   39POPC   H6X 5274   5.804   4.297   7.202 -0.9241  2.8408  2.2260
   39POPC   H6Y 5275   5.781   4.134   7.258  0.2254  0.3415 -0.3887
   39POPC   C37 5276   5.672   4.274   7.373 -0.3388 -0.8205 -0.3839
   39POPC   H7X 5277   5.608   4.190   7.407 -1.3750  1.1079  2.8899
   39POPC   H7Y 5278   5.602   4.360   7.366  0.3081 -0.3327 -1.0498
   39POPC   C38 5279   5.776   4.298   7.481 -0.3918 -0.4148 -0.2865
   39POPC   H8X 5280   5.835   4.384   7.442 -3.3018  1.8834  0.0217
   39POPC   H8Y 5281   5.840   4.207   7.479 -0.8972 -0.7616 -1.3347
   39POPC   C39 5282   5.715   4.314   7.627 -0.3409 -0.4691 -0.5455
   39POPC   H9X 5283   5.676   4.216   7.663 -0.5047 -1.0017 -2.0797
   39POPC   H9Y 5284   5.627   4.380   7.621 -0.1725  0.0307  1.5938
   39POPC  C310 5285   5.830   4.367   7.720 -0.2436 -0.2133  0.4104
   39POPC  H10X 5286   5.866   4.464   7.678 -0.0560 -1.4548 -2.5980
   39POPC  H10Y 5287   5.925   4.311   7.708 -0.4701 -0.6414  0.6171
   39POPC  C311 5288   5.780   4.391   7.864  0.2965 -0.0069 -0.4335
   39POPC  H11X 5289   5.742   4.292   7.897  0.5061  0.8854  2.8318
   39POPC  H11Y 5290   5.690   4.455   7.870  0.6037  0.3835  0.0021
   39POPC  C312 5291   5.887   4.440   7.967  0.8034  0.7028  0.2843
   39POPC  H12X 5292   5.905   4.541   7.925 -0.7009 -0.8449 -4.7092
   39POPC  H12Y 5293   5.979   4.379   7.966 -0.0026 -0.5501  0.2942
   39POPC  C313 5294   5.821   4.439   8.111 -1.1319  0.6658  0.8033
   39POPC  H13X 5295   5.795   4.334   8.134 -1.1879  0.1002 -1.5422
   39POPC  H13Y 5296   5.721   4.487   8.115 -1.3008  0.4576 -0.3574
   39POPC  C314 5297   5.907   4.517   8.224  0.0572  0.7456  0.4467
   39POPC  H14X 5298   5.868   4.508   8.327  1.6981  0.6759  1.0929
   39POPC  H14Y 5299   5.908   4.624   8.192  2.2823  0.6590  0.0446
   39POPC  C315 5300   6.052   4.484   8.228  0.2705 -0.2389  0.4258
   39POPC  H15X 5301   6.103   4.523   8.138 -0.2945 -1.3505 -0.4027
   39POPC  H15Y 5302   6.065   4.373   8.225 -1.9262 -0.5397 -0.6666
   39POPC  C316 5303   6.119   4.523   8.361 -0.3843  0.4069  0.1783
   39POPC  H16X 5304   6.090   4.446   8.435  0.4404 -1.2634 -1.1549
   39POPC  H16Y 5305   6.076   4.617   8.401  1.5625  1.4716 -0.0609
   39POPC  H16Z 5306   6.230   4.520   8.356 -0.3814  1.7342 -1.6617
   40POPC     N 5307   4.823   3.138   6.532  0.0903  0.1720 -0.1632
   40POPC   C12 5308   4.683   3.126   6.589 -0.4490  0.3266 -0.2054
   40POPC  H12A 5309   4.665   3.203   6.663  2.6827 -0.5436  1.6760
   40POPC  H12B 5310   4.683   3.036   6.649  0.4955  0.3034 -0.2296
   40POPC   C13 5311   4.844   3.038   6.418  0.0733  0.0382 -0.6528
   40POPC  H13A 5312   4.827   2.935   6.446 -0.9222  0.0152 -1.3140
   40POPC  H13B 5313   4.771   3.067   6.345 -0.0668 -0.3907 -0.6894
   40POPC  H13C 5314   4.943   3.041   6.375 -1.1883 -0.3743 -3.8034
   40POPC   C14 5315   4.846   3.271   6.464 -0.3125  0.3650 -0.0069
   40POPC  H14A 5316   4.943   3.264   6.418  0.1285  0.7338  0.8483
   40POPC  H14B 5317   4.773   3.283   6.385  0.0080  0.4288 -0.2948
   40POPC  H14C 5318   4.826   3.351   6.533 -0.8762 -1.4212  2.0318
   40POPC   C15 5319   4.933   3.120   6.637 -0.2062 -0.1457 -0.0996
   40POPC  H15A 5320   4.931   3.022   6.681  1.6505  0.8320  2.3954
   40POPC  H15B 5321   4.920   3.201   6.708 -0.8494  0.6965 -1.1387
   40POPC  H15C 5322   5.034   3.133   6.601  0.2513 -1.2119  0.7603
   40POPC   C11 5323   4.567   3.115   6.491  0.1531  0.3375  0.5519
   40POPC  H11A 5324   4.473   3.081   6.540  0.3388 -0.3929  0.4023
   40POPC  H11B 5325   4.588   3.039   6.413  1.7260  2.2478 -0.9993
   40POPC     P 5326   4.485   3.261   6.287  0.0485 -0.3880  0.1774
   40POPC   O13 5327   4.562   3.173   6.196 -0.0231  0.2416  0.0270
   40POPC   O14 5328   4.488   3.406   6.253  0.4117 -0.2035 -0.0600
   40POPC   O12 5329   4.539   3.247   6.438 -0.0289 -0.0106  0.5550
   40POPC   O11 5330   4.342   3.204   6.288  0.3410 -0.0459  0.6247
   40POPC    C1 5331   4.240   3.269   6.374  0.7454  0.0457  0.5929
   40POPC    HA 5332   4.135   3.257   6.338  1.5637 -2.0804 -1.2825
   40POPC    HB 5333   4.250   3.380   6.382  2.4681  0.1994 -2.3130
   40POPC    C2 5334   4.235   3.212   6.518 -0.3981 -0.5186  0.1801
   40POPC    HS 5335   4.331   3.241   6.564  0.3946  1.3736 -2.4227
   40POPC   O21 5336   4.211   3.066   6.509 -0.0572 -0.2245 -0.5152
   40POPC   C21 5337   4.254   3.012   6.620  0.0213  0.2224  0.4171
   40POPC   O22 5338   4.311   3.063   6.712  0.1332 -0.7255  0.1420
   40POPC   C22 5339   4.207   2.868   6.631 -0.0555 -0.3514  0.2097
   40POPC   H2R 5340   4.291   2.795   6.635  0.8075  0.6728  1.0898
   40POPC   H2S 5341   4.151   2.851   6.536  0.3851  2.0159 -0.5511
   40POPC    C3 5342   4.107   3.281   6.592  0.6066  0.3447 -0.0489
   40POPC    HX 5343   4.015   3.269   6.531 -0.4708  1.7631  1.2359
   40POPC    HY 5344   4.118   3.391   6.590 -1.8882  0.6373 -0.2410
   40POPC   O31 5345   4.073   3.232   6.723 -0.2759  0.0593  0.1701
   40POPC   C31 5346   4.126   3.302   6.822 -0.2614  0.0740 -0.3970
   40POPC   O32 5347   4.178   3.410   6.816 -0.2831 -0.5548  0.2964
   40POPC   C32 5348   4.120   3.212   6.951  0.3184  0.0861 -0.0258
   40POPC   H2X 5349   4.217   3.159   6.943  0.8987  1.2468 -1.1373
   40POPC   H2Y 5350   4.042   3.136   6.931  1.3362 -0.9701 -0.0880
   40POPC   C23 5351   4.114   2.847   6.757 -0.2685 -0.1784  0.0502
   40POPC   H3R 5352   4.054   2.759   6.728  0.4165 -0.6912  0.1505
   40POPC   H3S 5353   4.056   2.942   6.767  2.7080  2.2479 -3.1485
   40POPC   C24 5354   4.189   2.825   6.890 -0.1224  1.1254 -0.2779
   40POPC   H4R 5355   4.257   2.910   6.907 -2.1543  2.6244  0.7674
   40POPC   H4S 5356   4.239   2.727   6.871  0.6733  1.0212  2.0924
   40POPC   C25 5357   4.109   2.806   7.016 -0.5158  0.1801  0.4225
   40POPC   H5R 5358   4.056   2.709   6.999  1.7790 -1.0696  0.0195
   40POPC   H5S 5359   4.032   2.885   7.026  0.5837  1.2404  0.6575
   40POPC   C26 5360   4.188   2.797   7.147  0.4602 -0.6071  0.9186
   40POPC   H6R 5361   4.208   2.900   7.184 -1.9432  0.0391  0.5316
   40POPC   H6S 5362   4.283   2.742   7.126 -0.4936 -2.4562  1.2407
   40POPC   C27 5363   4.101   2.717   7.250  0.2761 -0.8647  0.0537
   40POPC   H7R 5364   4.085   2.619   7.200  0.3674 -1.4697  1.1751
   40POPC   H7S 5365   4.008   2.777   7.261 -0.0175 -1.1621 -0.7473
   40POPC   C28 5366   4.160   2.702   7.392 -0.1706  0.0415 -0.0798
   40POPC   H8R 5367   4.201   2.796   7.433  0.6778 -0.8011  1.0706
   40POPC   H8S 5368   4.240   2.627   7.376  0.1869  0.3503  0.2636
   40POPC   C29 5369   4.039   2.651   7.474  0.2877 -0.1750  0.1021
   40POPC   H91 5370   3.978   2.579   7.418 -0.1430  0.2910 -0.0408
   40POPC  C210 5371   4.002   2.694   7.599 -0.6511 -0.7894 -0.2567
   40POPC  H101 5372   3.913   2.651   7.646 -0.9334 -0.2522 -0.2841
   40POPC  C211 5373   4.088   2.802   7.663  0.0382 -0.4095  0.1584
   40POPC  H11R 5374   4.098   2.888   7.593 -0.8490 -1.6388 -1.5694
   40POPC  H11S 5375   4.184   2.758   7.695 -0.5078 -0.7962  1.3078
   40POPC  C212 5376   4.030   2.866   7.793  0.2631  0.2832  0.3311
   40POPC  H12R 5377   3.924   2.885   7.767 -0.3654 -1.9648  0.9615
   40POPC  H12S 5378   4.083   2.962   7.810  0.4256  0.6815 -2.0582
   40POPC  C213 5379   4.043   2.777   7.911  0.1031 -0.4653 -0.3180
   40POPC  H13R 5380   4.152   2.761   7.925  0.4848  1.0594 -1.3147
   40POPC  H13S 5381   3.995   2.679   7.887 -1.0005  0.1940 -0.9216
   40POPC  C214 5382   3.990   2.832   8.047 -0.0108 -0.0336  0.8886
   40POPC  H14R 5383   4.030   2.933   8.071  0.7422 -0.6089  2.1715
   40POPC  H14S 5384   4.019   2.771   8.136  1.4244 -0.2370  0.3067
   40POPC  C215 5385   3.840   2.827   8.049  0.6757  0.7381 -0.3858
   40POPC  H15R 5386   3.803   2.727   8.019 -1.5675  0.4307  2.9198
   40POPC  H15S 5387   3.800   2.894   7.970  1.9196 -0.1199 -1.7986
   40POPC  C216 5388   3.778   2.863   8.177  0.6638 -0.5715 -1.4961
   40POPC  H16R 5389   3.816   2.967   8.187 -1.3560  0.2052 -1.3181
   40POPC  H16S 5390   3.815   2.790   8.252 -0.7558 -0.1261 -0.3008
   40POPC  C217 5391   3.624   2.865   8.174  0.4796  0.4485 -0.2479
   40POPC  H17R 5392   3.593   2.899   8.276 -1.1065  2.7798 -1.4107
   40POPC  H17S 5393   3.600   2.758   8.159  1.0908  0.2999 -0.1617
   40POPC  C218 5394   3.557   2.955   8.073  0.0819 -0.1903 -0.3984
   40POPC  H18R 5395   3.456   2.984   8.109 -0.7345 -2.6237 -0.5997
   40POPC  H18S 5396   3.549   2.904   7.975 -0.6791 -0.3141 -0.2805
   40POPC  H18T 5397   3.626   3.040   8.053 -1.3933  1.2149  0.3044
   40POPC   C33 5398   4.080   3.296   7.076  0.3674  0.6764 -0.1304
   40POPC   H3X 5399   3.989   3.357   7.057 -0.5750 -0.3556  0.9018
   40POPC   H3Y 5400   4.161   3.362   7.113  0.4252  1.1184 -1.0219
   40POPC   C34 5401   4.045   3.205   7.191  0.4330  0.9449 -0.1917
   40POPC   H4X 5402   4.119   3.124   7.208 -1.1351 -0.6044 -0.3802
   40POPC   H4Y 5403   3.962   3.141   7.153  0.6436 -0.1630  1.1511
   40POPC   C35 5404   4.033   3.273   7.321  0.0559 -0.5970  0.1574
   40POPC   H5X 5405   3.968   3.359   7.296  2.2584  0.7057 -1.4011
   40POPC   H5Y 5406   4.129   3.312   7.359 -0.7816  2.5544 -0.7014
   40POPC   C36 5407   3.988   3.186   7.439  0.0542 -0.0989 -0.3606
   40POPC   H6X 5408   4.071   3.118   7.469 -0.1955 -1.1270 -1.9083
   40POPC   H6Y 5409   3.899   3.125   7.412 -0.4023  0.6869 -0.6525
   40POPC   C37 5410   3.943   3.283   7.555 -0.3924 -0.4260  0.3173
   40POPC   H7X 5411   3.868   3.356   7.518 -0.0362  0.3297  1.0591
   40POPC   H7Y 5412   4.036   3.329   7.595  0.3323 -2.2986  0.9201
   40POPC   C38 5413   3.896   3.195   7.678 -0.5166 -0.4240  0.6299
   40POPC   H8X 5414   3.981   3.125   7.692 -0.9492 -1.2547 -0.7272
   40POPC   H8Y 5415   3.806   3.140   7.643 -0.3014  0.7657 -2.0832
   40POPC   C39 5416   3.855   3.286   7.793 -0.4372 -0.5679 -0.5624
   40POPC   H9X 5417   3.781   3.361   7.760 -1.0290 -0.0358  1.8293
   40POPC   H9Y 5418   3.939   3.352   7.823 -1.1866  0.5061 -0.8053
   40POPC  C310 5419   3.813   3.201   7.913  0.1487  0.5523  0.2972
   40POPC  H10X 5420   3.887   3.121   7.932 -0.1960  0.5994  1.9145
   40POPC  H10Y 5421   3.713   3.167   7.879  0.1383  1.9683 -1.2216
   40POPC  C311 5422   3.794   3.281   8.046  0.3458 -0.1730 -0.3313
   40POPC  H11X 5423   3.889   3.331   8.074 -0.9854  1.3279  1.8520
   40POPC  H11Y 5424   3.778   3.213   8.133  3.1665  0.5987  0.8955
   40POPC  C312 5425   3.664   3.378   8.050 -0.5058  0.4315 -0.2067
   40POPC  H12X 5426   3.568   3.340   8.012 -1.9798  4.1325 -0.6114
   40POPC  H12Y 5427   3.690   3.443   7.964  1.9537 -1.7238 -1.2452
   40POPC  C313 5428   3.643   3.466   8.177 -0.1162 -0.0966  0.3545
   40POPC  H13X 5429   3.741   3.502   8.215 -0.9733  3.2578 -0.2231
   40POPC  H13Y 5430   3.583   3.407   8.250 -3.9003  1.7368 -1.0191
   40POPC  C314 5431   3.567   3.598   8.151 -0.0856  0.3148 -0.3599
   40POPC  H14X 5432   3.468   3.573   8.109  0.0403 -0.0673 -0.4336
   40POPC  H14Y 5433   3.623   3.649   8.070 -1.4421  2.1186 -0.2009
   40POPC  C315 5434   3.575   3.693   8.275  0.1429  0.3824  0.3266
   40POPC  H15X 5435   3.679   3.731   8.292  1.0864 -1.0950 -1.7839
   40POPC  H15Y 5436   3.537   3.631   8.359  0.0961 -1.8367 -1.2563
   40POPC  C316 5437   3.490   3.816   8.262 -0.3769  0.3818 -0.0076
   40POPC  H16X 5438   3.522   3.897   8.331 -1.8872  1.8465 -0.9658
   40POPC  H16Y 5439   3.380   3.801   8.266 -0.7012  1.6880 -2.3361
   40POPC  H16Z 5440   3.498   3.869   8.165  0.3771 -0.8975 -0.6653
   41CHL1    C3 5441   1.353   5.916  10.248  0.1861 -0.0856  0.0924
   41CHL1    H3 5442   1.308   6.014  10.277 -0.9292 -0.2776 -0.9107
   41CHL1    O3 5443   1.377   5.850  10.371 -0.1345 -0.3522 -1.7217
   41CHL1   H3' 5444   1.460   5.801  10.366  1.3710  1.5658  1.2542
   41CHL1    C4 5445   1.251   5.831  10.175 -0.2959  0.1238  0.4410
   41CHL1   H4A 5446   1.277   5.724  10.163 -0.1923  0.3491 -1.6123
   41CHL1   H4B 5447   1.164   5.832  10.244 -0.2638 -0.3983  0.4923
   41CHL1    C5 5448   1.234   5.892  10.042  0.2293 -0.2880  0.2276
   41CHL1    C6 5449   1.115   5.943  10.002 -0.4452 -0.6945 -0.2366
   41CHL1    H6 5450   1.037   5.953  10.079  1.3355  0.0644  1.5722
   41CHL1    C7 5451   1.080   6.001   9.865 -0.0385 -0.3802  0.2297
   41CHL1   H7A 5452   0.988   5.958   9.821 -0.1711  1.0114 -0.9525
   41CHL1   H7B 5453   1.083   6.112   9.857  1.5084 -0.5070 -2.4445
   41CHL1    C8 5454   1.194   5.951   9.766 -0.4089  0.3194  0.7093
   41CHL1    H8 5455   1.161   5.845   9.753 -1.8061  0.9400 -1.3604
   41CHL1   C14 5456   1.176   6.013   9.634 -0.6034 -0.4441  1.1536
   41CHL1   H14 5457   1.195   6.123   9.644  1.6300 -0.2517 -2.8899
   41CHL1   C15 5458   1.045   6.001   9.564  0.0570  0.1208  0.0398
   41CHL1  H15A 5459   0.988   5.907   9.552 -1.0652  1.0747 -3.1088
   41CHL1  H15B 5460   0.969   6.077   9.592 -0.4535  0.0719 -1.1304
   41CHL1   C16 5461   1.080   6.026   9.415  0.5825 -0.5280 -0.5357
   41CHL1  H16A 5462   1.036   5.942   9.357 -1.4196 -0.1940  0.4128
   41CHL1  H16B 5463   1.024   6.116   9.383  1.4354 -0.0791 -0.8111
   41CHL1   C17 5464   1.232   6.052   9.408  0.2646 -0.4809 -0.2343
   41CHL1   H17 5465   1.245   6.160   9.431 -2.8645  0.2881 -1.6211
   41CHL1   C13 5466   1.285   5.975   9.533  0.7273  0.5254 -0.1891
   41CHL1   C18 5467   1.274   5.821   9.508 -0.3105  0.9656  0.0487
   41CHL1  H18A 5468   1.359   5.793   9.442 -1.5689 -0.3757 -1.0618
   41CHL1  H18B 5469   1.298   5.770   9.604  3.7289  1.0444 -0.7210
   41CHL1  H18C 5470   1.176   5.795   9.463 -0.0474  0.2771 -0.1472
   41CHL1   C12 5471   1.426   6.011   9.586  0.0275 -0.3044 -0.0254
   41CHL1  H12A 5472   1.509   5.981   9.517  0.6084 -1.2744  1.0555
   41CHL1  H12B 5473   1.417   6.120   9.605 -0.0720 -0.1815 -0.7663
   41CHL1   C11 5474   1.452   5.946   9.720 -0.2267  0.3702  0.0271
   41CHL1  H11A 5475   1.462   5.838   9.698  0.7949  0.9295 -2.6538
   41CHL1  H11B 5476   1.543   5.993   9.763 -0.9575 -0.6360  2.9282
   41CHL1    C9 5477   1.339   5.970   9.822  0.3895  0.0098  0.0812
   41CHL1    H9 5478   1.351   6.077   9.848  1.1798  0.5263 -2.1272
   41CHL1   C10 5479   1.361   5.894   9.964  0.1107  0.7002  0.4048
   41CHL1   C19 5480   1.408   5.745   9.938  0.0066  0.4481 -0.6653
   41CHL1  H19A 5481   1.402   5.683  10.030  0.3914 -0.2269 -1.0955
   41CHL1  H19B 5482   1.338   5.701   9.864  0.7138 -2.1416  0.1336
   41CHL1  H19C 5483   1.514   5.744   9.907  0.2192  2.4524 -0.1869
   41CHL1    C1 5484   1.477   5.972  10.031 -0.1420 -0.5689 -0.3064
   41CHL1   H1A 5485   1.565   5.952   9.967 -1.7998  0.1950 -2.9918
   41CHL1   H1B 5486   1.445   6.079  10.028  0.5527 -0.3648 -0.5710
   41CHL1    C2 5487   1.487   5.928  10.179  0.0379  0.1471 -0.2019
   41CHL1   H2A 5488   1.542   5.995  10.248  1.4587 -0.1637 -1.0127
   41CHL1   H2B 5489   1.542   5.831  10.184  1.0624  0.7527  0.7104
   41CHL1   C20 5490   1.291   6.022   9.277  0.3579  0.4840  0.4009
   41CHL1   H20 5491   1.311   5.913   9.267  0.7029  0.4327  1.4686
   41CHL1   C21 5492   1.422   6.108   9.263 -0.2030 -0.0677  0.0715
   41CHL1  H21A 5493   1.400   6.212   9.296 -0.4394 -0.1276  0.1039
   41CHL1  H21B 5494   1.462   6.102   9.159 -2.4815 -0.5508 -0.8223
   41CHL1  H21C 5495   1.496   6.062   9.332  0.5350  0.8525 -0.0831
   41CHL1   C22 5496   1.202   6.064   9.154 -0.3249 -0.4532 -0.8480
   41CHL1  H22A 5497   1.100   6.022   9.170 -1.3658  2.8022  2.6145
   41CHL1  H22B 5498   1.190   6.174   9.154 -2.2941 -0.5561 -3.8448
   41CHL1   C23 5499   1.251   6.034   9.014  1.1991  0.3517  0.7682
   41CHL1  H23A 5500   1.357   6.068   9.001  1.1993 -0.0929 -0.5687
   41CHL1  H23B 5501   1.260   5.924   9.004 -0.9497  0.2938 -1.9431
   41CHL1   C24 5502   1.150   6.078   8.906  0.5071 -0.4905  0.4788
   41CHL1  H24A 5503   1.070   6.005   8.929 -1.7608  2.2773  2.1552
   41CHL1  H24B 5504   1.115   6.182   8.927  1.3258  0.0670 -0.7457
   41CHL1   C25 5505   1.205   6.080   8.762 -0.5922 -0.0534  0.0537
   41CHL1   H25 5506   1.284   6.158   8.753 -1.7933  0.9906 -2.1446
   41CHL1   C26 5507   1.262   5.939   8.716 -0.2512  0.4475  0.4930
   41CHL1  H26A 5508   1.190   5.857   8.737 -2.5642  2.7583  2.0939
   41CHL1  H26B 5509   1.292   5.937   8.609  0.5576  0.0520  0.7154
   41CHL1  H26C 5510   1.357   5.935   8.774 -0.5949 -0.6608  1.0013
   41CHL1   C27 5511   1.101   6.135   8.660 -0.1473  0.2800  0.1744
   41CHL1  H27A 5512   1.061   6.231   8.699 -1.7595  0.7960 -2.5538
   41CHL1  H27B 5513   1.149   6.162   8.564  0.1918  0.0806  0.2859
   41CHL1  H27C 5514   1.016   6.065   8.644  1.9793 -2.4824  0.1905
   42CHL1    C3 5515   2.022   4.654  10.000 -0.3743  0.3877 -0.8314
   42CHL1    H3 5516   2.110   4.589   9.980  0.4288  0.7709  1.1789
   42CHL1    O3 5517   2.050   4.752  10.108  0.2998  0.3752 -0.6507
   42CHL1   H3' 5518   2.145   4.753  10.123  0.2121  0.4868 -0.1025
   42CHL1    C4 5519   1.994   4.731   9.877  0.0158  0.6043  0.2005
   42CHL1   H4A 5520   1.916   4.806   9.902  2.3380  3.0672  0.5136
   42CHL1   H4B 5521   2.082   4.794   9.853 -0.8258  2.4630  1.7779
   42CHL1    C5 5522   1.936   4.651   9.757 -0.0371  0.1358  0.4741
   42CHL1    C6 5523   1.989   4.657   9.637  0.0906  0.1140  0.3516
   42CHL1    H6 5524   2.069   4.731   9.624  0.8425 -0.8088 -0.4850
   42CHL1    C7 5525   1.950   4.578   9.517  0.5184  0.3047 -0.0065
   42CHL1   H7A 5526   1.947   4.649   9.431  0.1916 -0.9850 -1.0929
   42CHL1   H7B 5527   2.021   4.500   9.483 -1.3168 -1.4366  0.0034
   42CHL1    C8 5528   1.806   4.503   9.537 -0.7348 -1.1009  0.6194
   42CHL1    H8 5529   1.733   4.587   9.531 -0.3684 -0.7986  0.3612
   42CHL1   C14 5530   1.786   4.404   9.433 -0.2505  0.4335  0.6467
   42CHL1   H14 5531   1.850   4.316   9.454 -0.0538  0.7196  1.2577
   42CHL1   C15 5532   1.822   4.429   9.281 -0.4918 -0.3627  0.5639
   42CHL1  H15A 5533   1.788   4.535   9.276  0.8202  0.0788  0.7082
   42CHL1  H15B 5534   1.927   4.420   9.247 -0.2622 -1.3472  1.4840
   42CHL1   C16 5535   1.721   4.349   9.204  0.4490  0.7397 -0.0483
   42CHL1  H16A 5536   1.646   4.420   9.162 -0.3574  1.3881  2.3268
   42CHL1  H16B 5537   1.769   4.296   9.119 -0.4211  0.2781 -0.2591
   42CHL1   C17 5538   1.654   4.256   9.314  0.6563 -0.0923  0.0222
   42CHL1   H17 5539   1.722   4.169   9.330  2.0066  0.7948 -0.6486
   42CHL1   C13 5540   1.644   4.345   9.440  0.3093  0.0054 -0.3204
   42CHL1   C18 5541   1.530   4.451   9.428 -0.1557 -0.4378  0.3462
   42CHL1  H18A 5542   1.524   4.521   9.514  3.0044 -0.4505  0.7061
   42CHL1  H18B 5543   1.535   4.502   9.330 -1.1892  1.3329  1.1751
   42CHL1  H18C 5544   1.433   4.398   9.439 -0.0307 -0.3475  2.2042
   42CHL1   C12 5545   1.639   4.279   9.574 -0.4845  0.0448 -0.5997
   42CHL1  H12A 5546   1.537   4.246   9.604  0.6848 -3.7477 -0.1920
   42CHL1  H12B 5547   1.713   4.196   9.566 -1.7699 -1.2407  0.3212
   42CHL1   C11 5548   1.657   4.371   9.696 -1.1331  0.3424 -0.1141
   42CHL1  H11A 5549   1.572   4.443   9.696 -1.6727 -0.2851  0.1347
   42CHL1  H11B 5550   1.652   4.314   9.791  1.3309 -0.4640 -0.4093
   42CHL1    C9 5551   1.792   4.445   9.675 -0.1323  0.1216  0.2862
   42CHL1    H9 5552   1.874   4.371   9.688 -0.1240  0.3746  1.8489
   42CHL1   C10 5553   1.822   4.552   9.791 -0.0887  0.6289 -0.0641
   42CHL1   C19 5554   1.696   4.638   9.813  0.6227 -0.1070 -0.4460
   42CHL1  H19A 5555   1.605   4.582   9.843 -0.7865  1.2880 -1.8637
   42CHL1  H19B 5556   1.712   4.728   9.876 -0.3388 -0.5052  0.3937
   42CHL1  H19C 5557   1.676   4.682   9.713 -1.3252 -0.4022 -0.2218
   42CHL1    C1 5558   1.860   4.473   9.924  0.6493 -0.1174 -0.5480
   42CHL1   H1A 5559   1.781   4.398   9.945  2.3874 -1.1894  2.7451
   42CHL1   H1B 5560   1.949   4.412   9.901 -0.3809 -1.3549 -1.4012
   42CHL1    C2 5561   1.898   4.565  10.042  0.2773  0.0586  0.3306
   42CHL1   H2A 5562   1.912   4.507  10.136 -0.6748  1.7492  1.5559
   42CHL1   H2B 5563   1.814   4.635  10.062  0.5236  0.0394  1.5447
   42CHL1   C20 5564   1.522   4.189   9.267 -0.2657  0.1765  0.5094
   42CHL1   H20 5565   1.455   4.273   9.240  0.0404  0.2331 -0.1019
   42CHL1   C21 5566   1.464   4.096   9.375  0.7222 -0.2742  0.3834
   42CHL1  H21A 5567   1.431   4.160   9.459 -0.8168 -1.2366  0.5527
   42CHL1  H21B 5568   1.540   4.026   9.416  2.5691  1.2114 -0.3273
   42CHL1  H21C 5569   1.381   4.030   9.342 -0.6642  1.2856  0.6735
   42CHL1   C22 5570   1.547   4.110   9.136  0.6985 -0.7600  0.2775
   42CHL1  H22A 5571   1.579   4.176   9.053 -0.8874 -0.4142 -0.1044
   42CHL1  H22B 5572   1.632   4.042   9.156  1.4795  0.1839  0.2701
   42CHL1   C23 5573   1.431   4.017   9.085  0.2980 -0.5644 -0.0291
   42CHL1  H23A 5574   1.485   3.960   9.007  0.5157 -0.4251  0.0187
   42CHL1  H23B 5575   1.398   3.947   9.165 -0.2431 -0.5063 -0.1954
   42CHL1   C24 5576   1.309   4.101   9.026  0.0218  0.4214  0.7667
   42CHL1  H24A 5577   1.284   4.176   9.104  1.7276  1.1147  0.6950
   42CHL1  H24B 5578   1.341   4.152   8.933 -0.2196 -0.9139 -0.0756
   42CHL1   C25 5579   1.194   4.001   8.989 -0.5774  0.3659  0.6466
   42CHL1   H25 5580   1.156   3.959   9.085 -2.1776 -4.7760 -1.8463
   42CHL1   C26 5581   1.074   4.074   8.916  0.1571  0.4178 -0.4021
   42CHL1  H26A 5582   1.093   4.075   8.807  0.8579 -0.5096 -0.3006
   42CHL1  H26B 5583   0.980   4.021   8.943  2.1112 -1.5336  3.5791
   42CHL1  H26C 5584   1.069   4.179   8.954  1.6207  1.4314 -2.7990
   42CHL1   C27 5585   1.232   3.871   8.914 -0.6944  0.1711 -0.3928
   42CHL1  H27A 5586   1.149   3.797   8.916 -0.9269  0.3870 -1.3956
   42CHL1  H27B 5587   1.250   3.902   8.809 -2.6288  1.4121 -0.4147
   42CHL1  H27C 5588   1.319   3.828   8.968 -1.7272  0.9346  2.0271
   43CHL1    C3 5589   2.994   4.929  10.016 -0.2041 -0.3334 -0.3859
   43CHL1    H3 5590   3.035   5.025   9.979  1.4202 -0.6751  0.4578
   43CHL1    O3 5591   2.995   4.943  10.155  0.0062  0.3176  0.0769
   43CHL1   H3' 5592   3.019   4.862  10.200  2.5019  2.1991  2.4236
   43CHL1    C4 5593   2.853   4.895   9.969  0.5427  0.1400 -0.4620
   43CHL1   H4A 5594   2.844   4.799  10.024 -0.3171 -0.7309 -2.0606
   43CHL1   H4B 5595   2.765   4.958   9.993 -2.6701 -3.0849 -2.6917
   43CHL1    C5 5596   2.845   4.862   9.823 -0.2443 -0.1053  0.3994
   43CHL1    C6 5597   2.774   4.935   9.729 -0.6287 -0.2393 -0.4063
   43CHL1    H6 5598   2.713   5.015   9.774  1.5028  0.9855  0.5136
   43CHL1    C7 5599   2.759   4.897   9.582  0.3823  0.1658 -0.2209
   43CHL1   H7A 5600   2.654   4.905   9.547  0.1400 -0.4973  0.3468
   43CHL1   H7B 5601   2.812   4.970   9.517  1.0031 -0.6127 -0.6143
   43CHL1    C8 5602   2.815   4.752   9.560 -0.0045  0.4752 -0.4999
   43CHL1    H8 5603   2.745   4.675   9.599  1.8823 -1.7014 -1.1762
   43CHL1   C14 5604   2.831   4.723   9.407 -0.2096 -0.1139  0.3167
   43CHL1   H14 5605   2.897   4.808   9.380 -0.7484  0.4085  0.6029
   43CHL1   C15 5606   2.707   4.742   9.319 -0.8554  0.0130 -0.3904
   43CHL1  H15A 5607   2.625   4.682   9.366  0.5073 -2.1210 -0.6187
   43CHL1  H15B 5608   2.667   4.845   9.307 -1.5598 -0.2430 -0.3350
   43CHL1   C16 5609   2.744   4.689   9.187  0.2741  0.0195 -0.6698
   43CHL1  H16A 5610   2.664   4.628   9.140  0.3000 -0.2582 -0.3531
   43CHL1  H16B 5611   2.777   4.767   9.115 -0.1008 -0.2042 -1.0914
   43CHL1   C17 5612   2.876   4.607   9.199 -0.7363  0.2094 -0.5438
   43CHL1   H17 5613   2.954   4.682   9.175 -1.4299  0.7115 -1.2397
   43CHL1   C13 5614   2.894   4.591   9.359 -0.8001 -0.3688  0.8963
   43CHL1   C18 5615   2.808   4.473   9.396 -0.4405 -0.3064 -0.5559
   43CHL1  H18A 5616   2.788   4.481   9.505 -0.2554  0.1852 -0.5533
   43CHL1  H18B 5617   2.708   4.477   9.349 -0.7457 -0.9086  0.0360
   43CHL1  H18C 5618   2.851   4.373   9.374  0.3097 -0.2884  0.7169
   43CHL1   C12 5619   3.032   4.582   9.418 -0.0336 -0.5594 -0.8125
   43CHL1  H12A 5620   3.078   4.483   9.399  3.2501  1.2467 -3.4471
   43CHL1  H12B 5621   3.099   4.657   9.370  0.5457 -0.8729 -0.5091
   43CHL1   C11 5622   3.035   4.611   9.569  0.0372  0.2442 -0.4704
   43CHL1  H11A 5623   2.992   4.517   9.610 -1.3783  0.4809 -1.3398
   43CHL1  H11B 5624   3.141   4.616   9.602 -0.4209 -1.2844  1.3926
   43CHL1    C9 5625   2.948   4.733   9.623 -0.8041 -1.2707  1.1633
   43CHL1    H9 5626   3.010   4.820   9.591 -1.1418 -0.9234  1.4456
   43CHL1   C10 5627   2.941   4.744   9.774 -0.1494 -0.9847 -0.0857
   43CHL1   C19 5628   2.888   4.613   9.834  0.0704  0.0675  1.0414
   43CHL1  H19A 5629   2.782   4.605   9.802  0.6594 -1.1143 -0.7701
   43CHL1  H19B 5630   2.930   4.519   9.792 -1.8041 -0.2868 -0.1288
   43CHL1  H19C 5631   2.882   4.606   9.945  0.9426 -1.5775  1.0114
   43CHL1    C1 5632   3.083   4.774   9.828  0.0426  0.4409 -0.4011
   43CHL1   H1A 5633   3.142   4.683   9.803 -0.0879 -0.1311  1.2217
   43CHL1   H1B 5634   3.127   4.860   9.773 -2.5562  2.7863  0.9372
   43CHL1    C2 5635   3.091   4.813   9.979  0.3487 -0.2102 -0.1356
   43CHL1   H2A 5636   3.194   4.843  10.006  0.4692  0.2112 -1.0236
   43CHL1   H2B 5637   3.067   4.723  10.041  0.4908 -0.1321  0.0334
   43CHL1   C20 5638   2.892   4.486   9.110 -0.2150  0.1865  0.4092
   43CHL1   H20 5639   2.814   4.412   9.138 -0.8703  0.8285  0.3298
   43CHL1   C21 5640   3.032   4.425   9.124 -0.5510  0.0720 -0.3803
   43CHL1  H21A 5641   3.043   4.339   9.055  0.6924 -1.1428  1.2364
   43CHL1  H21B 5642   3.042   4.374   9.222  0.8080 -1.5046 -1.2858
   43CHL1  H21C 5643   3.111   4.501   9.104  0.2865 -0.5582  0.4116
   43CHL1   C22 5644   2.865   4.525   8.966  0.1877 -0.2881  0.0439
   43CHL1  H22A 5645   2.790   4.606   8.959  0.5081 -0.0053 -0.1420
   43CHL1  H22B 5646   2.954   4.569   8.916 -0.4457  1.6500  0.5450
   43CHL1   C23 5647   2.820   4.405   8.881  0.4819 -0.0870 -0.1471
   43CHL1  H23A 5648   2.911   4.341   8.882  0.0049 -0.8798  2.9551
   43CHL1  H23B 5649   2.734   4.347   8.921  0.2360 -0.2169 -0.8443
   43CHL1   C24 5650   2.804   4.435   8.730  0.4923 -0.6770  0.2132
   43CHL1  H24A 5651   2.705   4.481   8.713  1.5123  1.9145  0.6942
   43CHL1  H24B 5652   2.866   4.521   8.696 -0.4024  0.1255  0.5648
   43CHL1   C25 5653   2.816   4.309   8.645  0.7699  0.4622 -0.1734
   43CHL1   H25 5654   2.925   4.287   8.647  1.0898  2.0276  0.5600
   43CHL1   C26 5655   2.737   4.190   8.692 -0.8787 -0.0396  0.4281
   43CHL1  H26A 5656   2.757   4.154   8.796 -0.0537 -1.0063 -0.0488
   43CHL1  H26B 5657   2.629   4.212   8.681 -0.4542  1.0324 -2.1228
   43CHL1  H26C 5658   2.746   4.105   8.621 -0.0735 -0.5428  1.1059
   43CHL1   C27 5659   2.783   4.349   8.503  0.0041 -0.0973  0.1581
   43CHL1  H27A 5660   2.776   4.262   8.434 -0.8166  0.9544 -1.1502
   43CHL1  H27B 5661   2.679   4.386   8.495 -0.6000 -1.6601  0.5554
   43CHL1  H27C 5662   2.856   4.425   8.468  0.3206 -0.5741 -0.2388
   44CHL1    C3 5663   2.231   5.147  10.192 -1.1352 -0.4959  1.3003
   44CHL1    H3 5664   2.307   5.066  10.193  1.5789  1.8415  1.9121
   44CHL1    O3 5665   2.206   5.196  10.317 -0.2469  0.3222  0.4694
   44CHL1   H3' 5666   2.288   5.233  10.348  0.8180 -2.5414  1.3694
   44CHL1    C4 5667   2.298   5.259  10.107 -0.6055 -0.9495  0.0883
   44CHL1   H4A 5668   2.237   5.352  10.111  0.3512 -0.3259  0.9449
   44CHL1   H4B 5669   2.397   5.283  10.153  0.7279 -1.6190 -2.2861
   44CHL1    C5 5670   2.316   5.219   9.964  0.8121  0.1353 -0.3430
   44CHL1    C6 5671   2.439   5.228   9.906 -0.1014 -0.0919 -0.2821
   44CHL1    H6 5672   2.524   5.258   9.969 -0.9877 -1.0350  1.4162
   44CHL1    C7 5673   2.480   5.190   9.769  0.0093  0.2045  0.3732
   44CHL1   H7A 5674   2.531   5.273   9.716 -0.3789  0.3727  0.2598
   44CHL1   H7B 5675   2.527   5.090   9.779 -0.9088 -0.0349  3.2082
   44CHL1    C8 5676   2.349   5.172   9.676 -0.1735  0.1085 -0.1179
   44CHL1    H8 5677   2.312   5.272   9.646 -1.6572 -0.1547  0.7873
   44CHL1   C14 5678   2.396   5.113   9.540 -0.0494 -0.1341 -0.3684
   44CHL1   H14 5679   2.422   5.010   9.572  1.5786 -0.2309 -1.8797
   44CHL1   C15 5680   2.521   5.164   9.458  0.7633 -0.6149 -0.1351
   44CHL1  H15A 5681   2.519   5.275   9.472  2.1104 -0.5037 -0.6430
   44CHL1  H15B 5682   2.610   5.115   9.501 -0.6347 -2.8252  0.3795
   44CHL1   C16 5683   2.495   5.100   9.315 -0.4305 -0.5907 -0.2335
   44CHL1  H16A 5684   2.476   5.177   9.237  0.6102 -1.8855 -1.8196
   44CHL1  H16B 5685   2.589   5.042   9.298  0.1264 -0.7227  2.7885
   44CHL1   C17 5686   2.375   5.014   9.329 -0.2165  0.1527 -0.9193
   44CHL1   H17 5687   2.410   4.916   9.368  0.6096  0.8282  0.0575
   44CHL1   C13 5688   2.288   5.077   9.437 -0.7837  0.4945  0.0009
   44CHL1   C18 5689   2.216   5.203   9.388  0.1674 -0.2022  0.4929
   44CHL1  H18A 5690   2.131   5.185   9.319  1.4598 -2.6143 -0.6204
   44CHL1  H18B 5691   2.180   5.265   9.473 -0.3361  1.6786 -1.0199
   44CHL1  H18C 5692   2.281   5.269   9.326 -1.8414 -1.2733 -3.0379
   44CHL1   C12 5693   2.189   4.987   9.515 -0.0547 -0.1379 -0.1560
   44CHL1  H12A 5694   2.109   4.966   9.441  0.8555  0.5738 -1.3628
   44CHL1  H12B 5695   2.236   4.890   9.541 -1.7468 -0.4639  2.0844
   44CHL1   C11 5696   2.136   5.046   9.645  0.2201 -0.1438 -0.3256
   44CHL1  H11A 5697   2.069   5.129   9.612  0.5123 -0.0191 -0.6075
   44CHL1  H11B 5698   2.069   4.973   9.696  0.4976  0.4829  0.9668
   44CHL1    C9 5699   2.247   5.092   9.744  0.0541  0.1562 -0.4463
   44CHL1    H9 5700   2.307   5.006   9.779  2.1091  1.0011 -1.7271
   44CHL1   C10 5701   2.195   5.159   9.879  0.5332 -0.5341 -0.5430
   44CHL1   C19 5702   2.102   5.279   9.858  0.6723 -0.9736  0.2285
   44CHL1  H19A 5703   2.017   5.245   9.795  0.3564 -0.9540  0.6417
   44CHL1  H19B 5704   2.049   5.319   9.947 -1.3083 -0.6223 -1.0478
   44CHL1  H19C 5705   2.154   5.360   9.802 -1.0258  1.6624  2.2148
   44CHL1    C1 5706   2.122   5.058   9.971 -0.0714 -0.4826  0.3837
   44CHL1   H1A 5707   2.030   5.012   9.930  0.1752  0.6491 -1.5677
   44CHL1   H1B 5708   2.192   4.973   9.982 -0.0461 -0.4105  0.8075
   44CHL1    C2 5709   2.100   5.102  10.117  0.3346 -0.0010  0.1351
   44CHL1   H2A 5710   2.063   5.020  10.182  1.5051 -0.2083  0.5702
   44CHL1   H2B 5711   2.029   5.186  10.130  0.8203  0.3107  0.8960
   44CHL1   C20 5712   2.314   4.973   9.192  0.6298  0.5379  0.1641
   44CHL1   H20 5713   2.278   5.067   9.145  0.5884  0.5413  0.2037
   44CHL1   C21 5714   2.190   4.884   9.219  0.1788  1.0511 -0.0602
   44CHL1  H21A 5715   2.220   4.811   9.298 -1.4350  0.7997  0.3659
   44CHL1  H21B 5716   2.158   4.828   9.128 -1.0517  1.6513 -0.0240
   44CHL1  H21C 5717   2.099   4.943   9.242  0.7326  2.0017 -0.2368
   44CHL1   C22 5718   2.415   4.898   9.115 -0.4048  0.2707  0.6137
   44CHL1  H22A 5719   2.513   4.885   9.167  1.3786  3.7631 -1.5176
   44CHL1  H22B 5720   2.382   4.794   9.095 -0.3231  0.0531  1.5445
   44CHL1   C23 5721   2.441   4.964   8.980 -0.6378  0.4772  0.3720
   44CHL1  H23A 5722   2.350   4.974   8.917 -0.6518 -1.7311 -0.0403
   44CHL1  H23B 5723   2.484   5.062   9.009  0.1942 -0.7643  3.8743
   44CHL1   C24 5724   2.541   4.883   8.894 -0.1176  0.1887 -0.1586
   44CHL1  H24A 5725   2.636   4.864   8.950 -1.0022 -1.6933  0.7983
   44CHL1  H24B 5726   2.503   4.779   8.897  0.3578 -0.0021 -0.4896
   44CHL1   C25 5727   2.562   4.933   8.748  0.5345 -0.1629  0.0114
   44CHL1   H25 5728   2.458   4.937   8.708 -0.2815 -1.2622  1.8940
   44CHL1   C26 5729   2.615   5.077   8.757 -0.2533  0.2339  0.3361
   44CHL1  H26A 5730   2.608   5.120   8.655  0.1980 -0.8218 -0.1539
   44CHL1  H26B 5731   2.548   5.147   8.812 -1.6781  0.4480 -1.5845
   44CHL1  H26C 5732   2.722   5.082   8.789 -0.2413 -1.5476  0.6400
   44CHL1   C27 5733   2.660   4.857   8.664  0.7989  0.4055 -0.9985
   44CHL1  H27A 5734   2.757   4.885   8.710  0.2661  0.6422  0.0111
   44CHL1  H27B 5735   2.641   4.748   8.676  0.0333  0.6742  0.5520
   44CHL1  H27C 5736   2.667   4.872   8.554  0.9501 -1.5314 -1.2941
   45CHL1    C3 5737   5.978   5.345  10.328  0.2810  0.4158 -0.2416
   45CHL1    H3 5738   6.050   5.263  10.348 -0.7652 -0.0905  1.6044
   45CHL1    O3 5739   5.937   5.411  10.447 -0.5554  0.4799 -0.5719
   45CHL1   H3' 5740   6.012   5.468  10.466 -0.4595 -0.5109  2.6093
   45CHL1    C4 5741   6.047   5.443  10.228  0.3778 -0.4326  0.0263
   45CHL1   H4A 5742   5.980   5.530  10.214  1.6095  0.7535  1.2634
   45CHL1   H4B 5743   6.137   5.480  10.281 -1.3313  0.4001  2.5732
   45CHL1    C5 5744   6.086   5.364  10.100  0.5570 -0.5339 -0.1326
   45CHL1    C6 5745   6.214   5.348  10.057 -0.1880 -0.7954  0.1678
   45CHL1    H6 5746   6.293   5.411  10.100 -0.1352  0.8948 -2.2012
   45CHL1    C7 5747   6.261   5.285   9.925  0.4429 -0.0949 -0.2409
   45CHL1   H7A 5748   6.319   5.359   9.866 -1.0147  0.1281 -1.4677
   45CHL1   H7B 5749   6.312   5.187   9.932  0.9175  0.2556  1.6119
   45CHL1    C8 5750   6.137   5.261   9.837  0.2049  0.5174 -0.2466
   45CHL1    H8 5751   6.168   5.173   9.777  2.4244  1.9085 -1.2425
   45CHL1   C14 5752   6.098   5.363   9.726 -0.0890  1.0178 -0.3582
   45CHL1   H14 5753   6.088   5.460   9.780  1.8813 -0.2614  2.5826
   45CHL1   C15 5754   6.223   5.373   9.627  0.2588  0.0025 -0.2438
   45CHL1  H15A 5755   6.249   5.480   9.613 -2.0447  0.6255 -0.2447
   45CHL1  H15B 5756   6.314   5.315   9.651  2.4468  2.2572 -2.5022
   45CHL1   C16 5757   6.172   5.330   9.491 -0.4824  0.2335  0.0743
   45CHL1  H16A 5758   6.165   5.419   9.425 -1.3206  1.1917  1.4178
   45CHL1  H16B 5759   6.240   5.253   9.450 -1.0012 -0.4367  0.4473
   45CHL1   C17 5760   6.037   5.254   9.520 -0.0972  0.1787  0.1758
   45CHL1   H17 5761   6.070   5.162   9.572 -0.5984  0.6736  1.3985
   45CHL1   C13 5762   5.970   5.331   9.641  0.1450  0.3483 -0.1076
   45CHL1   C18 5763   5.914   5.456   9.591 -0.2412  0.1292  0.1726
   45CHL1  H18A 5764   5.885   5.529   9.670 -0.2928  1.9366 -1.4445
   45CHL1  H18B 5765   5.982   5.511   9.522  0.9819 -0.7337  0.6552
   45CHL1  H18C 5766   5.823   5.424   9.535 -1.4302 -1.1248  2.6648
   45CHL1   C12 5767   5.856   5.256   9.718  0.0590 -0.5627 -0.9281
   45CHL1  H12A 5768   5.775   5.327   9.744  0.8048  0.4881 -1.3854
   45CHL1  H12B 5769   5.810   5.190   9.641 -0.7107 -0.5403 -0.4890
   45CHL1   C11 5770   5.901   5.152   9.827 -0.6048  0.2672 -0.6641
   45CHL1  H11A 5771   5.804   5.127   9.876 -0.5256 -0.6664 -0.9661
   45CHL1  H11B 5772   5.947   5.065   9.776 -0.0282 -0.2749  0.7413
   45CHL1    C9 5773   6.016   5.210   9.917  0.2613 -0.7241 -0.6867
   45CHL1    H9 5774   6.058   5.127   9.977 -1.3050 -0.9302  0.1840
   45CHL1   C10 5775   5.964   5.303  10.035 -0.0922  0.4080  0.8106
   45CHL1   C19 5776   5.873   5.412   9.979 -0.0076  0.2941 -0.3851
   45CHL1  H19A 5777   5.860   5.502  10.043 -0.4159 -1.7610  2.6681
   45CHL1  H19B 5778   5.896   5.453   9.879 -1.5136  0.0651 -0.8426
   45CHL1  H19C 5779   5.767   5.380   9.972 -0.2075  0.6759  0.7084
   45CHL1    C1 5780   5.880   5.213  10.137 -0.8659  0.6857  0.1283
   45CHL1   H1A 5781   5.793   5.194  10.071 -1.5373  1.3867  0.7949
   45CHL1   H1B 5782   5.928   5.117  10.164  1.3147  1.7631  0.2710
   45CHL1    C2 5783   5.849   5.288  10.265 -0.0201  0.5650 -0.6535
   45CHL1   H2A 5784   5.811   5.216  10.340  1.7703 -0.7639 -0.9361
   45CHL1   H2B 5785   5.774   5.368  10.246  0.2662  0.7926 -0.8323
   45CHL1   C20 5786   5.946   5.209   9.406 -0.1352 -0.5849  0.3917
   45CHL1   H20 5787   5.843   5.185   9.440  0.3364  0.3872  2.6775
   45CHL1   C21 5788   6.009   5.073   9.352  0.1755  0.6882  0.1689
   45CHL1  H21A 5789   6.114   5.090   9.321  0.8265 -1.1540  1.2444
   45CHL1  H21B 5790   5.948   5.040   9.265  2.7446 -1.9741 -0.7748
   45CHL1  H21C 5791   6.020   4.994   9.430  1.5219 -0.7735 -1.4153
   45CHL1   C22 5792   5.952   5.312   9.290  0.1566 -0.0560  0.4362
   45CHL1  H22A 5793   5.974   5.407   9.343 -0.0572 -1.3916  3.0958
   45CHL1  H22B 5794   6.036   5.293   9.220  1.3394  2.0817  1.1931
   45CHL1   C23 5795   5.818   5.305   9.219  1.2713  0.0359  0.6557
   45CHL1  H23A 5796   5.799   5.204   9.179  1.4923  0.5595 -0.8527
   45CHL1  H23B 5797   5.736   5.332   9.288  0.3405  1.1457 -0.8207
   45CHL1   C24 5798   5.823   5.392   9.093 -0.8513 -0.0265 -0.3463
   45CHL1  H24A 5799   5.837   5.497   9.125 -1.0151  0.1787 -0.9264
   45CHL1  H24B 5800   5.912   5.368   9.031 -0.2486 -0.4158  0.6403
   45CHL1   C25 5801   5.694   5.371   9.010  0.4013 -1.3341 -0.1299
   45CHL1   H25 5802   5.714   5.282   8.947 -1.0957 -0.6184 -1.6827
   45CHL1   C26 5803   5.565   5.343   9.084 -0.2271  0.1987 -0.0974
   45CHL1  H26A 5804   5.572   5.265   9.162  1.4093 -0.0057 -0.4122
   45CHL1  H26B 5805   5.540   5.439   9.133  0.4124  1.0332 -1.3375
   45CHL1  H26C 5806   5.482   5.323   9.014 -0.9664 -1.1326  1.1154
   45CHL1   C27 5807   5.672   5.495   8.914  0.1686  0.5171  0.2704
   45CHL1  H27A 5808   5.565   5.495   8.884  0.0037 -1.8686  0.6702
   45CHL1  H27B 5809   5.700   5.586   8.971  3.0606 -0.3380  0.3643
   45CHL1  H27C 5810   5.738   5.479   8.827  0.5359 -1.7994  0.9135
   46CHL1    C3 5811   2.035   2.761  10.041  0.0493  0.0959  0.1137
   46CHL1    H3 5812   2.111   2.693  10.086 -1.6236  0.1716  3.3557
   46CHL1    O3 5813   1.961   2.807  10.148 -0.3568  1.0739 -0.1805
   46CHL1   H3' 5814   2.023   2.822  10.220  0.5730  3.2563 -1.3371
   46CHL1    C4 5815   2.103   2.883   9.974 -0.3373 -0.6940 -0.4111
   46CHL1   H4A 5816   2.041   2.975   9.969  1.0016  0.3564  1.3433
   46CHL1   H4B 5817   2.182   2.917  10.045  0.0112 -3.3682  0.5915
   46CHL1    C5 5818   2.170   2.848   9.843  0.3897  0.6021  0.5984
   46CHL1    C6 5819   2.302   2.863   9.815 -0.4441 -0.3323 -0.2384
   46CHL1    H6 5820   2.366   2.908   9.893  0.7445  2.3862 -2.6127
   46CHL1    C7 5821   2.368   2.840   9.680  0.2410  0.2233  0.3094
   46CHL1   H7A 5822   2.440   2.922   9.660  2.7056 -1.6386  1.1411
   46CHL1   H7B 5823   2.437   2.753   9.676 -0.4710 -0.2990 -1.0602
   46CHL1    C8 5824   2.265   2.824   9.566 -0.6044 -0.0152 -0.3287
   46CHL1    H8 5825   2.211   2.920   9.559  0.1398  0.7293  2.5433
   46CHL1   C14 5826   2.321   2.788   9.427  0.4195  0.0857 -0.0237
   46CHL1   H14 5827   2.372   2.690   9.439  0.2295 -0.0957 -0.6589
   46CHL1   C15 5828   2.424   2.881   9.375 -0.0380 -0.1883 -0.0922
   46CHL1  H15A 5829   2.386   2.984   9.394  0.6875 -0.2234  1.7959
   46CHL1  H15B 5830   2.523   2.863   9.423 -0.7874 -0.8254  1.2959
   46CHL1   C16 5831   2.424   2.852   9.221  0.6871 -0.3291 -0.5392
   46CHL1  H16A 5832   2.411   2.950   9.172 -0.7919 -0.2453 -0.0309
   46CHL1  H16B 5833   2.525   2.815   9.192  0.9303 -0.1349  0.0371
   46CHL1   C17 5834   2.307   2.748   9.198 -0.7932  0.7702  0.0592
   46CHL1   H17 5835   2.365   2.656   9.215 -2.0534 -0.1799 -0.5777
   46CHL1   C13 5836   2.218   2.766   9.322 -0.1342  0.3195  0.3967
   46CHL1   C18 5837   2.139   2.893   9.300  0.1931  0.3096  0.0746
   46CHL1  H18A 5838   2.195   2.982   9.263 -0.8280  0.4581 -1.2070
   46CHL1  H18B 5839   2.064   2.870   9.221 -0.2015  0.7769  0.3133
   46CHL1  H18C 5840   2.086   2.941   9.385  1.5918  0.7155  0.7532
   46CHL1   C12 5841   2.124   2.645   9.368  0.1445 -0.0975 -0.0710
   46CHL1  H12A 5842   2.051   2.612   9.291  0.7051 -2.5097  0.3428
   46CHL1  H12B 5843   2.193   2.560   9.384  0.5393  0.4669  1.4370
   46CHL1   C11 5844   2.058   2.676   9.503  0.5243 -0.3541  0.0741
   46CHL1  H11A 5845   1.979   2.746   9.470 -0.2554 -2.5321 -3.1104
   46CHL1  H11B 5846   2.028   2.578   9.546 -0.2725  1.1736  3.3066
   46CHL1    C9 5847   2.156   2.727   9.612  0.4611 -0.0962  0.4365
   46CHL1    H9 5848   2.213   2.636   9.640  2.1471  0.5358 -0.7982
   46CHL1   C10 5849   2.077   2.780   9.748  1.0339 -0.7288  0.7630
   46CHL1   C19 5850   1.969   2.885   9.699  1.1086  0.1959  0.5968
   46CHL1  H19A 5851   1.899   2.849   9.621  0.1327  0.4106  1.3500
   46CHL1  H19B 5852   1.914   2.922   9.788  0.8128  1.6063 -0.1423
   46CHL1  H19C 5853   2.025   2.964   9.645  0.2924 -0.6651 -1.6035
   46CHL1    C1 5854   2.006   2.660   9.815  0.4975 -0.2890  0.1905
   46CHL1   H1A 5855   1.936   2.615   9.742 -1.2610  0.0687  1.5562
   46CHL1   H1B 5856   2.086   2.586   9.831 -0.7056 -1.5932  0.3460
   46CHL1    C2 5857   1.944   2.685   9.953  0.6444 -0.0813 -0.5626
   46CHL1   H2A 5858   1.924   2.586  10.000 -0.9732  0.7641  0.6543
   46CHL1   H2B 5859   1.849   2.742   9.945  0.7540  0.3385  0.8050
   46CHL1   C20 5860   2.250   2.732   9.058 -0.5439 -0.1099 -0.2212
   46CHL1   H20 5861   2.150   2.686   9.068 -0.7975 -0.1219 -2.3510
   46CHL1   C21 5862   2.342   2.635   8.985  0.0537  0.3740  0.0744
   46CHL1  H21A 5863   2.335   2.528   9.016  0.9976 -0.3586 -2.0474
   46CHL1  H21B 5864   2.443   2.680   8.972  0.2136 -0.4690 -2.1101
   46CHL1  H21C 5865   2.305   2.620   8.881  0.8742 -1.0225 -0.0486
   46CHL1   C22 5866   2.231   2.862   8.973 -0.1336  0.0767  0.6923
   46CHL1  H22A 5867   2.162   2.935   9.021  1.1062  2.2406 -0.6600
   46CHL1  H22B 5868   2.327   2.917   8.962 -0.9956  1.6591  0.7466
   46CHL1   C23 5869   2.162   2.840   8.838 -0.0184 -0.4124  0.0886
   46CHL1  H23A 5870   2.224   2.768   8.780 -0.7857 -0.3171 -0.8871
   46CHL1  H23B 5871   2.061   2.794   8.843 -1.0211  1.4770 -1.2895
   46CHL1   C24 5872   2.148   2.966   8.759 -0.9572 -0.6414  0.2446
   46CHL1  H24A 5873   2.073   3.039   8.797 -1.2147  0.4884 -2.1951
   46CHL1  H24B 5874   2.253   3.000   8.757 -1.3264  0.5366 -1.3230
   46CHL1   C25 5875   2.107   2.941   8.610 -0.5719  0.1260 -0.3464
   46CHL1   H25 5876   2.154   2.843   8.586 -4.9239 -2.6969  1.3727
   46CHL1   C26 5877   1.956   2.928   8.603 -0.6870 -1.0125  1.0200
   46CHL1  H26A 5878   1.936   2.828   8.647  1.8765 -1.5864  0.9976
   46CHL1  H26B 5879   1.908   3.010   8.661 -0.9028  1.1014 -1.8624
   46CHL1  H26C 5880   1.919   2.925   8.498 -2.8240 -0.4249  1.6967
   46CHL1   C27 5881   2.163   3.037   8.497  0.3041  0.5275  0.1286
   46CHL1  H27A 5882   2.273   3.037   8.482  0.2703  2.5596 -0.5521
   46CHL1  H27B 5883   2.120   2.998   8.402  0.5322  0.4878  0.0421
   46CHL1  H27C 5884   2.131   3.140   8.526 -2.0169 -0.2913  0.7123
   47CHL1    C3 5885   2.964   5.413  10.032 -0.5637  0.0201 -0.6042
   47CHL1    H3 5886   3.053   5.349  10.014  1.5245  1.9298  2.0697
   47CHL1    O3 5887   2.953   5.440  10.170 -0.2480  0.5762 -0.1945
   47CHL1   H3' 5888   3.021   5.504  10.189  2.3895 -2.2132  0.4997
   47CHL1    C4 5889   2.989   5.549   9.966  0.1851 -0.2176  0.8170
   47CHL1   H4A 5890   2.906   5.615   9.999 -0.3760 -0.3622 -0.2613
   47CHL1   H4B 5891   3.082   5.605   9.989  0.8675 -0.2210 -1.6255
   47CHL1    C5 5892   2.993   5.542   9.815 -0.4056 -0.0080 -0.1711
   47CHL1    C6 5893   3.098   5.592   9.740 -0.7497  0.0987 -0.1906
   47CHL1    H6 5894   3.180   5.646   9.790 -0.6415 -0.5177  0.3177
   47CHL1    C7 5895   3.109   5.586   9.595 -0.5422  0.3430  0.7876
   47CHL1   H7A 5896   3.154   5.683   9.566  1.4235 -0.9851 -0.8802
   47CHL1   H7B 5897   3.182   5.515   9.551  0.7438  3.4224 -2.6028
   47CHL1    C8 5898   2.970   5.556   9.534 -0.3446  0.4506  0.0574
   47CHL1    H8 5899   2.909   5.648   9.538 -0.0610  0.6706 -0.5618
   47CHL1   C14 5900   2.996   5.515   9.394 -0.2608  0.2347 -0.5147
   47CHL1   H14 5901   3.053   5.420   9.404  2.1127  1.6560  0.5425
   47CHL1   C15 5902   3.084   5.599   9.296  0.6000 -0.3945 -0.8194
   47CHL1  H15A 5903   3.061   5.707   9.308  3.1088  0.0640  0.5752
   47CHL1  H15B 5904   3.188   5.582   9.330  0.7033  4.1398  1.9252
   47CHL1   C16 5905   3.053   5.541   9.157 -0.4372 -0.1589  0.5052
   47CHL1  H16A 5906   3.030   5.623   9.086 -2.4998 -0.0261  1.2536
   47CHL1  H16B 5907   3.151   5.504   9.120  0.3629  0.9079  1.4926
   47CHL1   C17 5908   2.938   5.442   9.174  0.5033 -0.2541  0.6765
   47CHL1   H17 5909   2.981   5.341   9.190  0.3175 -0.1620  1.8465
   47CHL1   C13 5910   2.872   5.476   9.308  0.7033 -0.1823 -0.8749
   47CHL1   C18 5911   2.791   5.600   9.293 -0.5276  0.4262  0.2737
   47CHL1  H18A 5912   2.747   5.649   9.382 -1.2603  1.4614 -0.6402
   47CHL1  H18B 5913   2.845   5.677   9.234 -1.3043 -0.2855 -1.4164
   47CHL1  H18C 5914   2.700   5.565   9.242  1.0380 -1.7583 -1.2236
   47CHL1   C12 5915   2.795   5.359   9.373 -0.2298  1.0258  0.3553
   47CHL1  H12A 5916   2.701   5.337   9.320  0.6697 -0.6036 -0.6408
   47CHL1  H12B 5917   2.838   5.258   9.386  0.2933  1.2323  0.2689
   47CHL1   C11 5918   2.768   5.394   9.521  0.4665 -0.4367 -0.3264
   47CHL1  H11A 5919   2.688   5.471   9.522 -0.5662 -1.4797 -0.6759
   47CHL1  H11B 5920   2.734   5.308   9.582  0.8911 -0.7118 -0.4710
   47CHL1    C9 5921   2.895   5.443   9.603  0.4401 -0.4790 -0.4431
   47CHL1    H9 5922   2.965   5.358   9.601  0.2533 -0.7310  1.6439
   47CHL1   C10 5923   2.875   5.476   9.753  0.6896  0.5077  0.4199
   47CHL1   C19 5924   2.748   5.565   9.771  0.1590 -0.4857 -0.8826
   47CHL1  H19A 5925   2.765   5.661   9.719  3.6107 -0.3355  0.3135
   47CHL1  H19B 5926   2.663   5.512   9.722 -1.7238  2.5351 -1.1554
   47CHL1  H19C 5927   2.728   5.577   9.879  1.8156 -2.8205 -0.2496
   47CHL1    C1 5928   2.857   5.331   9.822 -0.2633  0.1777 -0.1940
   47CHL1   H1A 5929   2.764   5.280   9.787 -0.1688  0.4796 -0.9023
   47CHL1   H1B 5930   2.948   5.270   9.802 -0.4408 -0.1448 -0.0399
   47CHL1    C2 5931   2.844   5.338   9.978  0.4232 -0.2401  0.3945
   47CHL1   H2A 5932   2.846   5.232  10.009 -2.0193  0.0777  1.8683
   47CHL1   H2B 5933   2.741   5.371  10.002  0.9796  0.1299  2.4235
   47CHL1   C20 5934   2.848   5.435   9.052 -0.5872 -0.1932 -0.5066
   47CHL1   H20 5935   2.821   5.540   9.030  2.9065  1.1449  0.8699
   47CHL1   C21 5936   2.729   5.341   9.058 -0.1221 -0.0267  0.8048
   47CHL1  H21A 5937   2.651   5.357   9.135 -1.5223  0.1775 -0.6053
   47CHL1  H21B 5938   2.769   5.239   9.076  0.7652  0.1523 -0.0272
   47CHL1  H21C 5939   2.678   5.348   8.960  0.6163 -2.7073  0.1419
   47CHL1   C22 5940   2.947   5.400   8.931  0.0970 -0.0646  0.1602
   47CHL1  H22A 5941   3.036   5.465   8.921  1.2034 -1.7745 -1.8843
   47CHL1  H22B 5942   2.987   5.299   8.955 -0.9611 -0.8215 -1.1034
   47CHL1   C23 5943   2.883   5.404   8.793  0.0855  0.2387 -0.3250
   47CHL1  H23A 5944   2.785   5.351   8.791 -0.1781  0.7328 -0.8252
   47CHL1  H23B 5945   2.861   5.511   8.771 -0.1639 -0.2708 -2.9339
   47CHL1   C24 5946   2.973   5.337   8.687  0.1062  0.4393  0.1580
   47CHL1  H24A 5947   3.064   5.395   8.661 -0.2681 -0.0732 -2.5498
   47CHL1  H24B 5948   3.003   5.242   8.736 -1.6535 -1.0628 -1.5747
   47CHL1   C25 5949   2.894   5.290   8.565 -0.3342 -0.6885 -0.2349
   47CHL1   H25 5950   2.803   5.238   8.602 -0.3069  0.0616  0.9384
   47CHL1   C26 5951   2.845   5.401   8.469  0.4850  0.4783  0.5346
   47CHL1  H26A 5952   2.768   5.357   8.402 -0.3716  1.2032  1.0382
   47CHL1  H26B 5953   2.917   5.452   8.402 -0.3448 -2.9796 -3.4302
   47CHL1  H26C 5954   2.797   5.489   8.517  0.7061  1.7795 -1.5115
   47CHL1   C27 5955   2.988   5.184   8.494  0.9724 -0.0264  0.7208
   47CHL1  H27A 5956   2.925   5.105   8.448  0.9746  0.0057  0.6627
   47CHL1  H27B 5957   3.051   5.226   8.413  1.5710 -0.3948  0.9824
   47CHL1  H27C 5958   3.065   5.140   8.562 -0.4061 -2.8092  0.6002
   48CHL1    C3 5959   4.442   4.621  10.077 -0.4943 -0.6510 -0.2234
   48CHL1    H3 5960   4.529   4.690  10.077 -2.5211  2.1416  1.3721
   48CHL1    O3 5961   4.429   4.587  10.216  0.2305 -0.5287  0.3784
   48CHL1   H3' 5962   4.347   4.539  10.233  0.3328 -0.3766  1.3445
   48CHL1    C4 5963   4.318   4.682  10.013  0.0734 -0.3413 -0.0513
   48CHL1   H4A 5964   4.234   4.612  10.030  0.5345 -0.3549  2.6679
   48CHL1   H4B 5965   4.299   4.775  10.072  0.6070  0.3287 -0.9168
   48CHL1    C5 5966   4.339   4.714   9.867  0.3498 -0.0334  0.5272
   48CHL1    C6 5967   4.310   4.836   9.818 -0.4854  0.6542 -0.1406
   48CHL1    H6 5968   4.291   4.913   9.895 -0.9153 -1.1171  1.5911
   48CHL1    C7 5969   4.319   4.884   9.675 -0.0706  0.7482  0.5120
   48CHL1   H7A 5970   4.223   4.930   9.646  0.4695  0.8166 -1.2907
   48CHL1   H7B 5971   4.405   4.952   9.658  0.2460  0.2099 -0.0887
   48CHL1    C8 5972   4.334   4.757   9.586  0.0607 -0.8269  0.3325
   48CHL1    H8 5973   4.233   4.711   9.585  0.1715 -1.1292 -1.6871
   48CHL1   C14 5974   4.382   4.799   9.447 -0.0332 -0.4937  0.2098
   48CHL1   H14 5975   4.485   4.838   9.459  0.5308 -1.9608  0.3253
   48CHL1   C15 5976   4.297   4.912   9.381 -0.0407  0.2076  0.6288
   48CHL1  H15A 5977   4.190   4.893   9.402 -0.0672  0.7379  0.9971
   48CHL1  H15B 5978   4.322   5.013   9.420  1.2270  0.2062 -0.1031
   48CHL1   C16 5979   4.347   4.907   9.235 -0.3347  0.0314  0.0352
   48CHL1  H16A 5980   4.256   4.913   9.171 -0.1887  0.9007 -0.0948
   48CHL1  H16B 5981   4.427   4.981   9.213  0.7748 -1.5888 -1.7205
   48CHL1   C17 5982   4.417   4.766   9.220  0.3198 -0.2415  0.1377
   48CHL1   H17 5983   4.520   4.799   9.245 -0.5585  0.7965  2.7313
   48CHL1   C13 5984   4.384   4.688   9.345 -0.1870 -0.1004 -0.8138
   48CHL1   C18 5985   4.255   4.611   9.330 -0.0805 -0.3083  0.3869
   48CHL1  H18A 5986   4.177   4.684   9.299 -0.4891 -0.2943  1.4293
   48CHL1  H18B 5987   4.275   4.533   9.253 -0.1090  0.3193 -0.2739
   48CHL1  H18C 5988   4.212   4.573   9.425  2.3547  0.9765  2.1022
   48CHL1   C12 5989   4.506   4.602   9.398 -0.1814  0.1231 -0.4711
   48CHL1  H12A 5990   4.515   4.513   9.332  1.2436 -1.5210  1.7637
   48CHL1  H12B 5991   4.600   4.662   9.397  0.2752 -0.5546 -1.9732
   48CHL1   C11 5992   4.474   4.553   9.538  0.2351 -0.1254  0.1731
   48CHL1  H11A 5993   4.395   4.477   9.518 -0.0089 -0.2619  1.5590
   48CHL1  H11B 5994   4.551   4.491   9.588  1.5200  1.0149 -0.3194
   48CHL1    C9 5995   4.422   4.655   9.641  0.0951  0.5560 -0.0448
   48CHL1    H9 5996   4.516   4.712   9.657  0.1801  0.5338 -0.4703
   48CHL1   C10 5997   4.380   4.594   9.776 -1.1350  0.5919  0.3661
   48CHL1   C19 5998   4.262   4.498   9.752 -0.4318 -0.2871  0.1969
   48CHL1  H19A 5999   4.177   4.552   9.706 -0.1620 -0.8550 -1.0134
   48CHL1  H19B 6000   4.281   4.414   9.681  0.7102 -0.4838  0.7169
   48CHL1  H19C 6001   4.223   4.471   9.852  1.4358 -2.1750  0.4928
   48CHL1    C1 6002   4.504   4.534   9.846  0.3125  1.1905  0.3338
   48CHL1   H1A 6003   4.533   4.434   9.806  0.4652  0.3386  2.4481
   48CHL1   H1B 6004   4.596   4.596   9.840  1.9279 -1.0156  1.1077
   48CHL1    C2 6005   4.480   4.492   9.995 -0.2267 -0.7231 -0.2440
   48CHL1   H2A 6006   4.570   4.448  10.043  1.3371  2.1636 -0.3140
   48CHL1   H2B 6007   4.395   4.420   9.991 -0.2680 -0.6713 -0.2944
   48CHL1   C20 6008   4.395   4.702   9.081 -0.0352  0.8306 -0.2911
   48CHL1   H20 6009   4.285   4.690   9.073 -0.1899  2.1965 -0.3069
   48CHL1   C21 6010   4.453   4.561   9.078  0.2495  0.0332  0.9496
   48CHL1  H21A 6011   4.402   4.480   9.134  2.4827 -2.6108 -0.6251
   48CHL1  H21B 6012   4.564   4.553   9.076  0.2188 -1.4235  2.7257
   48CHL1  H21C 6013   4.434   4.517   8.978 -1.2170  2.9515 -0.1877
   48CHL1   C22 6014   4.450   4.784   8.960  0.8643 -0.3453  0.3650
   48CHL1  H22A 6015   4.444   4.891   8.990  0.1848 -0.6731  1.4602
   48CHL1  H22B 6016   4.556   4.771   8.930  1.4092  1.4099  1.3687
   48CHL1   C23 6017   4.369   4.772   8.835 -0.3222  0.3219  0.1422
   48CHL1  H23A 6018   4.369   4.673   8.785 -1.9720  0.2167  0.3022
   48CHL1  H23B 6019   4.270   4.815   8.859 -0.6033 -0.1370 -0.1838
   48CHL1   C24 6020   4.441   4.850   8.722  0.4763  0.5217 -0.2864
   48CHL1  H24A 6021   4.486   4.940   8.768  1.8067  0.2046 -0.9004
   48CHL1  H24B 6022   4.533   4.794   8.694  1.1072  1.1848  0.4271
   48CHL1   C25 6023   4.351   4.878   8.599 -0.6647 -0.5510  0.3001
   48CHL1   H25 6024   4.261   4.934   8.632 -0.1846 -0.8423  2.2348
   48CHL1   C26 6025   4.418   4.966   8.496  0.4065 -0.2223 -0.6348
   48CHL1  H26A 6026   4.448   5.068   8.530 -3.7533  0.5564  1.2805
   48CHL1  H26B 6027   4.509   4.920   8.451  1.1275  0.2627  0.2945
   48CHL1  H26C 6028   4.345   4.985   8.414 -0.3830 -1.7389 -0.3239
   48CHL1   C27 6029   4.291   4.752   8.532 -0.2152  0.2628  0.1869
   48CHL1  H27A 6030   4.373   4.689   8.490 -0.2093  1.1223 -1.1364
   48CHL1  H27B 6031   4.229   4.694   8.603 -3.7223  2.8634 -0.5107
   48CHL1  H27C 6032   4.220   4.790   8.456 -0.0824 -0.0279 -0.0891
   49CHL1    C3 6033   3.168   2.596   9.906 -0.5183 -0.4428  0.3053
   49CHL1    H3 6034   3.228   2.685   9.880  1.7226 -1.6261  1.1860
   49CHL1    O3 6035   3.135   2.607  10.045  0.5653 -0.1752  0.0836
   49CHL1   H3' 6036   3.070   2.539  10.064  0.9486 -0.4335  0.4906
   49CHL1    C4 6037   3.041   2.587   9.814 -0.0641 -0.2887  0.7758
   49CHL1   H4A 6038   2.981   2.513   9.870 -0.7150  0.8086  1.5623
   49CHL1   H4B 6039   2.991   2.686   9.818 -0.6557 -0.6189  1.8764
   49CHL1    C5 6040   3.049   2.535   9.675 -0.8323  0.4570  1.2394
   49CHL1    C6 6041   2.989   2.598   9.575 -0.6369 -0.5740 -0.0710
   49CHL1    H6 6042   2.934   2.691   9.597 -0.3873 -1.0548  3.1076
   49CHL1    C7 6043   2.988   2.546   9.435  0.4183 -0.4276 -0.2442
   49CHL1   H7A 6044   2.879   2.527   9.421  0.1795  0.7442 -0.0716
   49CHL1   H7B 6045   3.025   2.627   9.368  0.8072  0.5305  1.0938
   49CHL1    C8 6046   3.050   2.404   9.416  0.3515  0.1160 -0.3123
   49CHL1    H8 6047   2.974   2.325   9.436  1.0900 -0.3845  0.5968
   49CHL1   C14 6048   3.090   2.387   9.270  0.9239  0.1481  0.1992
   49CHL1   H14 6049   3.178   2.450   9.246 -0.5382  1.4439 -2.0959
   49CHL1   C15 6050   2.985   2.430   9.161 -0.0389  0.0924  0.0578
   49CHL1  H15A 6051   2.875   2.431   9.180 -0.2407  0.9716 -1.0786
   49CHL1  H15B 6052   3.012   2.535   9.138  0.6380  0.0651  0.6895
   49CHL1   C16 6053   3.024   2.346   9.042 -0.5820  0.7218 -0.4201
   49CHL1  H16A 6054   2.939   2.279   9.018 -1.5792  1.2724  1.4323
   49CHL1  H16B 6055   3.032   2.413   8.953 -0.5561  1.0606 -0.1625
   49CHL1   C17 6056   3.159   2.270   9.087 -0.6737 -0.6576  0.4389
   49CHL1   H17 6057   3.233   2.350   9.064 -0.5483 -1.7025 -3.6375
   49CHL1   C13 6058   3.141   2.249   9.234 -0.3985 -0.0169 -0.4691
   49CHL1   C18 6059   3.034   2.141   9.251  1.2082 -0.0294  0.6076
   49CHL1  H18A 6060   2.992   2.143   9.354 -1.1919 -1.6394 -0.2512
   49CHL1  H18B 6061   2.950   2.145   9.179  1.4907 -1.3646  0.1793
   49CHL1  H18C 6062   3.066   2.036   9.232 -0.6099 -0.7807  1.3866
   49CHL1   C12 6063   3.264   2.215   9.323  0.2922  0.5958  0.7599
   49CHL1  H12A 6064   3.279   2.105   9.314 -0.1004  0.5521  0.6121
   49CHL1  H12B 6065   3.361   2.264   9.298  0.1163  0.4934 -0.1395
   49CHL1   C11 6066   3.225   2.243   9.473  0.3205 -0.2247 -0.2726
   49CHL1  H11A 6067   3.143   2.172   9.497 -1.7015  2.8594  2.8365
   49CHL1  H11B 6068   3.311   2.215   9.538 -0.4454 -1.3221  0.2851
   49CHL1    C9 6069   3.169   2.382   9.506 -0.3626 -0.6840  0.2231
   49CHL1    H9 6070   3.242   2.463   9.485 -2.1356  1.3760  1.5370
   49CHL1   C10 6071   3.141   2.407   9.659  0.2863 -0.2636 -0.1803
   49CHL1   C19 6072   3.078   2.281   9.712  0.1600  0.0467  0.4919
   49CHL1  H19A 6073   3.027   2.295   9.810 -1.5064 -1.0683 -0.1691
   49CHL1  H19B 6074   3.002   2.262   9.633  1.2883  1.5226 -1.0254
   49CHL1  H19C 6075   3.150   2.197   9.723  1.6525  1.3347  0.8483
   49CHL1    C1 6076   3.275   2.436   9.735  0.1610 -0.4362 -0.2320
   49CHL1   H1A 6077   3.348   2.354   9.720  0.5353 -0.1175 -0.1918
   49CHL1   H1B 6078   3.338   2.513   9.685  1.7840 -0.8588  1.0372
   49CHL1    C2 6079   3.261   2.476   9.885  0.3019  0.1816 -0.7034
   49CHL1   H2A 6080   3.365   2.488   9.922 -0.3497 -2.5757  2.4234
   49CHL1   H2B 6081   3.204   2.389   9.923 -1.3302  0.0198 -3.2985
   49CHL1   C20 6082   3.191   2.153   8.996  0.2081 -0.9126  0.3676
   49CHL1   H20 6083   3.160   2.056   9.039  0.1100 -1.7098 -1.4178
   49CHL1   C21 6084   3.350   2.148   9.004 -0.3162  0.3314  0.5068
   49CHL1  H21A 6085   3.392   2.238   8.954 -0.9510  1.3609  1.7706
   49CHL1  H21B 6086   3.378   2.060   8.942 -1.2031  0.5972 -0.2944
   49CHL1  H21C 6087   3.374   2.139   9.112  5.1648  1.8131 -0.3090
   49CHL1   C22 6088   3.133   2.155   8.850 -0.0951 -0.2156  0.4768
   49CHL1  H22A 6089   3.022   2.166   8.846 -0.3916 -2.7403 -0.4376
   49CHL1  H22B 6090   3.182   2.247   8.811  0.4749 -0.5182  0.4700
   49CHL1   C23 6091   3.160   2.030   8.762 -0.1960  0.8649  0.4804
   49CHL1  H23A 6092   3.263   1.991   8.776 -0.5179 -0.3628 -0.3673
   49CHL1  H23B 6093   3.097   1.953   8.812  1.3117  0.0030  1.1110
   49CHL1   C24 6094   3.126   2.039   8.614  1.0948 -0.2457  0.0212
   49CHL1  H24A 6095   3.109   1.936   8.576 -1.6251  0.3901 -0.6867
   49CHL1  H24B 6096   3.032   2.097   8.621  1.6881  0.7177  0.1106
   49CHL1   C25 6097   3.222   2.102   8.517 -0.2756  0.5835  0.0820
   49CHL1   H25 6098   3.246   2.203   8.557  2.1591 -0.1526  0.6149
   49CHL1   C26 6099   3.355   2.027   8.504  0.3765 -0.0925 -0.0435
   49CHL1  H26A 6100   3.401   2.017   8.605  0.8299 -2.6291 -0.4298
   49CHL1  H26B 6101   3.340   1.927   8.458  1.6095 -0.1517 -0.3583
   49CHL1  H26C 6102   3.422   2.087   8.440  0.8369  0.9381  1.3537
   49CHL1   C27 6103   3.166   2.116   8.370 -0.5256 -0.1457 -0.4366
   49CHL1  H27A 6104   3.070   2.172   8.364 -0.3427  0.2213  0.0000
   49CHL1  H27B 6105   3.228   2.170   8.297 -2.3855 -0.1713 -2.1129
   49CHL1  H27C 6106   3.166   2.010   8.338  2.1614 -0.1479 -0.6396
   50CHL1    C3 6107   6.306   3.918  10.231 -0.1044  0.0191 -0.1293
   50CHL1    H3 6108   6.374   3.830  10.229  1.7862  1.4329 -0.7517
   50CHL1    O3 6109   6.224   3.918  10.352  0.0961  0.4075 -0.3744
   50CHL1   H3' 6110   6.281   3.892  10.425 -0.7566 -0.6120 -0.0453
   50CHL1    C4 6111   6.392   4.041  10.222  0.1008 -0.2323  0.3196
   50CHL1   H4A 6112   6.331   4.134  10.221  0.6440  0.1817  2.0432
   50CHL1   H4B 6113   6.454   4.055  10.313  3.2334  0.4180 -1.7534
   50CHL1    C5 6114   6.485   4.030  10.102 -0.3933  0.0830  0.2240
   50CHL1    C6 6115   6.618   4.031  10.115 -0.0837 -0.9069  0.2990
   50CHL1    H6 6116   6.658   4.046  10.217 -1.2313 -0.1451  0.6638
   50CHL1    C7 6117   6.711   4.024   9.995  0.3887  0.5870  0.2722
   50CHL1   H7A 6118   6.796   4.094  10.011 -0.4255  0.9976  3.3744
   50CHL1   H7B 6119   6.740   3.917  10.002 -3.1219 -0.5498 -0.2523
   50CHL1    C8 6120   6.649   4.055   9.862  0.6201 -0.1560 -0.1939
   50CHL1    H8 6121   6.630   4.165   9.864 -0.6972 -0.3496 -1.2197
   50CHL1   C14 6122   6.737   4.023   9.749 -0.4786 -0.3711 -0.1806
   50CHL1   H14 6123   6.727   3.912   9.754 -4.3219 -0.1272  0.8345
   50CHL1   C15 6124   6.875   4.090   9.744 -0.1462  0.4090 -0.1485
   50CHL1  H15A 6125   6.856   4.197   9.766 -0.8142  0.2040  0.2973
   50CHL1  H15B 6126   6.948   4.044   9.814 -1.5480  1.7607  2.3291
   50CHL1   C16 6127   6.912   4.099   9.598  0.0337 -0.3463 -0.3811
   50CHL1  H16A 6128   6.922   4.200   9.553  2.1351 -0.0625  0.6146
   50CHL1  H16B 6129   7.011   4.055   9.574  0.4059 -0.1264  0.6795
   50CHL1   C17 6130   6.796   4.030   9.526  0.4563 -0.0558  0.2419
   50CHL1   H17 6131   6.815   3.921   9.529 -0.3538 -0.2249 -0.4394
   50CHL1   C13 6132   6.678   4.052   9.618 -0.0344  0.2385  0.9509
   50CHL1   C18 6133   6.639   4.196   9.605 -0.2565  0.1347 -0.0587
   50CHL1  H18A 6134   6.590   4.217   9.508  1.3036  1.6411 -0.5764
   50CHL1  H18B 6135   6.565   4.228   9.681  0.2941 -1.6468  1.3035
   50CHL1  H18C 6136   6.727   4.264   9.613  1.1243 -1.4478 -1.1721
   50CHL1   C12 6137   6.555   3.963   9.607 -0.0150 -0.5926  0.1321
   50CHL1  H12A 6138   6.496   3.988   9.516 -1.6326 -1.1340  0.9924
   50CHL1  H12B 6139   6.589   3.858   9.599  0.0591 -0.4249 -2.2505
   50CHL1   C11 6140   6.452   3.981   9.722 -0.1451  0.0451  0.4782
   50CHL1  H11A 6141   6.403   4.079   9.704  0.2866  0.4525  1.4561
   50CHL1  H11B 6142   6.377   3.901   9.712  0.2179 -0.1967 -0.4243
   50CHL1    C9 6143   6.515   3.970   9.856  0.1723 -0.0983  0.6357
   50CHL1    H9 6144   6.542   3.864   9.871 -0.8166 -0.8304 -2.1640
   50CHL1   C10 6145   6.415   4.015   9.967 -0.9699  0.5056  0.2421
   50CHL1   C19 6146   6.345   4.149   9.935  0.3667  0.3964 -0.5993
   50CHL1  H19A 6147   6.273   4.128   9.854 -0.0896 -3.2119  0.5623
   50CHL1  H19B 6148   6.285   4.189  10.020  0.3016 -2.1544  0.6690
   50CHL1  H19C 6149   6.415   4.234   9.915 -1.0507  2.0538  1.0695
   50CHL1    C1 6150   6.307   3.904   9.975  0.3074 -0.1304  0.3738
   50CHL1   H1A 6151   6.256   3.907   9.877  0.6632  0.3772  0.1993
   50CHL1   H1B 6152   6.372   3.814   9.981  3.4248  1.7187 -2.3417
   50CHL1    C2 6153   6.220   3.913  10.098  0.9303  0.8195 -0.2227
   50CHL1   H2A 6154   6.171   3.814  10.107  0.7157  0.5401 -3.4370
   50CHL1   H2B 6155   6.149   3.999  10.097 -0.2426 -0.1308 -0.2214
   50CHL1   C20 6156   6.778   4.059   9.371 -0.2649 -0.3166  1.1681
   50CHL1   H20 6157   6.733   4.161   9.368 -0.6086 -0.4307  2.1751
   50CHL1   C21 6158   6.689   3.948   9.308  0.0623 -0.0069 -0.2437
   50CHL1  H21A 6159   6.725   3.850   9.346 -0.7881  0.2849  1.4150
   50CHL1  H21B 6160   6.717   3.947   9.201  2.8562  1.4908  0.3813
   50CHL1  H21C 6161   6.581   3.972   9.320 -0.6288 -0.6697 -4.0445
   50CHL1   C22 6162   6.908   4.081   9.290  0.2348  0.5987  0.0187
   50CHL1  H22A 6163   6.991   4.113   9.355  0.8511  1.2196 -1.0441
   50CHL1  H22B 6164   6.929   3.985   9.238  0.7562  0.6148  0.2015
   50CHL1   C23 6165   6.901   4.187   9.182  0.1746 -0.2726  0.5618
   50CHL1  H23A 6166   6.820   4.161   9.111  0.3066  2.8234 -0.8677
   50CHL1  H23B 6167   6.882   4.281   9.238  1.5872 -0.1343  0.8291
   50CHL1   C24 6168   7.033   4.186   9.108 -0.4398  0.2637 -0.1638
   50CHL1  H24A 6169   7.110   4.214   9.183  1.6008 -2.5869 -1.0236
   50CHL1  H24B 6170   7.046   4.090   9.054 -1.2232 -0.9153  1.6569
   50CHL1   C25 6171   7.046   4.279   8.983  0.0594  0.2688 -0.9011
   50CHL1   H25 6172   7.032   4.388   9.004 -1.2014 -0.1381  0.5686
   50CHL1   C26 6173   7.192   4.265   8.940  0.0798 -0.1493  0.5641
   50CHL1  H26A 6174   7.211   4.340   8.861 -0.6110 -0.1249  0.4174
   50CHL1  H26B 6175   7.253   4.280   9.032  1.8587  0.5643 -0.6771
   50CHL1  H26C 6176   7.221   4.166   8.900 -0.5411  0.2767 -1.0022
   50CHL1   C27 6177   6.951   4.234   8.862  0.1818  0.2330 -0.6778
   50CHL1  H27A 6178   6.981   4.304   8.781  0.6279 -2.0212 -2.5681
   50CHL1  H27B 6179   6.969   4.125   8.847 -2.2081 -0.3050 -0.0331
   50CHL1  H27C 6180   6.848   4.252   8.897  0.7135  2.8868 -0.2743
   51CHL1    C3 6181   0.193   5.648  10.053 -0.1244 -0.2473  0.0540
   51CHL1    H3 6182   0.131   5.556  10.046 -0.4588  0.0503 -1.1170
   51CHL1    O3 6183   0.191   5.698  10.183  0.1785 -0.1146  0.7291
   51CHL1   H3' 6184   0.106   5.742  10.185  0.8318  1.4059 -1.2565
   51CHL1    C4 6185   0.339   5.618  10.023  0.0544  0.1079  0.0174
   51CHL1   H4A 6186   0.387   5.718  10.025  2.1100 -0.8040 -0.7766
   51CHL1   H4B 6187   0.369   5.553  10.108 -1.9063 -2.2465 -0.9766
   51CHL1    C5 6188   0.355   5.537   9.896 -0.4355 -0.0445 -0.4866
   51CHL1    C6 6189   0.417   5.416   9.891 -0.2783  0.1799  0.8709
   51CHL1    H6 6190   0.464   5.372   9.980 -1.1556 -2.1053  0.2862
   51CHL1    C7 6191   0.437   5.348   9.758  0.3826 -0.2559 -0.1775
   51CHL1   H7A 6192   0.539   5.305   9.758  0.4020 -0.3495 -2.9834
   51CHL1   H7B 6193   0.383   5.251   9.762 -1.4406  0.7207  0.0813
   51CHL1    C8 6194   0.412   5.428   9.636 -0.3891  0.7594 -0.2887
   51CHL1    H8 6195   0.495   5.502   9.622  1.3269 -0.8399  0.8906
   51CHL1   C14 6196   0.399   5.330   9.518 -0.3348 -0.0029  0.0742
   51CHL1   H14 6197   0.309   5.268   9.542  1.1909 -2.3877 -0.0327
   51CHL1   C15 6198   0.505   5.225   9.486  0.1574 -0.0488  0.1015
   51CHL1  H15A 6199   0.609   5.265   9.486  0.3786 -0.5945  0.8490
   51CHL1  H15B 6200   0.496   5.142   9.559 -0.8382  1.1121  1.3621
   51CHL1   C16 6201   0.464   5.172   9.349 -0.4210 -0.3438  0.8076
   51CHL1  H16A 6202   0.555   5.175   9.284 -1.2355  1.3584 -0.3273
   51CHL1  H16B 6203   0.416   5.072   9.343 -0.1462 -0.4789  0.8160
   51CHL1   C17 6204   0.365   5.283   9.290 -0.3373 -0.2861  0.8876
   51CHL1   H17 6205   0.266   5.235   9.305  0.8025 -2.8939  0.4589
   51CHL1   C13 6206   0.373   5.402   9.387 -0.0339 -0.5738  0.1304
   51CHL1   C18 6207   0.489   5.496   9.348  0.2265  0.0506 -0.3276
   51CHL1  H18A 6208   0.544   5.552   9.427  1.6956  1.5708 -2.3313
   51CHL1  H18B 6209   0.570   5.431   9.309 -2.1669 -3.2124 -0.2236
   51CHL1  H18C 6210   0.466   5.572   9.270  0.4921 -0.0934 -0.5463
   51CHL1   C12 6211   0.240   5.468   9.401  0.2575 -0.1520  0.3459
   51CHL1  H12A 6212   0.215   5.519   9.305  1.3965  1.2423  0.7520
   51CHL1  H12B 6213   0.164   5.388   9.410  2.1841 -1.8896  1.9695
   51CHL1   C11 6214   0.233   5.570   9.516 -0.0175  0.2855 -0.2976
   51CHL1  H11A 6215   0.291   5.658   9.481 -0.3178  0.5956 -0.0233
   51CHL1  H11B 6216   0.131   5.612   9.525 -0.1554 -0.4527  2.1840
   51CHL1    C9 6217   0.278   5.502   9.658  0.7162 -0.0254  0.9161
   51CHL1    H9 6218   0.199   5.435   9.695 -0.9727  2.0494  1.2727
   51CHL1   C10 6219   0.293   5.607   9.774 -0.2604  0.3878 -0.4033
   51CHL1   C19 6220   0.386   5.717   9.737 -0.3257  0.5794  0.3122
   51CHL1  H19A 6221   0.491   5.684   9.724 -1.1034 -1.4273 -1.5943
   51CHL1  H19B 6222   0.351   5.764   9.642  0.1257 -0.6123 -0.4624
   51CHL1  H19C 6223   0.388   5.798   9.812  0.7979 -0.4726  1.4598
   51CHL1    C1 6224   0.153   5.668   9.812 -0.0359 -0.1241  0.3073
   51CHL1   H1A 6225   0.110   5.720   9.724  0.4247 -0.9853 -0.4453
   51CHL1   H1B 6226   0.088   5.578   9.817 -0.0411 -0.1301  0.1239
   51CHL1    C2 6227   0.129   5.740   9.951  0.2894 -0.0597  0.6821
   51CHL1   H2A 6228   0.023   5.764   9.973  0.2949  0.0343  0.6078
   51CHL1   H2B 6229   0.187   5.835   9.953 -0.2155  0.2539  0.6219
   51CHL1   C20 6230   0.384   5.294   9.141  0.0585 -0.2644  0.0571
   51CHL1   H20 6231   0.491   5.319   9.119  0.1960 -1.8365 -1.2136
   51CHL1   C21 6232   0.282   5.403   9.077 -0.0872  0.9103 -0.0172
   51CHL1  H21A 6233   0.173   5.381   9.080 -0.1885  1.5019  0.9737
   51CHL1  H21B 6234   0.316   5.414   8.972  0.6544 -0.3158  0.0786
   51CHL1  H21C 6235   0.283   5.502   9.127 -1.0420  0.7080  0.4240
   51CHL1   C22 6236   0.365   5.155   9.063  0.7169 -0.5885  0.0224
   51CHL1  H22A 6237   0.410   5.069   9.117  2.5450 -0.1125 -0.6591
   51CHL1  H22B 6238   0.258   5.139   9.037  0.6559 -0.0759 -0.0597
   51CHL1   C23 6239   0.431   5.156   8.921 -0.9314 -0.0438  0.2784
   51CHL1  H23A 6240   0.407   5.248   8.863  2.1305  1.2786  0.8765
   51CHL1  H23B 6241   0.537   5.183   8.943 -0.9674  1.5871 -1.3196
   51CHL1   C24 6242   0.423   5.019   8.850 -0.3362 -0.0873  0.1553
   51CHL1  H24A 6243   0.445   4.930   8.914 -0.6368 -1.0595 -1.0527
   51CHL1  H24B 6244   0.322   4.994   8.813  0.7511 -1.9709 -1.7688
   51CHL1   C25 6245   0.514   5.025   8.723 -0.6685 -0.5474  0.9638
   51CHL1   H25 6246   0.514   5.126   8.677  1.2690 -2.1283 -3.0058
   51CHL1   C26 6247   0.661   5.012   8.759  0.2860 -0.2547  0.0511
   51CHL1  H26A 6248   0.682   4.929   8.830  2.1048 -0.0143 -0.1515
   51CHL1  H26B 6249   0.716   5.002   8.662 -1.3933  1.5848 -1.1776
   51CHL1  H26C 6250   0.689   5.104   8.813 -0.9673 -0.2608  0.7202
   51CHL1   C27 6251   0.479   4.927   8.611 -0.6608  0.0698 -1.1019
   51CHL1  H27A 6252   0.375   4.947   8.580  0.0574  3.7784 -1.6189
   51CHL1  H27B 6253   0.561   4.932   8.536 -1.0333  1.2579 -1.4516
   51CHL1  H27C 6254   0.493   4.820   8.636  1.7200  0.3179 -1.1019
   52CHL1    C3 6255   3.398   5.108   9.965  0.5321  0.9340 -0.2148
   52CHL1    H3 6256   3.344   5.010   9.968 -0.7650  1.6452  0.3628
   52CHL1    O3 6257   3.450   5.143  10.094  0.1904 -0.1599  0.3210
   52CHL1   H3' 6258   3.480   5.061  10.136  1.8808 -0.5591 -1.5309
   52CHL1    C4 6259   3.514   5.093   9.868 -0.0367  0.0100 -0.2543
   52CHL1   H4A 6260   3.571   5.188   9.861  0.3697 -0.2604 -0.6113
   52CHL1   H4B 6261   3.586   5.016   9.903 -0.0304  0.3738  0.5572
   52CHL1    C5 6262   3.457   5.056   9.726  0.5043  0.3204 -0.3060
   52CHL1    C6 6263   3.505   4.940   9.669 -0.2839  0.0379 -0.5124
   52CHL1    H6 6264   3.594   4.889   9.711 -0.5337 -0.7893 -0.9709
   52CHL1    C7 6265   3.461   4.895   9.532  0.1748 -0.3153  0.3110
   52CHL1   H7A 6266   3.531   4.856   9.455 -0.8352  0.5476 -1.0681
   52CHL1   H7B 6267   3.392   4.809   9.548 -1.7872  1.2418  0.5892
   52CHL1    C8 6268   3.376   5.006   9.454 -0.1578 -0.0478 -0.0177
   52CHL1    H8 6269   3.442   5.083   9.408 -0.7773 -1.6298 -3.8544
   52CHL1   C14 6270   3.309   4.947   9.337  0.0121 -0.6215 -0.2840
   52CHL1   H14 6271   3.254   4.865   9.386 -1.7971  1.8622  2.1405
   52CHL1   C15 6272   3.406   4.882   9.225 -0.2170 -0.2033 -0.0593
   52CHL1  H15A 6273   3.482   4.951   9.180  1.0335  0.1309  2.3913
   52CHL1  H15B 6274   3.432   4.776   9.243 -0.8431 -0.8743 -2.6602
   52CHL1   C16 6275   3.310   4.858   9.110  0.1772  0.1597 -0.7852
   52CHL1  H16A 6276   3.357   4.878   9.012 -0.2753  3.1939 -0.4773
   52CHL1  H16B 6277   3.269   4.755   9.102  0.3905  0.1257 -1.4445
   52CHL1   C17 6278   3.178   4.928   9.147 -0.1773 -0.1976  0.2997
   52CHL1   H17 6279   3.114   4.860   9.207 -0.6100  2.0818  2.6017
   52CHL1   C13 6280   3.214   5.032   9.252 -0.6482  0.2651  0.1396
   52CHL1   C18 6281   3.296   5.146   9.188 -0.4698 -0.1367 -0.2152
   52CHL1  H18A 6282   3.357   5.100   9.107 -1.8128  0.7219 -1.7838
   52CHL1  H18B 6283   3.228   5.214   9.132  0.3862  1.8896  1.0922
   52CHL1  H18C 6284   3.354   5.206   9.261 -3.3786  0.8491  1.4261
   52CHL1   C12 6285   3.111   5.080   9.351  0.0282 -0.7208 -0.6264
   52CHL1  H12A 6286   3.060   5.157   9.289 -1.1811 -0.9661  0.0424
   52CHL1  H12B 6287   3.040   5.003   9.387 -1.4369  0.9275  0.1432
   52CHL1   C11 6288   3.180   5.159   9.471  0.4491 -0.4183  0.3933
   52CHL1  H11A 6289   3.215   5.257   9.433 -1.7594  0.5974  0.7823
   52CHL1  H11B 6290   3.102   5.198   9.540  1.7331  2.2003  0.4843
   52CHL1    C9 6291   3.276   5.078   9.548 -0.2446  0.6018 -0.2414
   52CHL1    H9 6292   3.216   5.002   9.603 -0.4405  2.8628  2.8806
   52CHL1   C10 6293   3.343   5.151   9.668 -0.0989  0.5329 -0.2196
   52CHL1   C19 6294   3.410   5.277   9.621 -0.4526  0.1449  0.7747
   52CHL1  H19A 6295   3.331   5.352   9.600 -0.7617 -0.3165  0.2706
   52CHL1  H19B 6296   3.484   5.322   9.691 -1.5262 -0.1165  2.1229
   52CHL1  H19C 6297   3.474   5.254   9.533  1.2077 -0.1159  1.9865
   52CHL1    C1 6298   3.244   5.182   9.782  0.2385 -0.1064  0.0118
   52CHL1   H1A 6299   3.185   5.271   9.750  0.9855 -0.5478 -2.8765
   52CHL1   H1B 6300   3.174   5.096   9.791 -2.7148  1.9289 -1.7988
   52CHL1    C2 6301   3.307   5.211   9.919 -0.4073 -0.0798  0.0838
   52CHL1   H2A 6302   3.218   5.225   9.984 -1.2421  1.1155 -1.2550
   52CHL1   H2B 6303   3.357   5.310   9.908  0.6990 -0.5931  0.3586
   52CHL1   C20 6304   3.099   4.964   9.022 -0.2910  0.4034 -0.8923
   52CHL1   H20 6305   3.179   5.018   8.967  0.3302 -0.8628 -1.2707
   52CHL1   C21 6306   2.963   5.038   9.052 -0.4364  0.2586  0.3306
   52CHL1  H21A 6307   2.910   5.068   8.959 -0.5092  1.4310  0.7269
   52CHL1  H21B 6308   2.986   5.133   9.106 -2.8118  0.2584  1.4842
   52CHL1  H21C 6309   2.892   4.983   9.116 -0.9678 -1.8602 -1.9227
   52CHL1   C22 6310   3.062   4.839   8.932 -0.0865  0.1329 -0.0043
   52CHL1  H22A 6311   3.127   4.752   8.954  0.9928  0.9795  0.2532
   52CHL1  H22B 6312   2.967   4.797   8.971  1.0583 -1.8806  0.7406
   52CHL1   C23 6313   3.041   4.873   8.784 -0.2333  0.3378 -0.3271
   52CHL1  H23A 6314   2.960   4.808   8.744 -1.1044  1.1519  0.0811
   52CHL1  H23B 6315   2.991   4.971   8.767  0.4456  0.7498  0.0364
   52CHL1   C24 6316   3.163   4.873   8.695  0.3651 -0.0799 -0.1469
   52CHL1  H24A 6317   3.142   4.941   8.609 -0.4666 -1.2944 -0.9363
   52CHL1  H24B 6318   3.246   4.902   8.763 -1.2255 -0.1596  1.9277
   52CHL1   C25 6319   3.213   4.736   8.635  0.1706 -0.2273  0.6677
   52CHL1   H25 6320   3.248   4.677   8.723 -0.1547 -0.7971  0.4164
   52CHL1   C26 6321   3.097   4.658   8.562 -0.3995 -0.0235 -0.2812
   52CHL1  H26A 6322   3.125   4.573   8.496  1.1622  0.8488 -0.7769
   52CHL1  H26B 6323   3.020   4.622   8.634 -1.5793  0.3746 -1.3063
   52CHL1  H26C 6324   3.034   4.731   8.506 -2.6696  0.0538  2.1409
   52CHL1   C27 6325   3.320   4.753   8.529  0.3220  0.5022 -0.0977
   52CHL1  H27A 6326   3.279   4.787   8.432 -1.4045  2.4977  1.2509
   52CHL1  H27B 6327   3.392   4.832   8.560 -0.3379  1.8253 -1.8050
   52CHL1  H27C 6328   3.377   4.658   8.515  1.0790  0.8331  0.5841
   53CHL1    C3 6329   3.950   5.322   9.881 -0.0802  0.8745  0.0015
   53CHL1    H3 6330   4.061   5.330   9.884  0.0335 -0.5880  0.8068
   53CHL1    O3 6331   3.910   5.320  10.015  0.1515 -0.0737 -0.3186
   53CHL1   H3' 6332   3.902   5.415  10.028 -0.5088 -0.1025 -0.5069
   53CHL1    C4 6333   3.863   5.412   9.795  0.0775  0.0536 -0.4041
   53CHL1   H4A 6334   3.755   5.385   9.797  0.1346 -0.1417  0.5146
   53CHL1   H4B 6335   3.870   5.511   9.844 -2.8328 -0.8628  2.2239
   53CHL1    C5 6336   3.930   5.409   9.661  0.2475  0.3472 -0.6252
   53CHL1    C6 6337   3.968   5.528   9.606  0.7014 -0.1198 -0.3102
   53CHL1    H6 6338   3.962   5.609   9.679  0.6448 -0.4908  0.1019
   53CHL1    C7 6339   4.015   5.545   9.466 -0.2138 -0.2501 -0.1073
   53CHL1   H7A 6340   3.959   5.633   9.429 -1.3555 -1.2763 -0.9330
   53CHL1   H7B 6341   4.123   5.568   9.469 -0.2226 -0.1483 -0.5146
   53CHL1    C8 6342   3.996   5.423   9.377  0.6124 -0.4776  0.6492
   53CHL1    H8 6343   3.888   5.421   9.351  0.1211 -2.1937  2.5192
   53CHL1   C14 6344   4.087   5.421   9.255  0.3256 -0.6280 -0.1931
   53CHL1   H14 6345   4.186   5.432   9.304  0.3372  0.0255 -0.3470
   53CHL1   C15 6346   4.087   5.546   9.153  0.3750 -0.1888 -0.5002
   53CHL1  H15A 6347   3.983   5.564   9.119  0.7380 -0.6537 -1.9572
   53CHL1  H15B 6348   4.127   5.639   9.199 -0.6223  0.2304 -0.4591
   53CHL1   C16 6349   4.163   5.485   9.029 -0.1632 -0.1041 -0.2087
   53CHL1  H16A 6350   4.100   5.495   8.937  1.3359  2.1036 -1.0961
   53CHL1  H16B 6351   4.263   5.525   9.004 -0.4925 -0.0722 -1.5413
   53CHL1   C17 6352   4.178   5.332   9.051  0.1326 -0.8481  0.5272
   53CHL1   H17 6353   4.284   5.318   9.082  0.5253  0.4131 -0.1644
   53CHL1   C13 6354   4.079   5.303   9.162  0.4863 -0.0664  0.2612
   53CHL1   C18 6355   3.930   5.290   9.106 -0.7528 -0.2936 -0.2860
   53CHL1  H18A 6356   3.911   5.373   9.035 -1.5088 -0.0999  0.1300
   53CHL1  H18B 6357   3.925   5.195   9.048 -0.0465 -1.5353  1.5943
   53CHL1  H18C 6358   3.854   5.284   9.187 -0.5260 -2.9379 -0.1688
   53CHL1   C12 6359   4.106   5.182   9.253 -0.6828 -0.6644 -0.1929
   53CHL1  H12A 6360   4.092   5.091   9.191  1.6181  0.2274 -2.1399
   53CHL1  H12B 6361   4.210   5.194   9.290 -0.7949  0.4973 -0.2316
   53CHL1   C11 6362   4.019   5.166   9.376 -0.2018  0.1115 -0.7802
   53CHL1  H11A 6363   3.914   5.136   9.354 -0.1381 -2.9288  2.3708
   53CHL1  H11B 6364   4.063   5.084   9.437 -0.4794  1.5993  1.5368
   53CHL1    C9 6365   4.022   5.293   9.462  0.0897  0.0747 -0.5507
   53CHL1    H9 6366   4.125   5.309   9.500 -0.6307  0.3397  1.4145
   53CHL1   C10 6367   3.926   5.273   9.581 -0.0156 -0.4743 -0.2759
   53CHL1   C19 6368   3.784   5.230   9.539  0.3376 -0.3497  0.4313
   53CHL1  H19A 6369   3.733   5.229   9.638  0.8757 -2.0821  0.7296
   53CHL1  H19B 6370   3.741   5.305   9.470 -0.1314 -1.4851 -0.5570
   53CHL1  H19C 6371   3.763   5.125   9.510 -1.5628  0.5124 -1.6452
   53CHL1    C1 6372   3.986   5.170   9.677  0.8746  0.2068 -0.4213
   53CHL1   H1A 6373   3.957   5.069   9.639 -5.0490  0.8544  1.3709
   53CHL1   H1B 6374   4.096   5.183   9.680  0.9624 -0.4910 -0.2861
   53CHL1    C2 6375   3.934   5.175   9.827  0.0834  0.1065 -1.2085
   53CHL1   H2A 6376   3.997   5.111   9.892 -1.8063  0.5868  1.2217
   53CHL1   H2B 6377   3.832   5.132   9.834  0.9308 -1.9919 -1.0925
   53CHL1   C20 6378   4.169   5.266   8.914 -0.8902  0.2172  0.0098
   53CHL1   H20 6379   4.067   5.268   8.870 -0.7999  0.4103 -0.1922
   53CHL1   C21 6380   4.214   5.119   8.941 -0.3681 -0.2539  1.1732
   53CHL1  H21A 6381   4.228   5.066   8.845 -2.2707  2.1904 -0.5847
   53CHL1  H21B 6382   4.132   5.061   8.988  0.3343 -0.8443  1.7050
   53CHL1  H21C 6383   4.306   5.109   9.004 -0.0720  1.0735  0.9986
   53CHL1   C22 6384   4.253   5.333   8.807 -0.0432  0.5767  0.5480
   53CHL1  H22A 6385   4.253   5.443   8.797  1.2876  0.4058 -2.3243
   53CHL1  H22B 6386   4.360   5.314   8.831 -0.3979  0.0678  1.8321
   53CHL1   C23 6387   4.222   5.293   8.661  0.1947  0.3683 -0.1737
   53CHL1  H23A 6388   4.223   5.182   8.656  0.2623  0.3616  0.0040
   53CHL1  H23B 6389   4.123   5.338   8.634 -0.0248 -0.1347 -0.2175
   53CHL1   C24 6390   4.328   5.355   8.572 -0.6838 -0.3302  0.3594
   53CHL1  H24A 6391   4.348   5.460   8.600  1.3131  0.1120 -2.2958
   53CHL1  H24B 6392   4.417   5.293   8.596 -0.9553 -0.9198 -0.1025
   53CHL1   C25 6393   4.284   5.351   8.425  0.6244 -0.4142 -0.3445
   53CHL1   H25 6394   4.249   5.246   8.416  1.5266 -0.7773  0.1574
   53CHL1   C26 6395   4.166   5.455   8.406 -0.1919  0.2199  0.1583
   53CHL1  H26A 6396   4.203   5.559   8.410 -2.1537  0.9901 -0.5194
   53CHL1  H26B 6397   4.133   5.440   8.301 -0.0237  0.1742  0.1117
   53CHL1  H26C 6398   4.079   5.447   8.476  0.7325  0.2722  1.3447
   53CHL1   C27 6399   4.403   5.378   8.325 -0.0928  0.1056  0.3350
   53CHL1  H27A 6400   4.435   5.485   8.321 -0.0301  0.0539 -2.6728
   53CHL1  H27B 6401   4.489   5.319   8.362  0.1986 -0.8899 -1.7601
   53CHL1  H27C 6402   4.369   5.365   8.220 -0.1836  3.6855 -0.2124
   54CHL1    C3 6403   5.103   6.798  10.085 -0.5043  0.0080  0.1385
   54CHL1    H3 6404   5.106   6.699  10.035 -0.2802  0.7081 -1.2901
   54CHL1    O3 6405   5.100   6.794  10.223  0.0074  0.5210 -0.3231
   54CHL1   H3' 6406   5.194   6.796  10.243 -0.3712  3.0589  1.8001
   54CHL1    C4 6407   5.226   6.880  10.039 -0.0770  0.4810 -0.2519
   54CHL1   H4A 6408   5.220   6.966  10.108 -1.0668 -0.1853  0.5144
   54CHL1   H4B 6409   5.319   6.824  10.065 -1.3892 -2.1246 -0.7649
   54CHL1    C5 6410   5.225   6.917   9.893  0.1306  0.1945  0.1941
   54CHL1    C6 6411   5.337   6.895   9.823  0.4718 -0.1876  0.4074
   54CHL1    H6 6412   5.430   6.864   9.873  1.0875  1.7232  0.5245
   54CHL1    C7 6413   5.347   6.925   9.669  0.3063 -0.0359  0.1676
   54CHL1   H7A 6414   5.433   6.994   9.657 -1.2955  2.1013  0.1506
   54CHL1   H7B 6415   5.370   6.830   9.617 -1.3482  0.2836 -1.2280
   54CHL1    C8 6416   5.226   7.001   9.612  0.3964 -0.0480 -0.2800
   54CHL1    H8 6417   5.236   7.109   9.639  1.9296 -0.5087  1.1559
   54CHL1   C14 6418   5.218   6.983   9.461 -0.6426  0.1007  0.5598
   54CHL1   H14 6419   5.196   6.876   9.440 -0.6775  0.5223 -1.8210
   54CHL1   C15 6420   5.345   7.018   9.380  0.6748  0.0125  0.2996
   54CHL1  H15A 6421   5.386   7.114   9.417 -0.8047  0.0800  1.8803
   54CHL1  H15B 6422   5.415   6.931   9.382 -1.8455 -2.1706 -0.8894
   54CHL1   C16 6423   5.284   7.031   9.235  0.2890  0.3113  0.4928
   54CHL1  H16A 6424   5.325   7.129   9.203  0.4676  1.0091  2.7400
   54CHL1  H16B 6425   5.321   6.945   9.174 -1.4858  0.4400 -0.8309
   54CHL1   C17 6426   5.130   7.023   9.241 -0.1495  0.8206  0.3719
   54CHL1   H17 6427   5.105   6.917   9.222 -1.3488  0.8353  1.6669
   54CHL1   C13 6428   5.101   7.048   9.390 -0.0930 -0.3786  0.3200
   54CHL1   C18 6429   5.125   7.201   9.426 -0.6338 -0.0133  0.3122
   54CHL1  H18A 6430   5.219   7.242   9.383 -1.4972  1.6041 -0.1333
   54CHL1  H18B 6431   5.041   7.261   9.383 -1.3597 -2.1413 -1.4079
   54CHL1  H18C 6432   5.118   7.224   9.534 -1.9539 -2.7509  0.8821
   54CHL1   C12 6433   4.979   6.990   9.455  0.7883  0.1176  0.6598
   54CHL1  H12A 6434   4.890   7.050   9.429  1.1155  1.1539  1.7990
   54CHL1  H12B 6435   4.962   6.885   9.424  0.5699  0.8996 -2.1228
   54CHL1   C11 6436   4.970   7.002   9.611 -0.3516 -0.5755  0.2163
   54CHL1  H11A 6437   4.957   7.109   9.634  0.9722 -0.6158  1.2998
   54CHL1  H11B 6438   4.876   6.955   9.646  0.2683 -1.5028  0.6972
   54CHL1    C9 6439   5.102   6.941   9.675 -0.2838 -0.4902 -0.5441
   54CHL1    H9 6440   5.100   6.833   9.651  0.3186  0.1195 -3.7287
   54CHL1   C10 6441   5.095   6.959   9.828  0.0919  0.6232  0.1903
   54CHL1   C19 6442   5.073   7.106   9.862  0.4104 -0.8209 -0.2329
   54CHL1  H19A 6443   5.155   7.176   9.835  0.5829 -1.1509 -0.5791
   54CHL1  H19B 6444   4.981   7.159   9.829  0.8125  0.9127  1.2310
   54CHL1  H19C 6445   5.066   7.115   9.972  2.2623  2.2247 -0.2392
   54CHL1    C1 6446   4.984   6.869   9.883 -0.2971 -0.5157  0.3150
   54CHL1   H1A 6447   4.891   6.915   9.845  0.5237  1.0761  0.1751
   54CHL1   H1B 6448   5.002   6.770   9.835 -3.0509 -0.3030 -1.3402
   54CHL1    C2 6449   4.973   6.856  10.033 -0.0597 -0.3335 -0.3958
   54CHL1   H2A 6450   4.891   6.783  10.047 -0.4636  0.1114 -0.3825
   54CHL1   H2B 6451   4.946   6.945  10.095 -2.0988 -2.2443  1.6387
   54CHL1   C20 6452   5.049   7.106   9.131  0.0800  0.7325  0.0451
   54CHL1   H20 6453   5.059   7.213   9.161 -0.7353  0.5124  1.1888
   54CHL1   C21 6454   4.899   7.079   9.133 -0.2347 -0.1425  0.3022
   54CHL1  H21A 6455   4.854   7.156   9.066  1.5077  2.1153  1.5977
   54CHL1  H21B 6456   4.849   7.093   9.232  0.3249 -2.2655  0.9308
   54CHL1  H21C 6457   4.877   6.977   9.096 -1.2580 -0.0072  0.4927
   54CHL1   C22 6458   5.115   7.099   8.995  0.2880  0.1968 -0.0055
   54CHL1  H22A 6459   5.226   7.098   9.000  0.2691 -0.4546  0.4342
   54CHL1  H22B 6460   5.080   7.002   8.953  0.2974  0.8003 -1.4767
   54CHL1   C23 6461   5.073   7.213   8.900 -0.1080  0.3015 -0.2473
   54CHL1  H23A 6462   4.974   7.186   8.859 -1.4520  1.7614  1.8296
   54CHL1  H23B 6463   5.058   7.296   8.973 -2.5657 -0.4035  0.1250
   54CHL1   C24 6464   5.177   7.251   8.794  0.0528 -0.4153  0.4601
   54CHL1  H24A 6465   5.274   7.272   8.845 -0.0918 -0.2516  0.6690
   54CHL1  H24B 6466   5.189   7.161   8.731  2.2875 -0.3230  0.6533
   54CHL1   C25 6467   5.152   7.372   8.699 -0.4199  0.1840  0.7542
   54CHL1   H25 6468   5.153   7.463   8.763  1.7497 -0.3356  1.5366
   54CHL1   C26 6469   5.268   7.398   8.600  0.4394  0.1556 -0.3735
   54CHL1  H26A 6470   5.260   7.336   8.508  3.0811 -2.0876  0.7497
   54CHL1  H26B 6471   5.259   7.506   8.576  4.0076  1.3398  2.5849
   54CHL1  H26C 6472   5.373   7.389   8.636 -0.0276 -1.2865  0.7404
   54CHL1   C27 6473   5.022   7.366   8.623 -0.0319 -0.1052 -0.0744
   54CHL1  H27A 6474   5.015   7.271   8.565  0.7666 -0.3793  0.2618
   54CHL1  H27B 6475   4.939   7.379   8.695 -0.7585 -1.9812 -0.5248
   54CHL1  H27C 6476   5.009   7.447   8.548  4.5404 -0.8229 -2.0542
   55CHL1    C3 6477   5.371   4.178  10.084  0.0386  0.2148 -0.2573
   55CHL1    H3 6478   5.340   4.280  10.052  1.5135  0.7210 -0.1528
   55CHL1    O3 6479   5.434   4.188  10.214 -0.0759  0.2395  0.4814
   55CHL1   H3' 6480   5.485   4.269  10.221  0.7666 -0.3028  0.7484
   55CHL1    C4 6481   5.252   4.082  10.099 -0.2695 -0.0712  1.4204
   55CHL1   H4A 6482   5.294   3.986  10.137  0.3457 -0.6398 -0.5827
   55CHL1   H4B 6483   5.180   4.139  10.162 -2.1233  0.6392 -1.1667
   55CHL1    C5 6484   5.194   4.048   9.963 -0.3415  0.4761 -0.0867
   55CHL1    C6 6485   5.061   4.058   9.951 -0.0682  0.2466  0.2681
   55CHL1    H6 6486   5.003   4.076  10.043  0.8387 -1.6323  1.2844
   55CHL1    C7 6487   4.990   4.012   9.826 -0.0460  0.1647 -0.5938
   55CHL1   H7A 6488   4.906   3.948   9.862  0.8204  0.4621  2.1878
   55CHL1   H7B 6489   4.945   4.098   9.771  0.6192  0.3886 -0.7898
   55CHL1    C8 6490   5.079   3.931   9.725 -0.2733 -0.2462 -0.4254
   55CHL1    H8 6491   5.073   3.826   9.760 -0.1118 -0.1892 -0.2244
   55CHL1   C14 6492   5.018   3.927   9.590 -0.1901  0.7414 -0.2745
   55CHL1   H14 6493   5.005   4.031   9.554 -3.6415  0.2547 -0.7410
   55CHL1   C15 6494   4.874   3.885   9.587  0.3367 -0.2043  0.0878
   55CHL1  H15A 6495   4.863   3.802   9.660 -0.2196 -0.2562 -0.0554
   55CHL1  H15B 6496   4.809   3.966   9.625  0.0565  0.0925 -1.0021
   55CHL1   C16 6497   4.850   3.863   9.442 -0.0289  0.5281 -0.3422
   55CHL1  H16A 6498   4.811   3.761   9.421 -1.5382  0.3037  2.8595
   55CHL1  H16B 6499   4.776   3.935   9.401  0.8976  0.8702 -1.4672
   55CHL1   C17 6500   4.996   3.858   9.376  1.0381  0.3298  0.2020
   55CHL1   H17 6501   5.009   3.963   9.339 -0.6171  1.0332  1.4999
   55CHL1   C13 6502   5.099   3.855   9.484 -0.4728  0.6945 -0.5040
   55CHL1   C18 6503   5.121   3.708   9.525 -0.5037 -0.6343 -0.1353
   55CHL1  H18A 6504   5.196   3.666   9.456 -0.8586 -0.1971 -0.8029
   55CHL1  H18B 6505   5.174   3.690   9.621  0.4979  0.6501 -0.4179
   55CHL1  H18C 6506   5.025   3.652   9.533 -1.7713  1.4887  0.4305
   55CHL1   C12 6507   5.225   3.928   9.452 -0.2104  0.2645  0.3434
   55CHL1  H12A 6508   5.286   3.904   9.362 -0.6350  0.3879  0.0204
   55CHL1  H12B 6509   5.187   4.022   9.408 -1.6730 -0.9706 -1.1379
   55CHL1   C11 6510   5.305   3.959   9.579  0.1356  0.2498 -0.1040
   55CHL1  H11A 6511   5.355   3.862   9.600 -1.3561 -0.3885  0.7101
   55CHL1  H11B 6512   5.380   4.038   9.559  1.2702  0.0924  2.9443
   55CHL1    C9 6513   5.222   3.999   9.708  0.1248 -0.0223 -0.2292
   55CHL1    H9 6514   5.190   4.102   9.680 -1.0394 -0.3207 -0.0491
   55CHL1   C10 6515   5.291   4.005   9.842 -0.9275 -0.4017  0.3299
   55CHL1   C19 6516   5.343   3.861   9.880 -0.1434 -0.5248 -0.0417
   55CHL1  H19A 6517   5.375   3.860   9.986 -1.4418 -2.4990  0.3722
   55CHL1  H19B 6518   5.266   3.785   9.857 -1.8258  1.1399 -0.1470
   55CHL1  H19C 6519   5.429   3.838   9.813  0.7955  2.9739 -0.2435
   55CHL1    C1 6520   5.413   4.099   9.842 -0.3144 -0.5034  0.3597
   55CHL1   H1A 6521   5.493   4.058   9.777 -1.6544 -1.9536 -0.4327
   55CHL1   H1B 6522   5.373   4.193   9.799  0.8626 -0.0520  0.2225
   55CHL1    C2 6523   5.471   4.128   9.979 -0.9536  0.1042 -0.3082
   55CHL1   H2A 6524   5.543   4.213   9.970 -2.5057  1.7068  1.4678
   55CHL1   H2B 6525   5.527   4.037  10.007 -0.2913  0.8250  0.7981
   55CHL1   C20 6526   5.007   3.752   9.260  0.4903  0.2962 -0.3930
   55CHL1   H20 6527   5.002   3.651   9.305 -1.5716 -0.1993 -1.5886
   55CHL1   C21 6528   5.143   3.757   9.192  0.0301 -0.4044 -0.7357
   55CHL1  H21A 6529   5.159   3.864   9.166 -2.1182  0.1993  0.2267
   55CHL1  H21B 6530   5.161   3.691   9.104 -1.6337 -0.0945 -1.3400
   55CHL1  H21C 6531   5.230   3.735   9.257 -0.3035  1.2634  0.3306
   55CHL1   C22 6532   4.888   3.760   9.167  0.1953 -0.0273 -0.6964
   55CHL1  H22A 6533   4.789   3.755   9.218  1.0115 -1.9915  0.7782
   55CHL1  H22B 6534   4.882   3.866   9.134  1.7952 -0.3776 -2.2872
   55CHL1   C23 6535   4.890   3.654   9.053 -0.4932 -0.0793 -0.3121
   55CHL1  H23A 6536   4.987   3.670   9.001  0.7536  1.6190  2.3342
   55CHL1  H23B 6537   4.885   3.553   9.099  0.8935  0.4231  1.0392
   55CHL1   C24 6538   4.776   3.677   8.950 -0.0025  0.0246 -0.1126
   55CHL1  H24A 6539   4.675   3.667   8.997  0.4953 -0.2589  0.9355
   55CHL1  H24B 6540   4.776   3.783   8.920  0.4233 -0.1624 -0.7901
   55CHL1   C25 6541   4.776   3.589   8.830 -0.0378  0.3643 -0.3343
   55CHL1   H25 6542   4.757   3.488   8.871  0.1442  0.9092  1.1599
   55CHL1   C26 6543   4.666   3.622   8.732  0.1951  1.1735  0.0894
   55CHL1  H26A 6544   4.688   3.720   8.685  1.7845  0.2412 -1.2501
   55CHL1  H26B 6545   4.650   3.544   8.654  1.3913 -0.1583  1.1144
   55CHL1  H26C 6546   4.575   3.633   8.795 -0.1364 -3.7214  0.8912
   55CHL1   C27 6547   4.920   3.602   8.762  0.5499  0.0071  0.7611
   55CHL1  H27A 6548   5.004   3.577   8.831 -0.8207 -0.7192  2.2346
   55CHL1  H27B 6549   4.934   3.531   8.677  0.0475  0.2288  0.4920
   55CHL1  H27C 6550   4.947   3.704   8.730  1.1033  0.2032  1.8066
   56CHL1    C3 6551   4.422   1.027  10.045  0.5684 -0.5482  0.4576
   56CHL1    H3 6552   4.314   1.052  10.056  0.3629 -1.2756  0.1645
   56CHL1    O3 6553   4.477   1.010  10.171  0.3663 -1.1216 -1.0566
   56CHL1   H3' 6554   4.459   1.098  10.202 -0.7496 -0.8267 -2.4299
   56CHL1    C4 6555   4.434   0.903   9.961  0.6145  0.6023  0.5151
   56CHL1   H4A 6556   4.535   0.861   9.978  1.4092  2.9217  2.0847
   56CHL1   H4B 6557   4.372   0.824  10.008  1.5361  0.5372  1.6827
   56CHL1    C5 6558   4.408   0.917   9.820  0.3111  0.0104 -0.2788
   56CHL1    C6 6559   4.336   0.827   9.752  0.9852 -0.0930 -0.5269
   56CHL1    H6 6560   4.285   0.746   9.807  0.5792  0.5770  0.0949
   56CHL1    C7 6561   4.311   0.815   9.605  0.6541 -0.5109 -0.1854
   56CHL1   H7A 6562   4.329   0.711   9.569  3.5985  0.6620 -2.6465
   56CHL1   H7B 6563   4.205   0.838   9.584  0.4829 -1.2120 -0.1068
   56CHL1    C8 6564   4.400   0.916   9.527 -0.0675  1.2019  0.1735
   56CHL1    H8 6565   4.500   0.869   9.518 -0.7539 -0.4128  0.6404
   56CHL1   C14 6566   4.329   0.938   9.391 -0.0067 -0.4299 -0.1428
   56CHL1   H14 6567   4.227   0.978   9.411  1.0888  1.3138  2.5685
   56CHL1   C15 6568   4.294   0.815   9.306  0.1710  0.4391 -0.1552
   56CHL1  H15A 6569   4.385   0.751   9.313 -0.7249 -1.1043 -1.7467
   56CHL1  H15B 6570   4.198   0.769   9.337  0.1377  0.8432  0.3538
   56CHL1   C16 6571   4.274   0.870   9.159  0.4015  0.7162 -0.6027
   56CHL1  H16A 6572   4.342   0.810   9.095  1.0182 -0.5102  1.1157
   56CHL1  H16B 6573   4.167   0.857   9.132  0.4930  2.0003 -1.7082
   56CHL1   C17 6574   4.324   1.019   9.171  0.0156  0.2725  0.1402
   56CHL1   H17 6575   4.232   1.081   9.184  0.1301  0.3272  0.7136
   56CHL1   C13 6576   4.401   1.034   9.298  0.1479  0.0536 -0.5580
   56CHL1   C18 6577   4.543   0.979   9.268 -0.2265 -0.1025 -0.1281
   56CHL1  H18A 6578   4.536   0.881   9.217  0.1140 -1.1000  1.6656
   56CHL1  H18B 6579   4.599   1.043   9.197 -1.1624  0.1572 -0.6543
   56CHL1  H18C 6580   4.612   0.964   9.354 -0.3480  1.2653  0.2274
   56CHL1   C12 6581   4.408   1.169   9.366 -0.1890  0.1500 -0.2907
   56CHL1  H12A 6582   4.470   1.239   9.306  1.9064  0.3821  2.0123
   56CHL1  H12B 6583   4.305   1.211   9.379 -0.8743 -1.7773  0.8927
   56CHL1   C11 6584   4.471   1.159   9.508 -0.3206 -0.1349  0.0616
   56CHL1  H11A 6585   4.575   1.135   9.478 -1.5024 -1.9992 -3.1000
   56CHL1  H11B 6586   4.477   1.253   9.566  2.4588 -0.2542  0.0828
   56CHL1    C9 6587   4.407   1.046   9.594 -0.2932 -0.3597 -0.4038
   56CHL1    H9 6588   4.301   1.071   9.616  0.0512 -0.6592  1.7851
   56CHL1   C10 6589   4.476   1.035   9.740  0.3278  1.1907  0.8960
   56CHL1   C19 6590   4.626   1.004   9.728  0.2376 -0.9508 -0.0891
   56CHL1  H19A 6591   4.669   1.007   9.831 -2.1023  1.3830  0.9413
   56CHL1  H19B 6592   4.654   0.926   9.654 -0.1995 -0.5279 -0.7060
   56CHL1  H19C 6593   4.681   1.095   9.695  0.1709 -1.8808 -2.9907
   56CHL1    C1 6594   4.447   1.159   9.832  0.2277  0.2199  0.0073
   56CHL1   H1A 6595   4.495   1.249   9.788 -2.6771  0.8263 -2.2669
   56CHL1   H1B 6596   4.339   1.185   9.821  0.4796  1.3696  0.0779
   56CHL1    C2 6597   4.493   1.142   9.974  0.8721 -0.4518  0.6150
   56CHL1   H2A 6598   4.471   1.234  10.032 -0.3589  0.2128 -0.8205
   56CHL1   H2B 6599   4.603   1.127   9.979  0.8975 -0.4650  0.1191
   56CHL1   C20 6600   4.387   1.060   9.039 -0.1853 -0.1748  0.1149
   56CHL1   H20 6601   4.476   0.998   9.015 -0.4689  0.1772 -2.1115
   56CHL1   C21 6602   4.429   1.209   9.046  0.4012  0.7063 -0.4339
   56CHL1  H21A 6603   4.528   1.214   9.097  2.2204 -0.5846 -3.5299
   56CHL1  H21B 6604   4.348   1.262   9.101  0.0025  0.1089 -0.4350
   56CHL1  H21C 6605   4.450   1.249   8.944 -0.4598 -1.0049 -1.3231
   56CHL1   C22 6606   4.291   1.048   8.910 -0.5501  0.2782 -0.4835
   56CHL1  H22A 6607   4.343   1.094   8.824 -0.2628 -1.3161 -1.2059
   56CHL1  H22B 6608   4.275   0.941   8.882 -1.9448  1.0145 -2.7289
   56CHL1   C23 6609   4.149   1.101   8.930 -0.5627 -0.5015 -0.2147
   56CHL1  H23A 6610   4.098   1.032   8.999 -1.5691  1.3749  0.9963
   56CHL1  H23B 6611   4.163   1.197   8.984  0.3037 -0.1927 -0.9388
   56CHL1   C24 6612   4.077   1.118   8.797  0.4814 -0.3773 -0.1521
   56CHL1  H24A 6613   4.104   1.210   8.740  1.3703  0.2506  1.2394
   56CHL1  H24B 6614   4.100   1.032   8.730 -0.6554 -0.7275 -0.1129
   56CHL1   C25 6615   3.925   1.119   8.803  0.2800  0.5106 -0.2504
   56CHL1   H25 6616   3.905   1.205   8.871 -0.3165 -1.4812  2.2731
   56CHL1   C26 6617   3.869   1.128   8.661 -0.1398 -0.3414  0.0358
   56CHL1  H26A 6618   3.918   1.219   8.619  0.3619 -0.8160 -0.4090
   56CHL1  H26B 6619   3.901   1.041   8.601 -0.2106  0.1873 -0.7929
   56CHL1  H26C 6620   3.759   1.146   8.666 -0.0248  0.2000  0.7648
   56CHL1   C27 6621   3.864   0.993   8.860 -0.2102  0.0338  0.0543
   56CHL1  H27A 6622   3.892   0.907   8.795 -0.5639 -0.8509  1.0515
   56CHL1  H27B 6623   3.897   0.954   8.959 -0.3977  0.3316  0.2384
   56CHL1  H27C 6624   3.755   1.010   8.847  0.2028  1.4473 -2.0506
   57CHL1    C3 6625   4.790   4.856  10.063  0.3464 -0.5422 -0.1565
   57CHL1    H3 6626   4.798   4.749  10.035  3.1420 -0.6759  0.7679
   57CHL1    O3 6627   4.765   4.878  10.201  0.2472  0.2297  0.4424
   57CHL1   H3' 6628   4.745   4.793  10.240  1.5072 -0.6748 -0.7814
   57CHL1    C4 6629   4.928   4.915  10.025  0.1091 -0.2604 -0.0948
   57CHL1   H4A 6630   4.950   5.019  10.056  0.6593 -0.6357  0.8098
   57CHL1   H4B 6631   5.000   4.860  10.088  1.7532  1.3891 -0.4437
   57CHL1    C5 6632   4.960   4.915   9.878 -0.4167 -0.2645 -0.1220
   57CHL1    C6 6633   5.079   4.869   9.837 -0.5954  0.1678  0.3682
   57CHL1    H6 6634   5.148   4.835   9.916  0.0399  2.8703  1.0790
   57CHL1    C7 6635   5.122   4.847   9.699  0.0347  0.5911  0.2436
   57CHL1   H7A 6636   5.224   4.892   9.695  0.1785  0.1870 -1.6020
   57CHL1   H7B 6637   5.134   4.740   9.674 -2.0445  0.0064  1.5113
   57CHL1    C8 6638   5.030   4.923   9.599 -0.6893 -0.2520  0.4574
   57CHL1    H8 6639   5.067   5.028   9.603  0.5124 -0.5318 -1.7605
   57CHL1   C14 6640   5.045   4.857   9.459 -0.3764 -0.1115  0.0010
   57CHL1   H14 6641   5.023   4.749   9.460 -0.0717 -0.1918 -0.9090
   57CHL1   C15 6642   5.187   4.859   9.406 -0.1293  0.2518 -0.0607
   57CHL1  H15A 6643   5.216   4.966   9.418 -0.2821  0.2543  0.2975
   57CHL1  H15B 6644   5.255   4.788   9.458 -1.0728 -0.5307  0.1373
   57CHL1   C16 6645   5.169   4.831   9.253  0.3467  0.1249 -0.0274
   57CHL1  H16A 6646   5.233   4.900   9.194  1.5849 -2.2922 -1.6741
   57CHL1  H16B 6647   5.184   4.726   9.222 -3.8330  0.3783 -3.9488
   57CHL1   C17 6648   5.015   4.842   9.224  0.0352 -0.1770  0.3203
   57CHL1   H17 6649   4.975   4.741   9.244  2.3630 -1.1422  0.3704
   57CHL1   C13 6650   4.954   4.911   9.346  0.1323 -0.3006 -1.3027
   57CHL1   C18 6651   4.981   5.062   9.342  0.5822 -0.2605  0.5371
   57CHL1  H18A 6652   4.976   5.115   9.440  1.0644 -1.2768  1.1350
   57CHL1  H18B 6653   5.080   5.095   9.305  0.6415  0.7507  1.5420
   57CHL1  H18C 6654   4.903   5.111   9.281 -0.2385 -0.8845  1.0608
   57CHL1   C12 6655   4.815   4.871   9.396  0.1489  0.0053 -0.2806
   57CHL1  H12A 6656   4.734   4.900   9.325 -1.2469 -0.6029  1.0021
   57CHL1  H12B 6657   4.811   4.764   9.425  0.2033  0.1845  0.4065
   57CHL1   C11 6658   4.783   4.934   9.532  0.1651 -0.5400 -0.8224
   57CHL1  H11A 6659   4.778   5.044   9.516 -0.8361 -0.3937  0.3709
   57CHL1  H11B 6660   4.677   4.918   9.558  0.7514  0.9730  3.1866
   57CHL1    C9 6661   4.884   4.901   9.641 -0.4873  0.2742  0.9722
   57CHL1    H9 6662   4.877   4.790   9.653  0.6150  0.0156 -0.5439
   57CHL1   C10 6663   4.846   4.962   9.783  0.7982  0.4521  0.1921
   57CHL1   C19 6664   4.843   5.115   9.781  0.2855 -0.6483 -0.1740
   57CHL1  H19A 6665   4.767   5.152   9.709 -0.5327 -2.1696 -0.1437
   57CHL1  H19B 6666   4.823   5.153   9.883  1.1198 -2.3454  0.6561
   57CHL1  H19C 6667   4.940   5.155   9.746  0.4405 -1.0728 -0.2414
   57CHL1    C1 6668   4.703   4.898   9.828  0.3083 -1.0227  0.4488
   57CHL1   H1A 6669   4.630   4.942   9.757 -1.0071 -3.0567  0.4472
   57CHL1   H1B 6670   4.693   4.791   9.799  0.9229 -0.2638 -3.0124
   57CHL1    C2 6671   4.678   4.921   9.978 -0.2309  0.0773 -0.2311
   57CHL1   H2A 6672   4.582   4.882  10.017  0.0872 -0.5566 -0.0668
   57CHL1   H2B 6673   4.674   5.030  10.002 -1.2041 -0.2313  1.1766
   57CHL1   C20 6674   4.983   4.893   9.081 -0.0639  0.2331  0.6640
   57CHL1   H20 6675   5.020   4.998   9.072 -0.1095  0.2710  0.8935
   57CHL1   C21 6676   4.834   4.916   9.053  0.2431  0.6634  0.2815
   57CHL1  H21A 6677   4.782   4.818   9.056  1.9640 -0.3503 -1.1456
   57CHL1  H21B 6678   4.821   4.963   8.953  2.1194 -1.4549 -1.0748
   57CHL1  H21C 6679   4.793   4.990   9.125  1.3000  0.9634  0.5862
   57CHL1   C22 6680   5.061   4.823   8.966 -0.5390  0.3605 -0.4783
   57CHL1  H22A 6681   5.163   4.806   9.007 -1.4333 -1.1120  1.2825
   57CHL1  H22B 6682   5.006   4.727   8.959 -0.4964  0.2588  0.4626
   57CHL1   C23 6683   5.061   4.894   8.837 -0.7478 -0.4898 -0.2894
   57CHL1  H23A 6684   4.964   4.877   8.786 -0.4442 -1.1076 -0.6645
   57CHL1  H23B 6685   5.077   5.004   8.845 -0.6613 -0.4207 -1.3056
   57CHL1   C24 6686   5.163   4.833   8.741  0.0887 -0.7763  0.4929
   57CHL1  H24A 6687   5.261   4.808   8.787  0.2333 -0.8707  0.1383
   57CHL1  H24B 6688   5.119   4.743   8.694  0.6526 -1.2149  0.7848
   57CHL1   C25 6689   5.207   4.923   8.625  0.3149 -0.2199  0.0784
   57CHL1   H25 6690   5.233   5.025   8.660 -0.8375  0.2213 -0.3020
   57CHL1   C26 6691   5.325   4.861   8.545 -0.4878 -0.1661 -0.1878
   57CHL1  H26A 6692   5.297   4.766   8.494  0.4459  0.3592 -1.7578
   57CHL1  H26B 6693   5.366   4.919   8.460  0.4310 -0.8625 -0.2448
   57CHL1  H26C 6694   5.406   4.845   8.620  1.0853  0.1635 -1.7481
   57CHL1   C27 6695   5.090   4.941   8.526  0.0820  0.0687 -0.3993
   57CHL1  H27A 6696   5.089   5.040   8.476  0.1195 -1.1216 -2.9182
   57CHL1  H27B 6697   5.084   4.860   8.451 -2.3725  1.1847 -1.5209
   57CHL1  H27C 6698   4.996   4.940   8.586  0.4227  0.3801  0.1485
   58CHL1    C3 6699   1.348   1.883   9.931  0.3041  0.2335  0.0569
   58CHL1    H3 6700   1.439   1.880   9.868  0.4227 -0.8176  0.2595
   58CHL1    O3 6701   1.387   1.906  10.065 -0.1795  0.1726 -0.2571
   58CHL1   H3' 6702   1.325   1.858  10.120  1.4242  0.6423  2.0640
   58CHL1    C4 6703   1.280   2.014   9.882 -0.6763  0.1743  0.0358
   58CHL1   H4A 6704   1.197   2.030   9.954 -2.8251 -1.8693 -1.8271
   58CHL1   H4B 6705   1.359   2.092   9.887 -0.3213 -0.2504  2.2191
   58CHL1    C5 6706   1.224   1.997   9.747 -1.2363 -0.1859  0.6749
   58CHL1    C6 6707   1.261   2.080   9.644  0.3244  0.2989 -0.4500
   58CHL1    H6 6708   1.326   2.168   9.657  1.9029 -0.2550 -3.6633
   58CHL1    C7 6709   1.203   2.077   9.505 -0.4517  0.0500 -0.8239
   58CHL1   H7A 6710   1.171   2.180   9.476  1.9808  1.0519 -0.1488
   58CHL1   H7B 6711   1.280   2.040   9.435  0.7196 -0.9868  0.9349
   58CHL1    C8 6712   1.083   1.977   9.495  0.5299 -1.0649 -0.9213
   58CHL1    H8 6713   0.994   2.022   9.543  1.1242 -0.8306 -0.0121
   58CHL1   C14 6714   1.059   1.947   9.350  0.3224  0.6418  0.1624
   58CHL1   H14 6715   1.155   1.907   9.312 -0.9208 -0.6498 -1.8336
   58CHL1   C15 6716   1.021   2.066   9.262 -0.3330  0.6344  0.3851
   58CHL1  H15A 6717   0.941   2.130   9.305 -3.5124 -0.4284 -3.3089
   58CHL1  H15B 6718   1.111   2.125   9.234  0.2160 -0.9220 -1.3447
   58CHL1   C16 6719   0.972   1.997   9.128  0.1773 -0.7665  0.2360
   58CHL1  H16A 6720   0.873   2.035   9.095 -0.3305 -2.9270 -0.9201
   58CHL1  H16B 6721   1.036   2.019   9.040  0.9434  0.6020  1.0903
   58CHL1   C17 6722   0.955   1.853   9.162  0.1355 -0.9259  0.1622
   58CHL1   H17 6723   1.046   1.795   9.134  1.4139 -0.1343  2.4145
   58CHL1   C13 6724   0.949   1.843   9.313 -0.4605  0.3837  0.1505
   58CHL1   C18 6725   0.807   1.890   9.363 -0.2855 -0.2458 -0.5847
   58CHL1  H18A 6726   0.810   1.889   9.475  2.5707  0.1447 -0.5768
   58CHL1  H18B 6727   0.790   1.996   9.332  2.3106  0.7203  0.9673
   58CHL1  H18C 6728   0.726   1.827   9.322 -0.6698 -0.1960  0.0750
   58CHL1   C12 6729   0.996   1.709   9.379  0.1815 -0.1735  0.5800
   58CHL1  H12A 6730   0.917   1.632   9.366 -0.6224  0.7081  0.1862
   58CHL1  H12B 6731   1.093   1.681   9.331  0.5216 -0.6556  1.5269
   58CHL1   C11 6732   1.008   1.733   9.532 -0.2503  0.5497  0.5191
   58CHL1  H11A 6733   0.911   1.744   9.585 -1.3908 -1.4015 -0.9972
   58CHL1  H11B 6734   1.049   1.641   9.578 -1.2137 -0.7392 -1.0539
   58CHL1    C9 6735   1.107   1.847   9.565 -0.9574 -0.5420  0.9438
   58CHL1    H9 6736   1.196   1.801   9.518 -1.6614  0.4113 -1.4511
   58CHL1   C10 6737   1.136   1.876   9.717 -0.4420  0.2126  0.1107
   58CHL1   C19 6738   1.002   1.894   9.786 -0.0234 -0.4477 -0.3787
   58CHL1  H19A 6739   1.011   1.927   9.892  1.8569 -0.7142 -0.4078
   58CHL1  H19B 6740   0.956   1.973   9.723  3.7432  3.0212  0.7775
   58CHL1  H19C 6741   0.936   1.805   9.779 -1.6170  0.7399 -1.0566
   58CHL1    C1 6742   1.198   1.751   9.785 -0.0426 -0.6866  0.9457
   58CHL1   H1A 6743   1.128   1.665   9.780  0.5885 -1.1689  0.1280
   58CHL1   H1B 6744   1.281   1.723   9.717 -1.3711  1.5450 -1.8144
   58CHL1    C2 6745   1.254   1.765   9.925 -0.1350 -0.2378 -0.0753
   58CHL1   H2A 6746   1.298   1.666   9.948  2.2093  0.3919 -1.4942
   58CHL1   H2B 6747   1.167   1.784   9.991 -0.9037  0.0664 -1.1409
   58CHL1   C20 6748   0.846   1.789   9.078  0.3013  0.4007  0.0780
   58CHL1   H20 6749   0.748   1.830   9.110 -0.1313 -0.6617  0.1489
   58CHL1   C21 6750   0.848   1.632   9.088  0.0809 -0.3422  0.6394
   58CHL1  H21A 6751   0.946   1.591   9.055 -0.8630 -1.0253 -1.4408
   58CHL1  H21B 6752   0.784   1.576   9.017  2.3191 -0.9489 -1.0396
   58CHL1  H21C 6753   0.808   1.605   9.188 -1.7818  0.3098  0.1025
   58CHL1   C22 6754   0.859   1.830   8.926  0.6378  0.2295 -0.2607
   58CHL1  H22A 6755   0.766   1.789   8.880  0.7721 -1.0519  0.5509
   58CHL1  H22B 6756   0.846   1.940   8.924 -1.3138  0.1361  1.9823
   58CHL1   C23 6757   0.994   1.801   8.859  0.4003  0.2660 -0.0321
   58CHL1  H23A 6758   1.065   1.869   8.912  1.6828 -0.6086 -0.5834
   58CHL1  H23B 6759   1.024   1.694   8.863  1.4591  0.3643 -3.0266
   58CHL1   C24 6760   0.985   1.835   8.710 -0.2347 -0.3454  0.3860
   58CHL1  H24A 6761   0.890   1.794   8.668  1.1833 -4.2190  0.5707
   58CHL1  H24B 6762   0.971   1.945   8.712 -0.9682 -0.4326  1.5418
   58CHL1   C25 6763   1.110   1.801   8.630  0.6109 -0.6259 -0.1620
   58CHL1   H25 6764   1.145   1.699   8.659 -1.4006 -1.0381  1.0255
   58CHL1   C26 6765   1.085   1.815   8.481  0.1773  0.7593  0.0591
   58CHL1  H26A 6766   1.039   1.910   8.446  2.3166  2.2926  1.1420
   58CHL1  H26B 6767   1.182   1.804   8.427  0.1003  0.0778  0.0478
   58CHL1  H26C 6768   1.022   1.731   8.446  0.6493  0.3171  0.2547
   58CHL1   C27 6769   1.228   1.898   8.664  0.1290 -0.4263  0.1712
   58CHL1  H27A 6770   1.318   1.862   8.609 -0.7702  1.3735 -2.6613
   58CHL1  H27B 6771   1.198   2.000   8.632  0.4808 -0.8891 -1.7636
   58CHL1  H27C 6772   1.240   1.913   8.774  0.4523  1.8565 -0.1208
   59CHL1    C3 6773   1.276   1.123  10.079 -1.1213  0.4034 -0.0339
   59CHL1    H3 6774   1.381   1.107  10.045 -0.3824  1.5680  1.6009
   59CHL1    O3 6775   1.290   1.125  10.220  0.0737 -0.6541 -0.1060
   59CHL1   H3' 6776   1.205   1.124  10.264 -1.1859  0.2781 -2.3719
   59CHL1    C4 6777   1.226   1.257  10.016  0.0632 -0.6304  0.3546
   59CHL1   H4A 6778   1.131   1.286  10.066 -1.0210 -0.2120 -1.8158
   59CHL1   H4B 6779   1.293   1.336  10.055  0.1040 -0.8084  0.6476
   59CHL1    C5 6780   1.200   1.255   9.870 -0.1924 -0.2258 -0.0577
   59CHL1    C6 6781   1.250   1.353   9.794 -0.3034 -0.7965  1.2051
   59CHL1    H6 6782   1.296   1.439   9.845  0.1299 -0.4338  0.2184
   59CHL1    C7 6783   1.217   1.366   9.648 -0.1090  0.1582 -0.2455
   59CHL1   H7A 6784   1.184   1.469   9.620  0.8951  0.3533 -0.7640
   59CHL1   H7B 6785   1.308   1.342   9.589 -2.5974 -1.4463 -3.7497
   59CHL1    C8 6786   1.099   1.272   9.607 -0.4154  0.4311 -0.5048
   59CHL1    H8 6787   1.009   1.325   9.643  1.6802  2.6444  1.8606
   59CHL1   C14 6788   1.107   1.239   9.457  1.2679  0.3678 -0.2314
   59CHL1   H14 6789   1.210   1.201   9.442  0.3062 -2.1036 -1.0783
   59CHL1   C15 6790   1.096   1.362   9.361 -0.4735 -0.5106 -0.0134
   59CHL1  H15A 6791   1.010   1.428   9.383 -0.2710 -0.1312 -0.3357
   59CHL1  H15B 6792   1.184   1.430   9.367 -0.0815 -0.9714 -0.4284
   59CHL1   C16 6793   1.083   1.299   9.222  0.7358  0.0378 -0.5859
   59CHL1  H16A 6794   0.998   1.348   9.170 -0.3791 -2.0190 -0.8067
   59CHL1  H16B 6795   1.178   1.311   9.167  1.3169 -2.0570 -0.1505
   59CHL1   C17 6796   1.051   1.143   9.250  0.4456 -0.1045  0.3466
   59CHL1   H17 6797   1.150   1.092   9.242  0.5252  0.0587  0.2725
   59CHL1   C13 6798   1.012   1.127   9.397 -0.1697  0.4200  0.4042
   59CHL1   C18 6799   0.862   1.164   9.410 -0.2002  0.1992  0.4819
   59CHL1  H18A 6800   0.850   1.200   9.514 -1.2524 -1.5858  1.0311
   59CHL1  H18B 6801   0.838   1.250   9.344 -0.6067 -0.1717  0.1390
   59CHL1  H18C 6802   0.803   1.071   9.392  1.2838 -0.7414  0.2427
   59CHL1   C12 6803   1.055   0.993   9.464  0.5286 -0.4288  0.2388
   59CHL1  H12A 6804   0.996   0.904   9.434  0.0640  0.2646 -0.9686
   59CHL1  H12B 6805   1.159   0.960   9.445  0.7988  1.2289 -1.4628
   59CHL1   C11 6806   1.033   1.020   9.611 -0.1990  0.2308 -0.5487
   59CHL1  H11A 6807   0.931   1.055   9.638 -0.2285  1.0281 -1.6291
   59CHL1  H11B 6808   1.048   0.924   9.665  2.7635  0.1245 -1.4062
   59CHL1    C9 6809   1.125   1.132   9.671  0.9700 -0.0471 -0.8612
   59CHL1    H9 6810   1.225   1.091   9.643 -0.7988 -4.5420 -1.5306
   59CHL1   C10 6811   1.123   1.144   9.820  0.3736 -0.2509 -0.2249
   59CHL1   C19 6812   0.979   1.165   9.867 -0.0890  0.1254  0.4831
   59CHL1  H19A 6813   0.978   1.149   9.977  0.8881  1.0110  0.6327
   59CHL1  H19B 6814   0.927   1.261   9.845 -0.7126 -0.5080 -0.9463
   59CHL1  H19C 6815   0.907   1.089   9.830  0.8477 -0.5251 -0.0229
   59CHL1    C1 6816   1.173   1.002   9.886  1.2460  0.1417  0.1526
   59CHL1   H1A 6817   1.109   0.917   9.855  1.1263  0.3728 -0.2345
   59CHL1   H1B 6818   1.269   1.000   9.829  1.5226  0.9847  0.5727
   59CHL1    C2 6819   1.187   1.001  10.046 -0.0401  0.5615  0.1996
   59CHL1   H2A 6820   1.235   0.907  10.080  0.3246  1.2604  1.7433
   59CHL1   H2B 6821   1.092   1.024  10.099  1.1511  2.7280  1.5323
   59CHL1   C20 6822   0.954   1.081   9.138 -0.3713 -0.6608  0.5487
   59CHL1   H20 6823   0.849   1.118   9.142 -0.5845 -0.6990 -2.5114
   59CHL1   C21 6824   0.949   0.927   9.150  0.0177 -0.1476  0.0684
   59CHL1  H21A 6825   1.043   0.886   9.192  0.2484 -0.3470 -0.6216
   59CHL1  H21B 6826   0.951   0.874   9.052 -1.1056  0.5312 -0.3472
   59CHL1  H21C 6827   0.866   0.902   9.219 -0.2670 -1.3182 -0.6580
   59CHL1   C22 6828   1.011   1.131   8.998  0.1842  0.2548  0.0671
   59CHL1  H22A 6829   1.015   1.242   8.996  1.2165  0.2305 -1.6258
   59CHL1  H22B 6830   1.114   1.094   8.980  0.4560  0.5238  1.0442
   59CHL1   C23 6831   0.916   1.090   8.877  0.0429  0.7169  0.0759
   59CHL1  H23A 6832   0.887   0.983   8.887  0.0954  0.6504 -0.4475
   59CHL1  H23B 6833   0.821   1.146   8.885 -1.5367 -1.8321  0.4935
   59CHL1   C24 6834   0.972   1.115   8.733 -0.6825 -0.4511 -0.5727
   59CHL1  H24A 6835   1.044   1.033   8.714  0.6226 -0.7602  4.3595
   59CHL1  H24B 6836   0.896   1.092   8.655 -0.7033 -1.2812 -0.3189
   59CHL1   C25 6837   1.031   1.256   8.704  0.0246  0.4123  0.3061
   59CHL1   H25 6838   1.119   1.259   8.772  1.0977  0.6703 -1.0551
   59CHL1   C26 6839   1.102   1.258   8.570  0.1648 -0.6315 -0.0244
   59CHL1  H26A 6840   1.030   1.288   8.490 -0.8443  1.5973  1.5950
   59CHL1  H26B 6841   1.179   1.338   8.565 -1.1266  0.6814  0.4048
   59CHL1  H26C 6842   1.168   1.172   8.546  1.9190  0.2262  1.4505
   59CHL1   C27 6843   0.946   1.379   8.728 -0.6706  0.6687 -0.2215
   59CHL1  H27A 6844   1.011   1.468   8.737 -0.9061  1.1474 -2.5172
   59CHL1  H27B 6845   0.879   1.385   8.639 -0.0743 -2.3927 -1.0028
   59CHL1  H27C 6846   0.881   1.352   8.814  0.4765 -1.8914 -0.0806
   60CHL1    C3 6847   0.236   1.339  10.309 -0.9346 -0.1772 -0.3611
   60CHL1    H3 6848   0.277   1.440  10.330 -1.3162 -0.1002  0.0254
   60CHL1    O3 6849   0.255   1.255  10.418  0.3760  0.8018 -0.9629
   60CHL1   H3' 6850   0.177   1.198  10.421  0.3206  0.8966 -0.1616
   60CHL1    C4 6851   0.083   1.367  10.280 -0.0179  0.2825  0.4458
   60CHL1   H4A 6852   0.024   1.273  10.277  2.1863 -1.1676 -2.6104
   60CHL1   H4B 6853   0.041   1.420  10.369 -2.2581  1.2379 -1.0935
   60CHL1    C5 6854   0.070   1.444  10.147 -0.9236  0.1179  0.1506
   60CHL1    C6 6855  -0.009   1.554  10.148 -0.2538 -0.6192  0.3640
   60CHL1    H6 6856  -0.059   1.594  10.237 -2.5458 -1.8509 -0.2947
   60CHL1    C7 6857  -0.057   1.623  10.020 -0.2558  0.3013 -0.0711
   60CHL1   H7A 6858  -0.166   1.646  10.025 -0.3836 -0.4034  0.7337
   60CHL1   H7B 6859  -0.002   1.719  10.016  1.1195 -0.4755 -4.0603
   60CHL1    C8 6860  -0.014   1.546   9.890 -0.6086  0.4480 -0.2371
   60CHL1    H8 6861  -0.083   1.460   9.875  0.7906 -0.2717 -3.3310
   60CHL1   C14 6862  -0.013   1.638   9.775  0.7136 -0.2390  0.3885
   60CHL1   H14 6863   0.058   1.717   9.806 -2.4930  2.1577  2.2778
   60CHL1   C15 6864  -0.141   1.722   9.748 -0.4135  0.4594 -0.7749
   60CHL1  H15A 6865  -0.233   1.663   9.765 -0.3285  0.9298  1.7209
   60CHL1  H15B 6866  -0.139   1.813   9.812 -0.8315  1.3650 -2.0227
   60CHL1   C16 6867  -0.125   1.762   9.600  0.3366  0.1748  0.5155
   60CHL1  H16A 6868  -0.215   1.719   9.552 -0.1179  0.0861  1.4196
   60CHL1  H16B 6869  -0.136   1.872   9.586  0.1741  0.4960  2.7409
   60CHL1   C17 6870   0.001   1.691   9.541 -1.0092 -0.7057  0.2559
   60CHL1   H17 6871   0.076   1.770   9.565  0.5561 -1.3686 -2.1172
   60CHL1   C13 6872   0.030   1.576   9.638  0.8049  0.6505 -0.2275
   60CHL1   C18 6873  -0.064   1.457   9.603  0.2716  0.3805  0.7041
   60CHL1  H18A 6874  -0.067   1.367   9.669  0.4432 -0.6903 -0.6979
   60CHL1  H18B 6875  -0.166   1.496   9.582 -0.3728 -0.5944  1.8831
   60CHL1  H18C 6876  -0.024   1.414   9.509 -1.0284  1.6678 -0.4898
   60CHL1   C12 6877   0.179   1.524   9.656  0.1338  0.2254  0.3070
   60CHL1  H12A 6878   0.217   1.469   9.567  1.8026  0.1048  1.0657
   60CHL1  H12B 6879   0.233   1.621   9.659  0.9444  0.0280 -3.2596
   60CHL1   C11 6880   0.192   1.428   9.777  0.0178 -0.7977 -0.0734
   60CHL1  H11A 6881   0.137   1.337   9.745  0.3555 -0.2661 -2.3939
   60CHL1  H11B 6882   0.294   1.391   9.798  0.5832  0.6113 -0.1865
   60CHL1    C9 6883   0.128   1.491   9.906  0.0709  0.3163 -0.0504
   60CHL1    H9 6884   0.193   1.576   9.935 -1.6183  2.5764 -2.4390
   60CHL1   C10 6885   0.138   1.384  10.024  0.5742 -0.0938  0.8702
   60CHL1   C19 6886   0.070   1.250   9.985 -0.1533  0.6190 -0.3754
   60CHL1  H19A 6887  -0.019   1.259   9.919  0.3354  2.2622 -0.8568
   60CHL1  H19B 6888   0.149   1.184   9.944  2.5932  1.6617  2.8221
   60CHL1  H19C 6889   0.038   1.196  10.076 -0.1259  2.0923  0.5433
   60CHL1    C1 6890   0.287   1.360  10.061 -0.4841 -0.1501  1.1241
   60CHL1   H1A 6891   0.340   1.311   9.976 -0.4901  2.5101 -0.5112
   60CHL1   H1B 6892   0.342   1.455  10.080 -1.4403  0.8994 -1.0801
   60CHL1    C2 6893   0.311   1.279  10.190  0.3538  0.0480  0.3316
   60CHL1   H2A 6894   0.418   1.274  10.220  0.2071  1.1148  1.0684
   60CHL1   H2B 6895   0.273   1.175  10.179 -2.1987  0.8659  0.8223
   60CHL1   C20 6896  -0.002   1.668   9.391  0.1031  0.6899 -0.2771
   60CHL1   H20 6897  -0.079   1.593   9.365  0.6068  0.9792 -2.8628
   60CHL1   C21 6898   0.131   1.620   9.354 -0.6655 -0.0377  0.4075
   60CHL1  H21A 6899   0.212   1.690   9.383  0.7280 -0.9071 -1.2073
   60CHL1  H21B 6900   0.136   1.602   9.245 -1.2637 -0.1544  0.3963
   60CHL1  H21C 6901   0.143   1.515   9.389 -0.3324  0.3050  1.3472
   60CHL1   C22 6902  -0.033   1.805   9.314  0.3065  0.5041 -0.2705
   60CHL1  H22A 6903  -0.133   1.839   9.349  0.0705  0.6516 -1.0694
   60CHL1  H22B 6904   0.040   1.884   9.340  0.4973  0.1136  0.4033
   60CHL1   C23 6905  -0.058   1.790   9.165 -0.3226 -0.4340  0.7442
   60CHL1  H23A 6906   0.032   1.753   9.111 -2.6535 -3.1038 -1.6610
   60CHL1  H23B 6907  -0.127   1.706   9.142 -0.2348 -0.4952  0.7076
   60CHL1   C24 6908  -0.119   1.921   9.102 -0.3012  0.2468  0.1081
   60CHL1  H24A 6909  -0.217   1.931   9.154 -0.2577 -0.9450  0.4486
   60CHL1  H24B 6910  -0.060   2.014   9.118 -0.2338  1.2578 -4.5832
   60CHL1   C25 6911  -0.139   1.904   8.950  0.1106  0.1275  0.2799
   60CHL1   H25 6912  -0.197   1.809   8.943  1.4975 -0.7447  0.2348
   60CHL1   C26 6913  -0.208   2.028   8.896  0.0590  0.2369  0.8101
   60CHL1  H26A 6914  -0.286   2.075   8.960  0.1253 -1.2734  2.0471
   60CHL1  H26B 6915  -0.126   2.104   8.895 -0.2987  0.6594  1.7973
   60CHL1  H26C 6916  -0.240   1.997   8.795  0.0497 -0.9655  1.1756
   60CHL1   C27 6917  -0.002   1.888   8.876 -0.2169  0.5537  0.1896
   60CHL1  H27A 6918   0.070   1.968   8.904 -0.1544  0.8807 -0.8683
   60CHL1  H27B 6919   0.051   1.794   8.905 -0.6691  0.2773  0.1270
   60CHL1  H27C 6920  -0.014   1.893   8.766  0.6487  0.6539  0.0891
   61CHL1    C3 6921   4.515   0.016  10.238 -0.4154 -0.7118  0.2110
   61CHL1    H3 6922   4.540   0.123  10.251  0.5611 -1.0998  1.8030
   61CHL1    O3 6923   4.518  -0.034  10.366  0.1903  0.7375  0.8179
   61CHL1   H3' 6924   4.428  -0.031  10.397 -0.2255  0.9034 -0.3464
   61CHL1    C4 6925   4.375  -0.006  10.175 -0.4866 -0.2006  0.1559
   61CHL1   H4A 6926   4.361  -0.116  10.178  3.4067 -0.7968  1.6300
   61CHL1   H4B 6927   4.300   0.043  10.241  0.8843 -0.4284  1.9301
   61CHL1    C5 6928   4.370   0.043  10.034 -0.7022 -0.6347 -0.5883
   61CHL1    C6 6929   4.280   0.132  10.011 -0.1960 -0.0361 -0.4992
   61CHL1    H6 6930   4.218   0.165  10.096  0.3514  1.9230 -0.8103
   61CHL1    C7 6931   4.257   0.210   9.882  0.1203 -0.2295  0.6132
   61CHL1   H7A 6932   4.148   0.210   9.858 -0.0433 -0.5714  1.3458
   61CHL1   H7B 6933   4.288   0.316   9.897 -1.3833  0.7241 -2.2489
   61CHL1    C8 6934   4.344   0.158   9.765 -1.2356  0.4757  0.1795
   61CHL1    H8 6935   4.294   0.065   9.731 -1.4679  0.4545  0.5769
   61CHL1   C14 6936   4.358   0.265   9.653  0.1684  0.0007 -0.9409
   61CHL1   H14 6937   4.426   0.342   9.696  1.1037 -1.4207  0.2230
   61CHL1   C15 6938   4.236   0.338   9.607 -0.0901 -0.1035 -0.2627
   61CHL1  H15A 6939   4.165   0.258   9.577 -0.2580 -0.1230  0.1684
   61CHL1  H15B 6940   4.194   0.401   9.688 -2.7230  1.5207 -2.7436
   61CHL1   C16 6941   4.281   0.402   9.475  1.0647 -0.2633 -0.4148
   61CHL1  H16A 6942   4.201   0.378   9.401 -0.3853  1.9621  0.3071
   61CHL1  H16B 6943   4.275   0.513   9.483 -2.1541 -0.3715  0.1175
   61CHL1   C17 6944   4.411   0.332   9.435 -0.2605 -0.2082  0.0842
   61CHL1   H17 6945   4.484   0.403   9.479 -1.8958  0.5986  1.6333
   61CHL1   C13 6946   4.425   0.209   9.521 -0.2207 -0.6876 -0.6409
   61CHL1   C18 6947   4.347   0.089   9.460 -0.2561  0.5185 -0.0717
   61CHL1  H18A 6948   4.257   0.131   9.409 -1.0391  0.0181  0.8527
   61CHL1  H18B 6949   4.396   0.032   9.379  0.6265  0.8322  0.2332
   61CHL1  H18C 6950   4.315   0.015   9.536 -2.6927 -0.0726 -1.5686
   61CHL1   C12 6951   4.569   0.149   9.564  0.3888 -0.1111 -0.0911
   61CHL1  H12A 6952   4.615   0.094   9.479  0.1792 -0.9621  0.3278
   61CHL1  H12B 6953   4.627   0.240   9.587  0.3821 -0.4603  1.4669
   61CHL1   C11 6954   4.562   0.055   9.694 -0.2289 -0.0383 -0.6629
   61CHL1  H11A 6955   4.510  -0.036   9.655 -0.0946 -1.4511  2.1686
   61CHL1  H11B 6956   4.659   0.010   9.722 -0.8768 -0.6802  0.6503
   61CHL1    C9 6957   4.486   0.107   9.815  0.1642 -0.0650  0.4361
   61CHL1    H9 6958   4.543   0.197   9.847 -1.1236  0.2657  1.9410
   61CHL1   C10 6959   4.480   0.007   9.934  0.9831 -0.2819  0.2142
   61CHL1   C19 6960   4.448  -0.130   9.880  0.3749  0.4402  0.4907
   61CHL1  H19A 6961   4.361  -0.133   9.810  0.4993  0.3314  0.3402
   61CHL1  H19B 6962   4.529  -0.185   9.826 -1.2026 -0.0788 -1.4948
   61CHL1  H19C 6963   4.415  -0.189   9.969 -1.3295  1.2090  0.4133
   61CHL1    C1 6964   4.612   0.013  10.010  0.0439 -0.3265 -0.2643
   61CHL1   H1A 6965   4.685  -0.038   9.944 -1.1150 -0.1696 -1.7124
   61CHL1   H1B 6966   4.646   0.117  10.031  0.1627 -0.5253  0.5817
   61CHL1    C2 6967   4.607  -0.053  10.147 -0.6213 -1.0974  0.4435
   61CHL1   H2A 6968   4.707  -0.027  10.186  0.4056  1.1446 -3.2204
   61CHL1   H2B 6969   4.587  -0.162  10.137 -0.9716 -1.1147  1.2098
   61CHL1   C20 6970   4.427   0.335   9.284  0.6758 -0.0867 -0.1150
   61CHL1   H20 6971   4.342   0.279   9.239  0.2903  1.1731 -0.9819
   61CHL1   C21 6972   4.557   0.260   9.253 -0.6438 -0.4410  0.0677
   61CHL1  H21A 6973   4.590   0.273   9.147  1.0214  2.3375  0.8035
   61CHL1  H21B 6974   4.545   0.155   9.287 -1.7363 -0.6050 -0.7838
   61CHL1  H21C 6975   4.638   0.315   9.306 -0.8430 -0.4844  0.4212
   61CHL1   C22 6976   4.427   0.474   9.227  0.0254 -0.5957 -0.9284
   61CHL1  H22A 6977   4.342   0.536   9.264  0.1162 -0.7692 -0.4395
   61CHL1  H22B 6978   4.523   0.526   9.248 -1.3161  0.4246  4.0373
   61CHL1   C23 6979   4.413   0.473   9.074 -0.3276  0.7552  0.6341
   61CHL1  H23A 6980   4.433   0.577   9.040 -4.9666  2.2991  1.8503
   61CHL1  H23B 6981   4.494   0.409   9.033 -1.9588 -1.1423  0.1784
   61CHL1   C24 6982   4.283   0.429   9.016 -0.0683 -0.0244  0.2488
   61CHL1  H24A 6983   4.273   0.319   9.029 -2.0893  0.2537  1.4142
   61CHL1  H24B 6984   4.197   0.472   9.070 -2.6988 -2.1292 -1.9925
   61CHL1   C25 6985   4.267   0.458   8.860  0.1300  0.0083 -0.1121
   61CHL1   H25 6986   4.168   0.426   8.821 -0.3448  1.6635 -0.3598
   61CHL1   C26 6987   4.273   0.614   8.819  0.5202 -0.6067 -0.2647
   61CHL1  H26A 6988   4.187   0.674   8.856 -0.3955 -0.0717 -2.9816
   61CHL1  H26B 6989   4.371   0.649   8.858  0.5061  0.5126 -1.1909
   61CHL1  H26C 6990   4.271   0.615   8.708  1.1031 -2.4089 -0.3290
   61CHL1   C27 6991   4.378   0.392   8.782  0.4485 -0.6239  0.2656
   61CHL1  H27A 6992   4.366   0.406   8.672 -0.2562 -0.2786  0.3790
   61CHL1  H27B 6993   4.473   0.442   8.807  0.2681 -0.0036 -0.2529
   61CHL1  H27C 6994   4.398   0.286   8.809  0.0545 -0.9663 -0.7112
   62CHL1    C3 6995   4.418   5.382  10.175  0.9455 -0.5204 -0.0048
   62CHL1    H3 6996   4.519   5.341  10.194  1.3508  1.0415  1.3837
   62CHL1    O3 6997   4.351   5.416  10.293  0.0120  0.1587 -0.0792
   62CHL1   H3' 6998   4.419   5.430  10.359  1.4874  1.1989 -1.7209
   62CHL1    C4 6999   4.439   5.516  10.107  0.1331 -0.0264  0.8877
   62CHL1   H4A 7000   4.342   5.569  10.096  1.0362  1.5756  0.1543
   62CHL1   H4B 7001   4.494   5.581  10.178 -0.4875  0.2865  1.0867
   62CHL1    C5 7002   4.498   5.506   9.966 -0.4220  0.0934 -0.1668
   62CHL1    C6 7003   4.610   5.564   9.924  0.1821  0.1296 -0.4260
   62CHL1    H6 7004   4.666   5.621   9.999  0.8295  0.5345 -1.2095
   62CHL1    C7 7005   4.665   5.574   9.786  0.2978  0.8167  0.4692
   62CHL1   H7A 7006   4.676   5.680   9.753 -0.3363  1.0974  1.1273
   62CHL1   H7B 7007   4.768   5.533   9.779 -0.2725 -0.7887  1.0152
   62CHL1    C8 7008   4.576   5.496   9.687 -0.3640 -0.5053  0.3545
   62CHL1    H8 7009   4.509   5.575   9.646  0.7588 -0.0242 -0.6104
   62CHL1   C14 7010   4.658   5.450   9.574  0.7374 -0.0831  0.9470
   62CHL1   H14 7011   4.715   5.363   9.613 -0.1007 -1.5192 -0.8596
   62CHL1   C15 7012   4.761   5.550   9.515 -0.4242 -0.1702 -0.2954
   62CHL1  H15A 7013   4.721   5.653   9.503  0.8083  0.4076  0.3851
   62CHL1  H15B 7014   4.856   5.565   9.571 -0.1286 -1.5340 -0.3893
   62CHL1   C16 7015   4.791   5.482   9.371  0.2826 -0.2119 -0.8331
   62CHL1  H16A 7016   4.763   5.559   9.296 -0.3388 -1.1326 -1.5903
   62CHL1  H16B 7017   4.899   5.459   9.358  0.8565  0.5414  2.0314
   62CHL1   C17 7018   4.690   5.362   9.355  0.4406  1.2090  0.1679
   62CHL1   H17 7019   4.739   5.270   9.392  0.1446 -0.0361 -2.3096
   62CHL1   C13 7020   4.580   5.393   9.458  0.4678  0.3604  0.1366
   62CHL1   C18 7021   4.474   5.501   9.397 -0.3691  0.2502  0.0976
   62CHL1  H18A 7022   4.399   5.461   9.326 -0.1049 -0.2754  0.1151
   62CHL1  H18B 7023   4.413   5.554   9.474 -0.2594 -2.0842  1.8838
   62CHL1  H18C 7024   4.528   5.577   9.337 -0.2714  0.2450  0.1779
   62CHL1   C12 7025   4.503   5.271   9.512  0.2582  0.4144  0.4969
   62CHL1  H12A 7026   4.445   5.234   9.425 -0.5271  1.4956  0.5311
   62CHL1  H12B 7027   4.581   5.201   9.549  0.8972  0.6957 -0.2967
   62CHL1   C11 7028   4.414   5.303   9.628  0.2849  0.2655 -0.4297
   62CHL1  H11A 7029   4.335   5.374   9.596  2.0331  2.0819 -0.8673
   62CHL1  H11B 7030   4.353   5.218   9.666  1.2305  0.4092  1.5603
   62CHL1    C9 7031   4.493   5.381   9.736 -0.1662 -0.3414 -0.2678
   62CHL1    H9 7032   4.563   5.302   9.774  1.7222  0.6977 -1.4307
   62CHL1   C10 7033   4.417   5.422   9.869  0.3439  0.9554 -0.0817
   62CHL1   C19 7034   4.288   5.492   9.821 -0.2024 -0.0054 -0.1692
   62CHL1  H19A 7035   4.243   5.546   9.908  0.0985 -1.0104  0.6340
   62CHL1  H19B 7036   4.314   5.572   9.749  1.5461 -0.0229  0.3876
   62CHL1  H19C 7037   4.209   5.429   9.776 -1.4381  1.5053 -0.1972
   62CHL1    C1 7038   4.368   5.291   9.940  0.4653 -0.4264 -0.1760
   62CHL1   H1A 7039   4.289   5.240   9.879 -0.6624 -0.1542  1.0123
   62CHL1   H1B 7040   4.454   5.220   9.942  0.3859 -0.5066  0.5583
   62CHL1    C2 7041   4.326   5.303  10.086  0.6586  0.6684 -0.4265
   62CHL1   H2A 7042   4.316   5.203  10.134 -1.5617  0.8464 -0.3919
   62CHL1   H2B 7043   4.224   5.348  10.087  0.5350  0.4199 -1.3041
   62CHL1   C20 7044   4.650   5.341   9.210 -0.4064  0.3457 -0.0891
   62CHL1   H20 7045   4.593   5.429   9.173 -2.4784 -1.0632 -0.4449
   62CHL1   C21 7046   4.550   5.224   9.189  0.8907 -0.9645 -0.1243
   62CHL1  H21A 7047   4.531   5.198   9.082 -0.9223  1.0668 -0.3713
   62CHL1  H21B 7048   4.451   5.257   9.229  1.3172 -0.4944  0.5604
   62CHL1  H21C 7049   4.591   5.139   9.248  0.5603 -2.3184 -1.7477
   62CHL1   C22 7050   4.767   5.325   9.118  0.1539 -0.5421  0.1471
   62CHL1  H22A 7051   4.840   5.407   9.136 -0.4644  0.3585 -1.3407
   62CHL1  H22B 7052   4.815   5.227   9.137 -0.1340 -0.4014  1.7892
   62CHL1   C23 7053   4.729   5.339   8.970 -0.0222 -0.0555  0.7975
   62CHL1  H23A 7054   4.633   5.286   8.948  0.7975 -0.5404 -1.8811
   62CHL1  H23B 7055   4.697   5.443   8.947  1.9707  0.2913 -0.5933
   62CHL1   C24 7056   4.825   5.272   8.874  0.5516 -0.3467  0.1393
   62CHL1  H24A 7057   4.922   5.325   8.890  0.0153  0.7075 -0.0059
   62CHL1  H24B 7058   4.843   5.167   8.905 -3.3758 -1.2131 -0.0869
   62CHL1   C25 7059   4.785   5.288   8.723  0.1900  1.0263 -0.5049
   62CHL1   H25 7060   4.751   5.392   8.706 -2.9878  0.5613  2.0977
   62CHL1   C26 7061   4.905   5.248   8.636 -0.1570  0.0882 -0.8266
   62CHL1  H26A 7062   5.000   5.302   8.656 -0.5808  0.5668 -0.0603
   62CHL1  H26B 7063   4.927   5.142   8.661 -0.1697  0.5400  1.3134
   62CHL1  H26C 7064   4.883   5.242   8.527  1.5716 -1.5826 -1.1349
   62CHL1   C27 7065   4.667   5.190   8.686  0.0565 -0.4743 -0.2089
   62CHL1  H27A 7066   4.634   5.227   8.587  0.7031  2.3559  0.5355
   62CHL1  H27B 7067   4.685   5.081   8.672 -0.7785 -0.6567  0.1149
   62CHL1  H27C 7068   4.581   5.213   8.752  0.8269  1.3054  0.2218
   63CHL1    C3 7069   0.268   5.241  10.326 -0.0565 -0.0944 -0.8652
   63CHL1    H3 7070   0.305   5.330  10.270  0.2204 -0.0583 -0.6212
   63CHL1    O3 7071   0.260   5.262  10.466 -0.0046  0.5513  0.1512
   63CHL1   H3' 7072   0.169   5.283  10.488 -0.0266  0.4104  0.1961
   63CHL1    C4 7073   0.121   5.220  10.274 -0.3554 -0.3414  0.5231
   63CHL1   H4A 7074   0.080   5.139  10.339  0.7106 -0.3446  1.2190
   63CHL1   H4B 7075   0.070   5.315  10.297  0.6607 -0.0531  1.6911
   63CHL1    C5 7076   0.100   5.174  10.130  0.6601  0.8369 -0.2322
   63CHL1    C6 7077   0.014   5.242  10.053  0.0840 -0.0320 -0.2750
   63CHL1    H6 7078  -0.041   5.333  10.081 -0.6097  0.0567 -1.8415
   63CHL1    C7 7079  -0.005   5.209   9.913 -0.1363 -0.0930  0.5954
   63CHL1   H7A 7080  -0.115   5.220   9.901 -0.5338  0.6221  3.8832
   63CHL1   H7B 7081   0.052   5.279   9.849  0.8777 -0.5876  0.9416
   63CHL1    C8 7082   0.044   5.061   9.868  0.5269  0.1919 -0.6475
   63CHL1    H8 7083  -0.030   4.988   9.909 -0.8674  2.6079  1.4349
   63CHL1   C14 7084   0.049   5.059   9.723 -0.6368  0.5099 -0.3307
   63CHL1   H14 7085   0.133   5.131   9.711  1.6332 -1.8383  0.2712
   63CHL1   C15 7086  -0.076   5.089   9.640  0.0590  0.3847 -0.3379
   63CHL1  H15A 7087  -0.164   5.036   9.683  1.4478 -1.7844 -0.0458
   63CHL1  H15B 7088  -0.096   5.198   9.634  0.2784  0.4260 -0.3009
   63CHL1   C16 7089  -0.038   5.047   9.500 -0.2903 -0.1515 -0.6071
   63CHL1  H16A 7090  -0.114   4.978   9.457  0.8628 -1.9636  0.1199
   63CHL1  H16B 7091  -0.028   5.133   9.431  0.8790  0.1702 -0.0603
   63CHL1   C17 7092   0.104   4.976   9.516 -0.3464  0.2247  0.5588
   63CHL1   H17 7093   0.179   5.057   9.507  0.3971 -0.3157  1.7178
   63CHL1   C13 7094   0.106   4.937   9.660 -0.0882  0.4028  0.4798
   63CHL1   C18 7095   0.001   4.815   9.681 -0.3169 -1.0567 -0.4671
   63CHL1  H18A 7096   0.039   4.714   9.656  2.4794 -0.0040 -0.8385
   63CHL1  H18B 7097  -0.025   4.813   9.789 -0.3954  1.5502 -0.3681
   63CHL1  H18C 7098  -0.095   4.839   9.631  1.0757  1.8119 -2.0068
   63CHL1   C12 7099   0.246   4.908   9.723 -0.3524 -0.5608 -0.1648
   63CHL1  H12A 7100   0.286   4.815   9.680  2.7119  0.3200  0.5251
   63CHL1  H12B 7101   0.323   4.980   9.688 -0.3213 -1.2834 -1.6578
   63CHL1   C11 7102   0.245   4.906   9.880 -0.5245  0.4404 -0.2501
   63CHL1  H11A 7103   0.183   4.816   9.900  0.9996 -0.4275  0.7485
   63CHL1  H11B 7104   0.346   4.896   9.926 -1.2201  2.7045  1.9894
   63CHL1    C9 7105   0.186   5.040   9.927  0.2317  0.3986 -0.6026
   63CHL1    H9 7106   0.254   5.119   9.888 -0.2196  0.2095 -1.7901
   63CHL1   C10 7107   0.184   5.054  10.086  0.5611  0.4152 -0.5590
   63CHL1   C19 7108   0.124   4.920  10.147  0.0580 -0.2214 -1.2307
   63CHL1  H19A 7109   0.190   4.833  10.128  1.3858  0.2989  0.6812
   63CHL1  H19B 7110   0.117   4.934  10.257 -3.4350  3.8795 -1.7282
   63CHL1  H19C 7111   0.021   4.896  10.113  1.1657 -2.1446 -3.5380
   63CHL1    C1 7112   0.323   5.087  10.138  0.2944  0.1944  0.6104
   63CHL1   H1A 7113   0.389   5.004  10.103 -0.6010 -0.5692  0.6848
   63CHL1   H1B 7114   0.367   5.174  10.084 -1.9659 -0.3801 -2.4946
   63CHL1    C2 7115   0.348   5.117  10.285 -0.6169 -0.3434  0.2417
   63CHL1   H2A 7116   0.453   5.125  10.319 -0.2704 -0.6991 -0.7211
   63CHL1   H2B 7117   0.315   5.027  10.342  1.5875 -2.1170 -1.1561
   63CHL1   C20 7118   0.124   4.868   9.405 -0.5408 -0.3695 -0.4736
   63CHL1   H20 7119   0.048   4.788   9.411 -1.5808  0.5176 -1.4344
   63CHL1   C21 7120   0.267   4.811   9.416 -0.5084 -0.1431  0.2092
   63CHL1  H21A 7121   0.338   4.896   9.428 -0.6187 -0.2738  2.0960
   63CHL1  H21B 7122   0.299   4.749   9.330  0.1647 -0.3945  0.6289
   63CHL1  H21C 7123   0.289   4.756   9.510 -3.1639 -0.0705  0.9422
   63CHL1   C22 7124   0.101   4.916   9.259  0.4109 -0.1130  0.1578
   63CHL1  H22A 7125  -0.010   4.928   9.265  0.1859 -2.6575  2.5592
   63CHL1  H22B 7126   0.145   5.015   9.234 -2.4571  1.3828  0.5913
   63CHL1   C23 7127   0.134   4.818   9.147 -0.2391 -0.2280  0.1379
   63CHL1  H23A 7128   0.243   4.832   9.134 -0.7018  1.0962 -3.1767
   63CHL1  H23B 7129   0.107   4.715   9.178 -0.8706  0.0811  0.6471
   63CHL1   C24 7130   0.065   4.850   9.019 -0.0976  0.4380 -0.3214
   63CHL1  H24A 7131  -0.038   4.888   9.036 -0.0692  0.2395  0.3034
   63CHL1  H24B 7132   0.126   4.924   8.963 -1.1115  3.6119  2.4486
   63CHL1   C25 7133   0.051   4.726   8.933  0.1331  0.6349  0.2808
   63CHL1   H25 7134  -0.000   4.645   8.990 -0.6314  0.8313 -0.1154
   63CHL1   C26 7135  -0.019   4.761   8.803  0.1892  0.3211  0.0889
   63CHL1  H26A 7136  -0.129   4.766   8.817 -0.0557 -0.7899 -1.1981
   63CHL1  H26B 7137   0.022   4.858   8.769 -0.5117  0.5486 -0.1306
   63CHL1  H26C 7138  -0.001   4.687   8.722 -3.8768 -1.7012  0.7571
   63CHL1   C27 7139   0.184   4.676   8.891 -0.1601  0.4530  0.0213
   63CHL1  H27A 7140   0.172   4.611   8.802 -1.3531  1.6251 -0.7188
   63CHL1  H27B 7141   0.236   4.767   8.852 -1.3017  0.2754 -2.0476
   63CHL1  H27C 7142   0.243   4.623   8.969  2.4629  0.3841 -1.8749
   64CHL1    C3 7143   5.080   5.827  10.029  0.2888 -0.2557 -0.4002
   64CHL1    H3 7144   5.129   5.735   9.991 -1.0897 -0.1069 -2.7430
   64CHL1    O3 7145   5.097   5.821  10.170  0.2681  0.1209  0.2096
   64CHL1   H3' 7146   5.026   5.880  10.195 -1.2950  0.0361 -3.3643
   64CHL1    C4 7147   5.162   5.951   9.983  0.1691  0.6454 -0.2801
   64CHL1   H4A 7148   5.122   6.041  10.036 -0.7582 -0.3791  0.8316
   64CHL1   H4B 7149   5.269   5.941  10.008  0.6921 -1.9890 -3.0573
   64CHL1    C5 7150   5.154   5.979   9.837 -0.5786  0.5433  0.3952
   64CHL1    C6 7151   5.259   6.000   9.755 -0.0693 -0.5215 -0.1330
   64CHL1    H6 7152   5.358   6.005   9.802 -0.2936 -0.8069  0.3783
   64CHL1    C7 7153   5.250   6.029   9.604  0.0414 -1.0116 -0.5820
   64CHL1   H7A 7154   5.311   6.121   9.590 -1.4710  0.0333 -0.6597
   64CHL1   H7B 7155   5.297   5.942   9.553  2.1321 -0.1261 -0.2671
   64CHL1    C8 7156   5.103   6.056   9.558 -0.3198 -0.2403  0.7084
   64CHL1    H8 7157   5.083   6.162   9.587  1.4563  0.2938  0.1644
   64CHL1   C14 7158   5.111   6.056   9.405 -0.1360  0.0921 -0.6790
   64CHL1   H14 7159   5.147   5.955   9.374 -2.3430 -1.5944  1.8042
   64CHL1   C15 7160   5.191   6.154   9.331 -0.4712 -0.1304  0.8335
   64CHL1  H15A 7161   5.179   6.260   9.360 -1.1281  0.9059 -2.7683
   64CHL1  H15B 7162   5.301   6.134   9.337 -0.7347 -1.2576  2.4492
   64CHL1   C16 7163   5.142   6.138   9.184  0.3225  0.7311  0.1176
   64CHL1  H16A 7164   5.111   6.237   9.144 -3.1215 -1.2658 -2.7567
   64CHL1  H16B 7165   5.229   6.094   9.130 -0.9512 -1.2489 -0.4327
   64CHL1   C17 7166   5.018   6.048   9.186  0.3084  0.1387  0.7966
   64CHL1   H17 7167   5.055   5.952   9.144  1.3188  1.3537 -1.2347
   64CHL1   C13 7168   4.972   6.048   9.337 -0.0656 -0.0220  0.1460
   64CHL1   C18 7169   4.889   6.178   9.376 -0.3705 -0.0126 -0.0625
   64CHL1  H18A 7170   4.860   6.174   9.483  3.0236 -2.2828  0.9279
   64CHL1  H18B 7171   4.949   6.269   9.356  0.4865 -1.0193 -2.3462
   64CHL1  H18C 7172   4.797   6.187   9.314 -1.0619  1.0472  1.0726
   64CHL1   C12 7173   4.911   5.915   9.393  0.3172 -0.1846 -0.2526
   64CHL1  H12A 7174   4.810   5.888   9.355 -0.4807  2.3387 -0.1349
   64CHL1  H12B 7175   4.973   5.831   9.356 -0.7729 -0.5042 -1.4470
   64CHL1   C11 7176   4.894   5.921   9.549  0.0411  0.1655 -1.0086
   64CHL1  H11A 7177   4.817   5.998   9.573  1.7115  1.7164 -0.3574
   64CHL1  H11B 7178   4.846   5.826   9.579 -0.3310  0.4493 -0.6907
   64CHL1    C9 7179   5.019   5.951   9.623 -0.1198 -0.0898 -0.6926
   64CHL1    H9 7180   5.080   5.862   9.598  1.5936  0.3576  1.5485
   64CHL1   C10 7181   5.016   5.957   9.779  0.4051 -0.1247  0.0677
   64CHL1   C19 7182   4.940   6.088   9.809  0.0620  0.1151  0.0542
   64CHL1  H19A 7183   4.837   6.063   9.778  1.2931 -1.5964 -3.0250
   64CHL1  H19B 7184   4.937   6.100   9.920 -2.4117 -0.9609  0.1593
   64CHL1  H19C 7185   4.991   6.175   9.762  1.7672 -2.5056 -3.4188
   64CHL1    C1 7186   4.936   5.825   9.828  0.0177 -0.8115  0.1129
   64CHL1   H1A 7187   4.831   5.831   9.792  0.2539 -0.7695 -0.5747
   64CHL1   H1B 7188   4.994   5.743   9.781  0.2471 -0.0164 -1.0295
   64CHL1    C2 7189   4.939   5.798   9.985 -0.4811 -0.1981 -0.3419
   64CHL1   H2A 7190   4.897   5.701  10.021 -0.8647  0.0263 -0.1736
   64CHL1   H2B 7191   4.882   5.882  10.031 -0.5348 -0.5781  0.2950
   64CHL1   C20 7192   4.910   6.078   9.081  0.5350 -0.2714 -0.6177
   64CHL1   H20 7193   4.863   6.172   9.117  0.4872 -0.3449 -0.4874
   64CHL1   C21 7194   4.806   5.959   9.075 -0.1886  0.0155  0.6535
   64CHL1  H21A 7195   4.746   5.965   9.169 -0.1633  1.5501  0.6069
   64CHL1  H21B 7196   4.852   5.859   9.067 -0.4626  0.0726 -2.9889
   64CHL1  H21C 7197   4.736   5.976   8.990  1.2110 -0.2128 -0.5730
   64CHL1   C22 7198   4.970   6.112   8.943 -0.4998  1.0368 -0.1470
   64CHL1  H22A 7199   5.029   6.206   8.951  0.4490  0.3717  1.0120
   64CHL1  H22B 7200   5.035   6.030   8.906 -1.5483  0.5789 -1.0286
   64CHL1   C23 7201   4.859   6.147   8.842 -0.0739  0.3795 -0.1086
   64CHL1  H23A 7202   4.816   6.061   8.786 -1.1699 -0.2581  1.6170
   64CHL1  H23B 7203   4.779   6.207   8.891  1.2547  2.3267 -0.2211
   64CHL1   C24 7204   4.910   6.242   8.727  0.1522  0.7744 -0.7999
   64CHL1  H24A 7205   4.821   6.265   8.665 -1.7288  1.4409  1.9903
   64CHL1  H24B 7206   4.952   6.331   8.779  2.0876  0.6458 -2.0261
   64CHL1   C25 7207   5.029   6.208   8.647  0.2559  0.6198  0.3554
   64CHL1   H25 7208   5.115   6.199   8.716 -1.2816  0.0088  2.3157
   64CHL1   C26 7209   5.027   6.065   8.588 -0.2288 -0.4801  0.6707
   64CHL1  H26A 7210   4.946   6.054   8.513  0.4025 -0.2791 -0.0400
   64CHL1  H26B 7211   5.116   6.029   8.534 -1.9133 -1.8790 -1.3537
   64CHL1  H26C 7212   5.006   5.983   8.660 -2.9959 -1.4620 -1.0869
   64CHL1   C27 7213   5.066   6.312   8.547  0.2645 -0.3470  0.1743
   64CHL1  H27A 7214   5.056   6.408   8.602  0.5960 -1.3918  2.1398
   64CHL1  H27B 7215   5.171   6.298   8.515 -0.1130 -2.2129 -0.3452
   64CHL1  H27C 7216   4.986   6.309   8.469 -0.7764 -1.0450  1.2409
   65CHL1    C3 7217   2.024   2.070  10.237 -0.4836  0.7093 -0.0736
   65CHL1    H3 7218   2.133   2.087  10.220 -0.4831  0.5614 -0.2317
   65CHL1    O3 7219   1.987   2.067  10.373  0.0223 -0.7686 -0.0546
   65CHL1   H3' 7220   1.898   2.101  10.371  0.6010  0.7776 -0.7418
   65CHL1    C4 7221   1.953   2.179  10.159  0.9817 -0.9284 -0.6053
   65CHL1   H4A 7222   1.849   2.159  10.191  0.7462  1.9888  0.7754
   65CHL1   H4B 7223   1.968   2.276  10.212 -2.8911 -0.3550 -0.2289
   65CHL1    C5 7224   1.977   2.168  10.010  0.2859 -0.8458  0.3701
   65CHL1    C6 7225   2.023   2.272   9.938  0.3930 -0.7444 -0.1939
   65CHL1    H6 7226   2.031   2.372   9.984 -1.3251 -0.3589 -0.6742
   65CHL1    C7 7227   2.041   2.267   9.791 -0.1766 -1.1605  0.4757
   65CHL1   H7A 7228   2.003   2.357   9.739  1.1876 -0.8232  0.0193
   65CHL1   H7B 7229   2.151   2.257   9.774  0.3785 -0.4072  3.1389
   65CHL1    C8 7230   1.983   2.145   9.720  0.1352 -0.1065 -0.2402
   65CHL1    H8 7231   1.872   2.150   9.714  0.0644  1.5236  1.5592
   65CHL1   C14 7232   2.039   2.129   9.582  0.3462 -0.6947 -0.2479
   65CHL1   H14 7233   2.147   2.106   9.593  1.1716  2.2780 -1.2413
   65CHL1   C15 7234   2.033   2.260   9.490  0.2521  0.2069 -0.4154
   65CHL1  H15A 7235   1.941   2.318   9.509 -0.3070 -0.2121 -1.7501
   65CHL1  H15B 7236   2.117   2.327   9.518 -0.4419  0.2734  1.6753
   65CHL1   C16 7237   2.022   2.202   9.349  0.4431 -0.2908  0.0674
   65CHL1  H16A 7238   1.929   2.227   9.294  0.8813 -0.4210 -0.7492
   65CHL1  H16B 7239   2.111   2.244   9.296 -0.4787 -0.7742 -1.9662
   65CHL1   C17 7240   2.032   2.043   9.363  0.3768 -1.0438 -0.3132
   65CHL1   H17 7241   2.139   2.014   9.368  1.1273  1.3997 -0.6750
   65CHL1   C13 7242   1.972   2.015   9.500 -0.8866  0.2124  0.5912
   65CHL1   C18 7243   1.821   2.022   9.484 -0.2647  0.2318 -0.1512
   65CHL1  H18A 7244   1.769   2.025   9.582  1.7642  3.5247  1.0255
   65CHL1  H18B 7245   1.801   2.115   9.426  2.6184  1.1669  0.1697
   65CHL1  H18C 7246   1.791   1.933   9.425  0.4941 -1.4072  1.8042
   65CHL1   C12 7247   2.005   1.877   9.569 -0.4697 -0.1816 -0.4141
   65CHL1  H12A 7248   1.940   1.805   9.516 -0.1978 -0.1384 -0.8058
   65CHL1  H12B 7249   2.112   1.851   9.559 -1.4517 -4.5121 -1.6292
   65CHL1   C11 7250   1.965   1.889   9.722  0.0633 -0.0643 -0.2572
   65CHL1  H11A 7251   1.854   1.885   9.725  0.0256 -0.5818 -1.7175
   65CHL1  H11B 7252   1.993   1.800   9.782  2.9029  0.8179 -0.1037
   65CHL1    C9 7253   1.999   2.016   9.801 -0.3953 -0.4114  0.7844
   65CHL1    H9 7254   2.110   2.013   9.804 -0.4273 -1.7967  3.4333
   65CHL1   C10 7255   1.950   2.030   9.944  0.6861 -0.3860 -0.0784
   65CHL1   C19 7256   1.788   1.996   9.943  0.0144 -0.8556 -0.4318
   65CHL1  H19A 7257   1.729   2.063   9.877  0.8658 -0.5861 -0.9344
   65CHL1  H19B 7258   1.763   1.894   9.909 -0.8846 -0.6050 -0.5307
   65CHL1  H19C 7259   1.736   2.007  10.041  0.7966 -2.4127  0.1906
   65CHL1    C1 7260   2.014   1.925  10.028 -0.2926  0.8449 -0.7386
   65CHL1   H1A 7261   1.985   1.828   9.983  1.7924  0.7127 -1.9190
   65CHL1   H1B 7262   2.124   1.942  10.023 -0.3107  1.0502 -0.4810
   65CHL1    C2 7263   1.986   1.938  10.174 -0.0497 -0.3080  0.6296
   65CHL1   H2A 7264   2.042   1.863  10.235  0.6084  0.3838  0.8989
   65CHL1   H2B 7265   1.877   1.920  10.183 -0.3278 -1.2893 -3.0838
   65CHL1   C20 7266   1.988   1.978   9.226 -0.1259 -0.2597 -0.4243
   65CHL1   H20 7267   1.878   1.999   9.222 -0.2538 -0.8686 -0.1391
   65CHL1   C21 7268   2.005   1.825   9.235  0.3503 -0.2878 -0.5603
   65CHL1  H21A 7269   2.108   1.801   9.270 -0.1568  0.5256  1.6439
   65CHL1  H21B 7270   1.987   1.776   9.137  1.7781 -1.5847 -0.2079
   65CHL1  H21C 7271   1.937   1.777   9.308  1.1640  0.4500  0.7130
   65CHL1   C22 7272   2.072   2.028   9.100 -0.3706 -0.6177 -0.2649
   65CHL1  H22A 7273   2.077   2.138   9.110 -1.3105 -0.6435  0.7323
   65CHL1  H22B 7274   2.178   1.994   9.104 -0.0174  0.1570 -2.0392
   65CHL1   C23 7275   2.031   1.992   8.959 -0.2007 -0.3157  0.1688
   65CHL1  H23A 7276   2.029   1.882   8.947  1.0636 -0.1302 -2.9475
   65CHL1  H23B 7277   1.933   2.038   8.935 -0.4760 -0.9236  0.1259
   65CHL1   C24 7278   2.140   2.044   8.854 -0.0854 -0.3754  0.0547
   65CHL1  H24A 7279   2.161   2.151   8.871 -0.9922  0.1097 -1.6899
   65CHL1  H24B 7280   2.236   1.987   8.854  1.1171  1.5174  1.8239
   65CHL1   C25 7281   2.076   2.039   8.713  0.2161  0.4275 -0.4353
   65CHL1   H25 7282   1.970   2.072   8.725 -0.1458 -0.7732 -0.2184
   65CHL1   C26 7283   2.147   2.128   8.615  0.2750  0.2786 -0.2806
   65CHL1  H26A 7284   2.256   2.110   8.626  0.2465  0.7058  0.8911
   65CHL1  H26B 7285   2.109   2.128   8.511 -0.7653  4.3170 -0.0741
   65CHL1  H26C 7286   2.119   2.230   8.649  0.4675 -0.0578  0.9451
   65CHL1   C27 7287   2.062   1.899   8.646 -0.2915 -0.5717 -0.5197
   65CHL1  H27A 7288   1.999   1.912   8.556  0.1494  0.2537 -0.7165
   65CHL1  H27B 7289   2.161   1.859   8.615  0.0922  0.1836 -0.2853
   65CHL1  H27C 7290   2.004   1.828   8.709 -1.6990  1.2909  0.3404
   66CHL1    C3 7291   5.818   6.805  10.499 -0.1903  0.3797  0.7623
   66CHL1    H3 7292   5.711   6.832  10.506 -0.3760  0.1680 -0.8929
   66CHL1    O3 7293   5.861   6.778  10.630 -0.1067  0.0762  0.3345
   66CHL1   H3' 7294   5.957   6.787  10.631  0.1883 -2.2644 -0.8713
   66CHL1    C4 7295   5.855   6.687  10.407  0.0342  0.3779  0.6673
   66CHL1   H4A 7296   5.965   6.673  10.421  0.8674  4.6244 -0.3154
   66CHL1   H4B 7297   5.802   6.596  10.442  0.6175 -0.0107  0.5598
   66CHL1    C5 7298   5.823   6.700  10.264 -0.0049  0.2378  0.1468
   66CHL1    C6 7299   5.739   6.620  10.196 -0.3342 -0.3084 -0.5074
   66CHL1    H6 7300   5.681   6.545  10.251  1.1340 -0.5767  0.7600
   66CHL1    C7 7301   5.707   6.635  10.048  0.0612  0.0575  0.1867
   66CHL1   H7A 7302   5.711   6.534  10.003  0.4313 -0.8950  2.2240
   66CHL1   H7B 7303   5.610   6.689  10.043  1.0300  2.1739  2.2479
   66CHL1    C8 7304   5.808   6.730   9.971  0.5086 -0.1254 -0.3634
   66CHL1    H8 7305   5.910   6.685   9.964  0.9979  1.1119 -1.6359
   66CHL1   C14 7306   5.746   6.772   9.841 -0.5490 -0.0992 -0.5743
   66CHL1   H14 7307   5.659   6.840   9.855 -0.5033  0.2086 -1.6594
   66CHL1   C15 7308   5.690   6.661   9.747  0.0381  1.0399  0.1561
   66CHL1  H15A 7309   5.750   6.568   9.753 -1.3513  0.1533  1.0256
   66CHL1  H15B 7310   5.589   6.632   9.785  0.5915 -1.3332 -0.0116
   66CHL1   C16 7311   5.696   6.731   9.610 -0.3117 -0.2453 -0.2812
   66CHL1  H16A 7312   5.748   6.660   9.542  2.2106  0.6924  0.5383
   66CHL1  H16B 7313   5.592   6.750   9.576 -1.0793  3.1437  3.2680
   66CHL1   C17 7314   5.771   6.864   9.629 -0.0695 -0.0105 -0.1706
   66CHL1   H17 7315   5.689   6.935   9.648  1.5569  1.5342  1.5004
   66CHL1   C13 7316   5.843   6.860   9.760 -0.2784 -0.3774 -0.3659
   66CHL1   C18 7317   5.992   6.792   9.762 -0.3358  0.2156 -0.0797
   66CHL1  H18A 7318   5.975   6.682   9.752  0.8314 -0.0394  0.5988
   66CHL1  H18B 7319   6.054   6.820   9.674  0.6426  0.7351  0.7646
   66CHL1  H18C 7320   6.055   6.811   9.851 -0.4003 -0.8506  0.2096
   66CHL1   C12 7321   5.840   6.995   9.841 -0.1697  1.2110 -0.1684
   66CHL1  H12A 7322   5.892   7.068   9.775  1.5288  0.2473  0.0321
   66CHL1  H12B 7323   5.736   7.033   9.848 -0.4467  0.2047  1.6358
   66CHL1   C11 7324   5.903   6.978   9.980 -0.1223  0.2157  0.1846
   66CHL1  H11A 7325   6.013   6.966   9.969  0.1349  0.5566  2.0395
   66CHL1  H11B 7326   5.890   7.071  10.039  1.4713  0.4814  0.1538
   66CHL1    C9 7327   5.829   6.862  10.059  0.6139  0.2994  0.3193
   66CHL1    H9 7328   5.722   6.890  10.065  0.4989  0.7823 -2.4949
   66CHL1   C10 7329   5.884   6.822  10.201  0.9222 -0.3771  0.0297
   66CHL1   C19 7330   6.034   6.800  10.186  0.5763 -0.5245  0.0682
   66CHL1  H19A 7331   6.061   6.712  10.125  0.1895 -0.9853  0.5450
   66CHL1  H19B 7332   6.077   6.892  10.141 -1.8760 -0.2855 -1.9823
   66CHL1  H19C 7333   6.079   6.800  10.288 -3.0001  1.3395  1.8591
   66CHL1    C1 7334   5.855   6.941  10.292 -0.3610  0.2864 -0.3903
   66CHL1   H1A 7335   5.907   7.023  10.239  1.5543 -1.7347 -1.8573
   66CHL1   H1B 7336   5.745   6.958  10.285 -0.2711  1.5871  0.9864
   66CHL1    C2 7337   5.892   6.927  10.441 -0.0004  0.3666 -0.5549
   66CHL1   H2A 7338   5.869   7.019  10.497  0.4906 -0.3534  0.8750
   66CHL1   H2B 7339   6.002   6.910  10.447  0.1385  1.7400  2.8693
   66CHL1   C20 7340   5.848   6.924   9.513 -1.0008  0.7455  0.5066
   66CHL1   H20 7341   5.925   6.995   9.550 -0.9742  0.2765  1.3872
   66CHL1   C21 7342   5.760   7.008   9.427  0.1807 -0.4444  0.6495
   66CHL1  H21A 7343   5.682   6.941   9.383  2.1500 -2.6749  0.3707
   66CHL1  H21B 7344   5.818   7.061   9.349 -0.0122  0.1483  0.9045
   66CHL1  H21C 7345   5.707   7.091   9.477  0.5671 -1.1994  2.3693
   66CHL1   C22 7346   5.915   6.814   9.433  0.4132  0.1473 -0.3230
   66CHL1  H22A 7347   5.970   6.742   9.498  3.1145  0.5911 -1.9619
   66CHL1  H22B 7348   5.837   6.759   9.374  0.2569  0.5054 -0.4535
   66CHL1   C23 7349   6.023   6.863   9.343 -0.6181  0.5836 -0.3819
   66CHL1  H23A 7350   5.983   6.941   9.274 -0.0786  1.1989 -0.0127
   66CHL1  H23B 7351   6.102   6.914   9.402 -1.5109  0.1546  1.2588
   66CHL1   C24 7352   6.087   6.742   9.271 -0.4041 -0.5045 -0.1865
   66CHL1  H24A 7353   6.125   6.670   9.347  0.5708  0.3640  0.1821
   66CHL1  H24B 7354   6.005   6.700   9.210  0.5879  1.2056 -2.9109
   66CHL1   C25 7355   6.209   6.789   9.188 -0.4468 -0.2639  0.1257
   66CHL1   H25 7356   6.229   6.697   9.129 -1.2822  0.4084 -1.2472
   66CHL1   C26 7357   6.181   6.903   9.086 -0.2036 -0.2827  0.4031
   66CHL1  H26A 7358   6.076   6.882   9.056 -0.0007 -2.7284  1.1197
   66CHL1  H26B 7359   6.181   6.999   9.142 -3.5581 -1.0049  1.8576
   66CHL1  H26C 7360   6.254   6.903   9.002  1.9697 -1.2973  2.1689
   66CHL1   C27 7361   6.334   6.810   9.273 -0.3689  0.7127  0.3436
   66CHL1  H27A 7362   6.428   6.823   9.213 -0.7049  0.9047 -0.1513
   66CHL1  H27B 7363   6.308   6.892   9.344  1.1034 -1.0169  3.0328
   66CHL1  H27C 7364   6.346   6.719   9.335  3.6954  1.0166  0.2701
   67CHL1    C3 7365   2.780   0.388  10.200  0.3978 -0.5784 -0.3939
   67CHL1    H3 7366   2.683   0.359  10.155 -0.0007 -0.4402  0.3673
   67CHL1    O3 7367   2.767   0.410  10.341 -0.3416 -0.3182  0.3197
   67CHL1   H3' 7368   2.704   0.482  10.346 -0.7740 -0.7025  0.4549
   67CHL1    C4 7369   2.879   0.276  10.166 -0.1188  0.5993 -0.7595
   67CHL1   H4A 7370   2.979   0.293  10.211 -0.4198  1.4316 -0.3981
   67CHL1   H4B 7371   2.855   0.175  10.207  3.8299 -1.0183 -1.9905
   67CHL1    C5 7372   2.912   0.263  10.016  1.1824 -0.2821  0.1942
   67CHL1    C6 7373   2.908   0.144   9.956  0.2896  0.2866 -0.3480
   67CHL1    H6 7374   2.891   0.052  10.014 -0.7135 -0.6309 -2.0152
   67CHL1    C7 7375   2.929   0.117   9.811  0.9632  0.2351  0.2333
   67CHL1   H7A 7376   2.986   0.022   9.796  0.8986  0.1910  0.2676
   67CHL1   H7B 7377   2.825   0.098   9.777  1.0213 -0.7733  0.5739
   67CHL1    C8 7378   2.995   0.238   9.736  0.2328 -0.1736  0.1095
   67CHL1    H8 7379   3.097   0.245   9.778 -0.2976  2.1922  1.1883
   67CHL1   C14 7380   2.977   0.221   9.591 -0.3454 -0.7210  1.0984
   67CHL1   H14 7381   2.868   0.212   9.570  0.0757 -3.5178 -0.3897
   67CHL1   C15 7382   3.028   0.092   9.535  0.6317  0.1147 -0.6841
   67CHL1  H15A 7383   3.128   0.059   9.572  0.3015 -2.1373 -1.6382
   67CHL1  H15B 7384   2.958   0.010   9.563  0.1151  1.3953  2.1259
   67CHL1   C16 7385   3.030   0.117   9.384  0.5277  0.1523 -0.9878
   67CHL1  H16A 7386   3.133   0.095   9.347  0.9683  0.5397 -0.0211
   67CHL1  H16B 7387   2.950   0.054   9.339  0.8759 -0.5809 -0.5957
   67CHL1   C17 7388   3.021   0.268   9.363  0.3962  0.0193 -0.1480
   67CHL1   H17 7389   2.913   0.284   9.342  0.1770  0.4017  1.1956
   67CHL1   C13 7390   3.040   0.335   9.502 -0.1638 -0.2096  0.1972
   67CHL1   C18 7391   3.192   0.355   9.551  0.3372  0.1951 -0.5744
   67CHL1  H18A 7392   3.241   0.257   9.533 -1.5466 -1.1684  1.1781
   67CHL1  H18B 7393   3.231   0.434   9.483 -1.5797  2.7132  1.0682
   67CHL1  H18C 7394   3.206   0.382   9.658 -0.6046 -1.5531  0.0328
   67CHL1   C12 7395   2.951   0.453   9.540 -0.0655 -0.2286 -0.3928
   67CHL1  H12A 7396   2.964   0.546   9.481 -2.3002 -0.4231 -1.2987
   67CHL1  H12B 7397   2.845   0.429   9.515 -0.2137  0.0133 -0.0009
   67CHL1   C11 7398   2.957   0.486   9.686  0.5287  0.1706  0.4366
   67CHL1  H11A 7399   3.059   0.525   9.708  0.8150 -0.3260  0.0086
   67CHL1  H11B 7400   2.881   0.564   9.712  0.0156 -0.9917  2.6535
   67CHL1    C9 7401   2.917   0.365   9.783 -0.8155 -0.1066  1.0638
   67CHL1    H9 7402   2.810   0.356   9.756 -0.7010 -0.5417  0.7353
   67CHL1   C10 7403   2.933   0.391   9.933  0.3108  0.2388  0.1187
   67CHL1   C19 7404   3.072   0.437   9.968 -0.8992  0.3458 -0.3204
   67CHL1  H19A 7405   3.074   0.457  10.078 -2.4451  2.6632 -0.6371
   67CHL1  H19B 7406   3.155   0.369   9.938 -0.3484  0.9660 -0.2203
   67CHL1  H19C 7407   3.098   0.533   9.919  2.2125  0.2383  0.8701
   67CHL1    C1 7408   2.835   0.501   9.979  0.4311 -0.1666 -0.3501
   67CHL1   H1A 7409   2.868   0.595   9.928  2.7726 -1.4160 -1.2881
   67CHL1   H1B 7410   2.734   0.476   9.940 -0.0514  0.0520  0.7463
   67CHL1    C2 7411   2.831   0.520  10.136 -0.3047 -0.5705  0.6180
   67CHL1   H2A 7412   2.756   0.599  10.156  1.0100  0.6962  0.6934
   67CHL1   H2B 7413   2.924   0.565  10.178 -1.2849  2.0744  0.1257
   67CHL1   C20 7414   3.102   0.322   9.251 -0.1561 -0.0957  0.3481
   67CHL1   H20 7415   3.211   0.321   9.274 -0.4927  2.4144  2.4659
   67CHL1   C21 7416   3.081   0.471   9.231 -0.1989  0.3424  0.2850
   67CHL1  H21A 7417   3.156   0.508   9.157 -0.6143 -1.8473 -1.3062
   67CHL1  H21B 7418   3.093   0.533   9.323 -1.3842  1.2544 -0.1516
   67CHL1  H21C 7419   2.981   0.491   9.189  0.4588  2.1542 -0.5579
   67CHL1   C22 7420   3.087   0.233   9.117  0.3898 -0.1800 -0.4661
   67CHL1  H22A 7421   3.155   0.147   9.134 -0.4111 -2.0907 -5.3307
   67CHL1  H22B 7422   2.982   0.200   9.103  0.1788  0.4037 -0.2924
   67CHL1   C23 7423   3.133   0.300   8.987 -0.1645 -1.4517  1.0801
   67CHL1  H23A 7424   3.076   0.392   8.963  1.7368 -0.6339 -0.5090
   67CHL1  H23B 7425   3.239   0.332   8.992 -0.1823 -1.3368  0.6920
   67CHL1   C24 7426   3.112   0.207   8.867 -0.1982 -0.2663 -0.6746
   67CHL1  H24A 7427   3.183   0.127   8.898 -1.9207 -0.6646  2.7691
   67CHL1  H24B 7428   3.009   0.165   8.872 -0.5134  0.6140  0.6494
   67CHL1   C25 7429   3.145   0.269   8.729 -0.3546  0.0165  0.1887
   67CHL1   H25 7430   3.106   0.373   8.720 -1.2410 -0.0307  2.7496
   67CHL1   C26 7431   3.290   0.269   8.706  0.0848 -0.5211  0.7049
   67CHL1  H26A 7432   3.349   0.318   8.786  0.0657  0.7490 -0.0379
   67CHL1  H26B 7433   3.323   0.164   8.722  0.3189 -0.8608 -1.6565
   67CHL1  H26C 7434   3.322   0.304   8.606 -0.0628 -2.0845  0.0874
   67CHL1   C27 7435   3.076   0.181   8.624  0.1938 -0.2225  0.0551
   67CHL1  H27A 7436   2.974   0.159   8.662  1.3937 -1.4923  2.7898
   67CHL1  H27B 7437   3.063   0.243   8.533 -1.0395  2.5040  1.9598
   67CHL1  H27C 7438   3.126   0.084   8.602  0.6907  0.1464 -0.4855
   68CHL1    C3 7439   2.350   2.401  10.164  0.1084  0.0889  0.2913
   68CHL1    H3 7440   2.240   2.397  10.149  0.1268  0.1752  0.1307
   68CHL1    O3 7441   2.375   2.429  10.301  0.4734  0.0447  0.3548
   68CHL1   H3' 7442   2.421   2.350  10.328  1.7988  0.5279 -0.3996
   68CHL1    C4 7443   2.419   2.269  10.127 -0.1652 -0.0970 -0.6857
   68CHL1   H4A 7444   2.522   2.267  10.168 -0.5456  2.5074  0.5634
   68CHL1   H4B 7445   2.369   2.185  10.182  1.1603  0.8479  2.1757
   68CHL1    C5 7446   2.430   2.246   9.977  1.2850 -0.4431 -0.2830
   68CHL1    C6 7447   2.397   2.129   9.927  0.5241  0.6616 -0.4090
   68CHL1    H6 7448   2.371   2.051  10.000 -0.4374  1.5074  0.1813
   68CHL1    C7 7449   2.411   2.087   9.791 -0.5417  0.2132  0.4317
   68CHL1   H7A 7450   2.445   1.982   9.780 -0.0777  0.3232  0.7764
   68CHL1   H7B 7451   2.309   2.083   9.747 -0.5565 -1.0362  0.5385
   68CHL1    C8 7452   2.499   2.184   9.709  0.2119 -0.1983 -0.0673
   68CHL1    H8 7453   2.609   2.181   9.730  0.2786 -0.2711 -0.4273
   68CHL1   C14 7454   2.471   2.158   9.561 -0.7644  0.3464 -0.1264
   68CHL1   H14 7455   2.362   2.176   9.549 -0.4958  0.5677 -2.8125
   68CHL1   C15 7456   2.488   2.009   9.511  0.1511  0.3856 -0.4609
   68CHL1  H15A 7457   2.582   1.967   9.553 -0.2630 -1.0406 -0.9145
   68CHL1  H15B 7458   2.403   1.944   9.541  0.8752 -0.4571 -0.1935
   68CHL1   C16 7459   2.503   2.034   9.362 -1.0785 -0.4380  0.2939
   68CHL1  H16A 7460   2.597   1.986   9.326 -0.6313  0.2253  0.5403
   68CHL1  H16B 7461   2.421   1.995   9.298  0.3299  0.8824 -2.5042
   68CHL1   C17 7462   2.503   2.196   9.330  0.1898 -0.1233  0.1327
   68CHL1   H17 7463   2.394   2.215   9.316 -0.6270 -2.7244  2.1945
   68CHL1   C13 7464   2.545   2.253   9.463 -0.1702  0.2542  0.4478
   68CHL1   C18 7465   2.698   2.229   9.479  0.4288  0.3977  0.1989
   68CHL1  H18A 7466   2.726   2.259   9.582 -2.4211  2.4196  0.5081
   68CHL1  H18B 7467   2.724   2.124   9.456  1.3307  0.6160  0.1946
   68CHL1  H18C 7468   2.760   2.291   9.410 -1.6210  2.2517 -0.0929
   68CHL1   C12 7469   2.496   2.392   9.502  0.2083  0.1708  0.0206
   68CHL1  H12A 7470   2.546   2.461   9.431  0.9165  0.0275  0.3660
   68CHL1  H12B 7471   2.387   2.394   9.486  0.0557 -0.7881  0.8283
   68CHL1   C11 7472   2.524   2.425   9.644  0.3373 -0.5235  0.2989
   68CHL1  H11A 7473   2.632   2.428   9.671  0.3054 -1.3250  0.5545
   68CHL1  H11B 7474   2.483   2.525   9.668  0.9003  0.0752 -1.0944
   68CHL1    C9 7475   2.455   2.329   9.739  0.1400 -0.0364  0.2511
   68CHL1    H9 7476   2.350   2.345   9.705  0.0568  2.2790  1.3775
   68CHL1   C10 7477   2.467   2.372   9.887  0.4561 -0.5897 -0.2061
   68CHL1   C19 7478   2.609   2.417   9.927 -0.2723 -0.3187 -0.2881
   68CHL1  H19A 7479   2.613   2.526   9.906  1.3491 -0.2104  0.3871
   68CHL1  H19B 7480   2.629   2.403  10.036 -1.9665  0.9570  0.2380
   68CHL1  H19C 7481   2.686   2.366   9.866  1.0526 -0.0059  1.0432
   68CHL1    C1 7482   2.376   2.497   9.927 -0.0257  0.2771  0.1752
   68CHL1   H1A 7483   2.420   2.584   9.875  1.9314 -2.0092 -2.2963
   68CHL1   H1B 7484   2.273   2.477   9.890 -0.2486  0.5418  0.6447
   68CHL1    C2 7485   2.389   2.531  10.077  0.9872 -0.0714  0.3022
   68CHL1   H2A 7486   2.320   2.611  10.111 -0.5657 -2.0588  2.1784
   68CHL1   H2B 7487   2.490   2.568  10.105  0.3915  1.7344  0.1481
   68CHL1   C20 7488   2.581   2.235   9.201 -0.1117 -0.2855 -0.2738
   68CHL1   H20 7489   2.677   2.180   9.203 -0.1436 -0.3690 -0.7658
   68CHL1   C21 7490   2.603   2.388   9.184  0.1974  0.0941 -0.1285
   68CHL1  H21A 7491   2.645   2.416   9.085  0.8721  3.0560  0.9036
   68CHL1  H21B 7492   2.665   2.429   9.267  0.8249 -1.2967  0.1267
   68CHL1  H21C 7493   2.502   2.433   9.185 -0.6494 -1.6971 -1.0100
   68CHL1   C22 7494   2.504   2.182   9.074 -0.1678 -0.6263  0.2702
   68CHL1  H22A 7495   2.475   2.079   9.104 -2.2572 -0.0736  0.2999
   68CHL1  H22B 7496   2.412   2.243   9.056 -0.0076 -1.0078 -2.2931
   68CHL1   C23 7497   2.595   2.171   8.950  0.0404 -0.0632 -0.3644
   68CHL1  H23A 7498   2.632   2.272   8.921 -1.4093  0.5265 -0.2243
   68CHL1  H23B 7499   2.683   2.108   8.975 -0.7573 -0.9092  0.3563
   68CHL1   C24 7500   2.525   2.104   8.828 -0.3438  0.2206  0.3553
   68CHL1  H24A 7501   2.477   2.007   8.854 -3.2870  1.5138  0.1780
   68CHL1  H24B 7502   2.439   2.166   8.792 -0.9650 -1.2575 -0.7953
   68CHL1   C25 7503   2.612   2.082   8.707 -0.8549 -0.1282  0.5903
   68CHL1   H25 7504   2.632   2.182   8.663  0.9295 -0.6061  0.2414
   68CHL1   C26 7505   2.757   2.021   8.739  0.5546  0.0342 -0.2379
   68CHL1  H26A 7506   2.817   2.100   8.788  0.7783 -1.0480  1.2759
   68CHL1  H26B 7507   2.748   1.936   8.810 -1.8137  0.1010 -0.3947
   68CHL1  H26C 7508   2.805   1.986   8.644 -0.6914 -0.3817 -0.7320
   68CHL1   C27 7509   2.533   1.996   8.604 -0.1216  0.1596 -0.8886
   68CHL1  H27A 7510   2.442   2.038   8.555 -0.0772  2.1691  0.6354
   68CHL1  H27B 7511   2.601   1.968   8.521 -1.2982  0.8662 -2.1355
   68CHL1  H27C 7512   2.491   1.904   8.651 -1.3730  0.9632 -0.3793
   69CHL1    C3 7513   6.296   0.088   6.837 -0.6268 -0.6764 -0.3893
   69CHL1    H3 7514   6.240  -0.007   6.849  0.0526 -0.8711  1.6763
   69CHL1    O3 7515   6.304   0.118   6.700  0.1833  0.4843 -0.1303
   69CHL1   H3' 7516   6.330   0.209   6.685 -0.2281  0.2555 -2.7614
   69CHL1    C4 7517   6.223   0.199   6.911  0.1749 -0.6914 -0.3445
   69CHL1   H4A 7518   6.275   0.295   6.886  1.5616 -1.0263  1.0920
   69CHL1   H4B 7519   6.122   0.201   6.864 -0.1483  1.7675  0.3039
   69CHL1    C5 7520   6.227   0.169   7.058 -0.5180 -0.1174 -0.3541
   69CHL1    C6 7521   6.106   0.151   7.123 -0.6723 -0.4761 -0.7348
   69CHL1    H6 7522   6.013   0.175   7.069  0.0758  0.9758 -1.4562
   69CHL1    C7 7523   6.094   0.111   7.268 -0.5881 -0.3949 -0.1451
   69CHL1   H7A 7524   6.023   0.187   7.309  1.0157  2.6085 -2.4350
   69CHL1   H7B 7525   6.063   0.006   7.286 -0.8238  0.0223  2.1308
   69CHL1    C8 7526   6.237   0.138   7.332  0.5200 -0.6079  0.1045
   69CHL1    H8 7527   6.250   0.248   7.340 -1.7543 -0.3671  1.4209
   69CHL1   C14 7528   6.224   0.072   7.470 -0.3278 -0.0675  0.5194
   69CHL1   H14 7529   6.204  -0.035   7.448 -1.3660  0.3645 -0.7385
   69CHL1   C15 7530   6.101   0.116   7.556  0.7542 -0.2809  0.7625
   69CHL1  H15A 7531   6.097   0.227   7.545  2.1589 -0.3296 -0.5676
   69CHL1  H15B 7532   6.007   0.075   7.513  1.4681  0.6160 -1.8314
   69CHL1   C16 7533   6.136   0.070   7.692 -0.2879  0.1451  0.0898
   69CHL1  H16A 7534   6.134   0.159   7.758  0.3225  0.9984 -1.0187
   69CHL1  H16B 7535   6.063   0.001   7.740  1.1723  0.4584  2.9744
   69CHL1   C17 7536   6.282   0.010   7.681 -0.9456 -0.0506  0.1300
   69CHL1   H17 7537   6.262  -0.097   7.660 -3.8625  0.5334 -0.5218
   69CHL1   C13 7538   6.345   0.074   7.562 -0.7395 -0.3788 -0.7028
   69CHL1   C18 7539   6.380   0.223   7.597  0.0497  0.2421 -0.0912
   69CHL1  H18A 7540   6.298   0.279   7.646 -0.6447 -1.1044  0.2993
   69CHL1  H18B 7541   6.475   0.235   7.654 -0.3725 -0.2606  0.7306
   69CHL1  H18C 7542   6.390   0.280   7.502  1.5580  1.5772  0.8081
   69CHL1   C12 7543   6.456  -0.004   7.488 -0.2110 -0.2524  0.4440
   69CHL1  H12A 7544   6.548  -0.021   7.549  1.6779  1.7207 -1.6603
   69CHL1  H12B 7545   6.409  -0.099   7.457 -0.3616  0.3582 -1.3000
   69CHL1   C11 7546   6.477   0.069   7.354  0.1257  0.3776 -0.1423
   69CHL1  H11A 7547   6.522   0.169   7.373  2.2349 -0.3281 -1.1092
   69CHL1  H11B 7548   6.557   0.004   7.311 -0.0452 -2.3763  3.1954
   69CHL1    C9 7549   6.351   0.078   7.256  0.4477 -0.6919 -0.1545
   69CHL1    H9 7550   6.328  -0.029   7.234  1.6809 -0.8478 -0.7675
   69CHL1   C10 7551   6.372   0.146   7.118 -0.6261  0.0841 -0.8731
   69CHL1   C19 7552   6.445   0.279   7.131  0.2230  0.0442 -0.0849
   69CHL1  H19A 7553   6.395   0.350   7.200  1.4659 -0.6699  1.6609
   69CHL1  H19B 7554   6.547   0.272   7.175  0.4402  4.0248  0.4277
   69CHL1  H19C 7555   6.464   0.323   7.031 -1.5320 -0.4976 -0.6924
   69CHL1    C1 7556   6.451   0.043   7.025 -0.3458 -0.0661 -0.1735
   69CHL1   H1A 7557   6.558   0.045   7.055  0.3657 -0.6398 -2.5015
   69CHL1   H1B 7558   6.421  -0.060   7.052 -2.2901  0.3957 -0.3909
   69CHL1    C2 7559   6.445   0.078   6.879  0.3301  0.8919 -0.1227
   69CHL1   H2A 7560   6.486  -0.006   6.820  0.0102  0.3732  0.3785
   69CHL1   H2B 7561   6.490   0.178   6.860  2.3934  0.3590  1.6048
   69CHL1   C20 7562   6.348   0.020   7.825 -0.7838  0.3510 -0.0335
   69CHL1   H20 7563   6.345   0.127   7.853  2.3269 -0.3503  3.8780
   69CHL1   C21 7564   6.493  -0.025   7.824 -0.7126 -0.0185 -0.0053
   69CHL1  H21A 7565   6.502  -0.126   7.780 -1.3883  0.1028 -0.4396
   69CHL1  H21B 7566   6.552  -0.018   7.918  0.2747 -3.6075 -0.2343
   69CHL1  H21C 7567   6.543   0.039   7.748 -0.1067 -0.1141  0.3086
   69CHL1   C22 7568   6.263  -0.055   7.932  1.1698  0.4023 -0.6658
   69CHL1  H22A 7569   6.158  -0.019   7.943  0.5791 -0.8989 -1.7009
   69CHL1  H22B 7570   6.242  -0.158   7.895 -0.1665  0.3886  0.0506
   69CHL1   C23 7571   6.308  -0.063   8.074 -0.5113 -0.3658  0.3084
   69CHL1  H23A 7572   6.395  -0.131   8.083  0.7643  1.1916  0.1777
   69CHL1  H23B 7573   6.347   0.035   8.109 -1.6557 -0.7852  3.0029
   69CHL1   C24 7574   6.209  -0.113   8.181 -0.5671 -0.5470  0.3864
   69CHL1  H24A 7575   6.118  -0.050   8.177 -0.7619 -0.6474  2.4133
   69CHL1  H24B 7576   6.175  -0.213   8.147 -1.0993 -0.7168  1.3819
   69CHL1   C25 7577   6.252  -0.096   8.327  0.6642  0.5137 -0.3390
   69CHL1   H25 7578   6.268   0.013   8.341 -0.4167  0.6908 -0.4281
   69CHL1   C26 7579   6.145  -0.137   8.427  0.0251 -0.4665 -0.5706
   69CHL1  H26A 7580   6.168  -0.089   8.524  0.9975  2.1586 -2.0138
   69CHL1  H26B 7581   6.042  -0.102   8.401 -0.0180 -1.1495 -1.3439
   69CHL1  H26C 7582   6.126  -0.247   8.426 -1.6435 -0.2364  0.4671
   69CHL1   C27 7583   6.377  -0.184   8.349  0.0155 -0.0150 -0.1993
   69CHL1  H27A 7584   6.411  -0.172   8.454  1.8222  1.8833 -0.9406
   69CHL1  H27B 7585   6.352  -0.292   8.336  0.9173 -0.4191  1.0883
   69CHL1  H27C 7586   6.455  -0.152   8.277 -0.3879  0.1843 -0.5461
   70CHL1    C3 7587   0.126   2.455   7.204  0.4161 -0.2548 -0.9164
   70CHL1    H3 7588   0.024   2.487   7.235  0.9577 -1.2681  2.3108
   70CHL1    O3 7589   0.128   2.441   7.068  0.3676 -0.3246  0.3940
   70CHL1   H3' 7590   0.213   2.401   7.051  0.4628  0.2721 -0.6391
   70CHL1    C4 7591   0.225   2.570   7.241 -0.5207 -0.5578 -0.2850
   70CHL1   H4A 7592   0.329   2.540   7.217 -0.1933 -0.3519  0.7839
   70CHL1   H4B 7593   0.194   2.659   7.181 -0.3449 -0.8553 -0.8192
   70CHL1    C5 7594   0.224   2.596   7.389 -0.4706 -0.2538 -0.0883
   70CHL1    C6 7595   0.197   2.719   7.444 -0.1152  0.3484 -0.1903
   70CHL1    H6 7596   0.169   2.801   7.377  0.6387 -0.0712 -1.0453
   70CHL1    C7 7597   0.196   2.738   7.594  0.2095 -0.3113  0.5143
   70CHL1   H7A 7598   0.238   2.839   7.615 -0.2714 -0.0196  0.0886
   70CHL1   H7B 7599   0.090   2.740   7.624 -0.5413  2.9291 -1.7852
   70CHL1    C8 7600   0.267   2.624   7.676  0.4957 -0.2670 -0.0416
   70CHL1    H8 7601   0.376   2.633   7.655  0.4490  0.3157 -0.0634
   70CHL1   C14 7602   0.240   2.634   7.827  0.5554  0.4737  0.2050
   70CHL1   H14 7603   0.134   2.611   7.846  0.9568  0.3097  2.4862
   70CHL1   C15 7604   0.255   2.762   7.894 -0.2896  0.2704 -0.0694
   70CHL1  H15A 7605   0.344   2.823   7.866 -1.7970  2.0047 -1.3856
   70CHL1  H15B 7606   0.171   2.828   7.862 -0.9418 -0.4083  0.2222
   70CHL1   C16 7607   0.264   2.733   8.042  0.0034  0.3908  0.0106
   70CHL1  H16A 7608   0.355   2.771   8.093  1.9688 -1.8974 -1.5859
   70CHL1  H16B 7609   0.170   2.772   8.087 -0.2830 -1.9179  1.5452
   70CHL1   C17 7610   0.262   2.574   8.058 -0.7271  0.3156  0.5732
   70CHL1   H17 7611   0.155   2.543   8.061 -0.1370 -2.3605 -1.5525
   70CHL1   C13 7612   0.309   2.527   7.922 -0.5455 -0.5103  0.5434
   70CHL1   C18 7613   0.469   2.561   7.914  0.3115  0.5588  0.3586
   70CHL1  H18A 7614   0.514   2.552   7.813  0.4279 -1.3086  0.5364
   70CHL1  H18B 7615   0.479   2.666   7.948 -0.6068 -0.2897  3.6411
   70CHL1  H18C 7616   0.534   2.495   7.976  0.1311 -0.5685 -0.6007
   70CHL1   C12 7617   0.273   2.389   7.867 -0.6486 -0.3546  0.1380
   70CHL1  H12A 7618   0.345   2.318   7.913  1.4627  1.4581 -0.2126
   70CHL1  H12B 7619   0.169   2.357   7.890 -0.8136 -0.3043 -0.5236
   70CHL1   C11 7620   0.292   2.376   7.715  0.4213 -0.3553  0.6363
   70CHL1  H11A 7621   0.402   2.390   7.710  0.3190  0.2725 -0.2556
   70CHL1  H11B 7622   0.265   2.273   7.684  1.4170  0.0538 -1.8033
   70CHL1    C9 7623   0.235   2.484   7.623  0.1009 -0.2012 -0.2218
   70CHL1    H9 7624   0.125   2.490   7.634  0.2579  1.5086  0.8261
   70CHL1   C10 7625   0.257   2.464   7.474  0.9633  0.4008  0.7620
   70CHL1   C19 7626   0.407   2.422   7.450 -0.1119  0.5353 -0.1698
   70CHL1  H19A 7627   0.435   2.418   7.342 -0.3986  0.2232 -0.2334
   70CHL1  H19B 7628   0.467   2.498   7.504 -0.3167 -0.7821  2.0261
   70CHL1  H19C 7629   0.423   2.317   7.484 -0.5548  0.3580 -0.4950
   70CHL1    C1 7630   0.162   2.352   7.429  0.2853  0.0075 -0.3564
   70CHL1   H1A 7631   0.188   2.254   7.473 -0.0579  0.6508  1.3288
   70CHL1   H1B 7632   0.058   2.383   7.452  0.4335  1.1633 -1.1384
   70CHL1    C2 7633   0.160   2.329   7.277  0.3624 -0.3506 -0.2590
   70CHL1   H2A 7634   0.084   2.249   7.266  1.3374 -1.5415  1.1556
   70CHL1   H2B 7635   0.263   2.296   7.251  1.4632  1.0544  1.9915
   70CHL1   C20 7636   0.341   2.530   8.180  0.1121  0.3682  0.0307
   70CHL1   H20 7637   0.445   2.569   8.184 -0.5038  2.0873  0.2657
   70CHL1   C21 7638   0.363   2.377   8.181  0.5398 -0.0288  0.5243
   70CHL1  H21A 7639   0.265   2.327   8.160  0.7623 -0.2440 -0.0160
   70CHL1  H21B 7640   0.394   2.343   8.283 -2.1881 -0.4644  1.2965
   70CHL1  H21C 7641   0.433   2.335   8.106 -2.2516 -4.1769 -0.1277
   70CHL1   C22 7642   0.272   2.584   8.308  0.8638  0.2914  0.1681
   70CHL1  H22A 7643   0.279   2.695   8.307  0.4303  0.3431  1.0390
   70CHL1  H22B 7644   0.163   2.560   8.311  0.9382 -0.0405  0.1917
   70CHL1   C23 7645   0.322   2.540   8.448  0.1313 -0.3138  0.2461
   70CHL1  H23A 7646   0.295   2.434   8.466 -1.0487 -0.3464 -1.5469
   70CHL1  H23B 7647   0.431   2.561   8.462  0.0633  0.0905  0.1755
   70CHL1   C24 7648   0.249   2.607   8.570 -0.0404  0.2164 -0.2486
   70CHL1  H24A 7649   0.254   2.715   8.549  0.2949  0.2117 -0.1883
   70CHL1  H24B 7650   0.140   2.581   8.572 -0.1550  0.4946  2.8842
   70CHL1   C25 7651   0.313   2.562   8.703 -0.7965 -0.0509 -0.4157
   70CHL1   H25 7652   0.282   2.457   8.722 -0.0639 -0.2260 -0.1538
   70CHL1   C26 7653   0.468   2.569   8.717  0.2015 -0.3673 -0.2139
   70CHL1  H26A 7654   0.520   2.492   8.656 -1.7270 -1.3815 -0.6732
   70CHL1  H26B 7655   0.504   2.666   8.675 -1.0619  0.3018  0.1937
   70CHL1  H26C 7656   0.508   2.554   8.819  2.5245  0.0103 -1.0136
   70CHL1   C27 7657   0.264   2.650   8.814  0.5346 -0.9098  0.0613
   70CHL1  H27A 7658   0.300   2.630   8.917  0.8426  2.7213  0.7583
   70CHL1  H27B 7659   0.300   2.754   8.799  0.0286 -0.2332  2.8762
   70CHL1  H27C 7660   0.153   2.652   8.806  0.5250  0.2325  0.4038
   71CHL1    C3 7661   5.174   0.033   6.876 -0.0305 -0.4697  0.1306
   71CHL1    H3 7662   5.064   0.042   6.861  0.3039  2.0799 -1.4276
   71CHL1    O3 7663   5.232   0.047   6.750 -0.0280  0.2723 -0.6989
   71CHL1   H3' 7664   5.175  -0.008   6.697  1.1343 -1.9644  0.2428
   71CHL1    C4 7665   5.221   0.134   6.982  0.3005 -0.0281 -0.7756
   71CHL1   H4A 7666   5.331   0.141   6.969 -0.1496  2.1630 -5.9628
   71CHL1   H4B 7667   5.177   0.228   6.942 -0.1326 -0.4290 -1.2495
   71CHL1    C5 7668   5.169   0.113   7.122  0.0733 -0.3644  0.2410
   71CHL1    C6 7669   5.089   0.200   7.181  0.2628 -1.2777 -0.2478
   71CHL1    H6 7670   5.071   0.295   7.128 -4.5623 -0.1889  2.6830
   71CHL1    C7 7671   5.040   0.190   7.320 -0.5898  0.6677 -0.2087
   71CHL1   H7A 7672   5.072   0.283   7.372  0.2663  0.6816 -0.7367
   71CHL1   H7B 7673   4.930   0.178   7.325 -0.8223  1.1442 -2.9376
   71CHL1    C8 7674   5.111   0.073   7.392 -0.2299  0.4775  0.3190
   71CHL1    H8 7675   5.219   0.097   7.404  0.3487 -1.6179 -0.2379
   71CHL1   C14 7676   5.037   0.043   7.519  0.4858  0.3481  0.1124
   71CHL1   H14 7677   4.936   0.012   7.486  0.6366  0.8882 -0.9203
   71CHL1   C15 7678   5.013   0.162   7.614  0.0150  0.4994 -0.1226
   71CHL1  H15A 7679   5.108   0.218   7.630  0.9197 -0.5345 -1.5947
   71CHL1  H15B 7680   4.946   0.240   7.573  1.6892  1.2152 -1.6432
   71CHL1   C16 7681   4.977   0.091   7.744  0.2695 -0.2592  0.0235
   71CHL1  H16A 7682   5.033   0.140   7.826  2.0955 -1.7552 -0.2465
   71CHL1  H16B 7683   4.868   0.097   7.763  0.2842 -0.2635  0.1066
   71CHL1   C17 7684   5.004  -0.061   7.727  0.6678 -0.6390 -0.2288
   71CHL1   H17 7685   4.907  -0.102   7.691  0.1582  1.2909 -1.1752
   71CHL1   C13 7686   5.095  -0.069   7.602 -0.1572 -0.1532 -0.1636
   71CHL1   C18 7687   5.236  -0.027   7.645 -0.0321  0.6134 -0.7322
   71CHL1  H18A 7688   5.292  -0.107   7.697  1.8231  1.7410 -0.8957
   71CHL1  H18B 7689   5.304  -0.003   7.560  0.5324  0.3589 -0.3600
   71CHL1  H18C 7690   5.237   0.068   7.704  0.9415 -1.1791  2.3568
   71CHL1   C12 7691   5.103  -0.196   7.518  0.7865 -0.0008  0.2861
   71CHL1  H12A 7692   5.145  -0.278   7.581  0.4015  0.7968  1.6223
   71CHL1  H12B 7693   5.002  -0.236   7.498  0.7102  0.9188 -1.2939
   71CHL1   C11 7694   5.167  -0.183   7.386 -0.3205 -0.2904  0.7467
   71CHL1  H11A 7695   5.275  -0.165   7.405 -0.0167  0.0361 -1.0834
   71CHL1  H11B 7696   5.160  -0.272   7.321  0.4981 -0.6392  1.1223
   71CHL1    C9 7697   5.115  -0.057   7.307  0.8927 -0.1429 -0.0114
   71CHL1    H9 7698   5.010  -0.076   7.278  1.3102 -1.2204 -0.9004
   71CHL1   C10 7699   5.193  -0.029   7.181 -0.0562  0.6716  1.3974
   71CHL1   C19 7700   5.350  -0.048   7.201 -0.4446 -0.3944  0.8330
   71CHL1  H19A 7701   5.375  -0.156   7.196  0.2147 -0.1858 -1.6948
   71CHL1  H19B 7702   5.408  -0.017   7.112 -1.0661 -2.3457 -0.3249
   71CHL1  H19C 7703   5.393  -0.006   7.295  2.6258 -1.2277 -0.1154
   71CHL1    C1 7704   5.144  -0.135   7.069 -0.0589 -0.0041 -0.3087
   71CHL1   H1A 7705   5.187  -0.233   7.098 -1.9160 -0.3665  1.4406
   71CHL1   H1B 7706   5.036  -0.162   7.069  0.2213 -1.3011  1.7212
   71CHL1    C2 7707   5.201  -0.108   6.928  0.0721 -0.3953 -0.1748
   71CHL1   H2A 7708   5.183  -0.187   6.851 -0.0020 -0.5556  0.0052
   71CHL1   H2B 7709   5.312  -0.103   6.938  0.0955  0.8411 -0.8360
   71CHL1   C20 7710   5.049  -0.138   7.847  0.2828  0.0334 -0.6418
   71CHL1   H20 7711   5.068  -0.240   7.807  0.9043  1.1061 -3.3157
   71CHL1   C21 7712   4.922  -0.148   7.940 -0.3655  0.1840 -0.7458
   71CHL1  H21A 7713   4.949  -0.204   8.032  0.6470 -0.8481 -1.6387
   71CHL1  H21B 7714   4.846  -0.212   7.891 -0.3692 -1.8396  1.6813
   71CHL1  H21C 7715   4.863  -0.056   7.962 -3.1364 -1.8286  0.8667
   71CHL1   C22 7716   5.161  -0.079   7.936 -0.8887  0.5663  0.0751
   71CHL1  H22A 7717   5.252  -0.044   7.882 -0.4474 -1.0242 -0.2740
   71CHL1  H22B 7718   5.117   0.005   7.993  2.6946  2.3126  0.6075
   71CHL1   C23 7719   5.212  -0.181   8.048 -0.7235 -0.7472 -0.4838
   71CHL1  H23A 7720   5.131  -0.205   8.120 -1.5475  0.4477 -0.9885
   71CHL1  H23B 7721   5.244  -0.267   7.985  0.0059 -0.4953 -0.4760
   71CHL1   C24 7722   5.344  -0.141   8.118 -0.3039  0.0101 -0.6023
   71CHL1  H24A 7723   5.413  -0.094   8.046  1.6861  2.0673  2.4043
   71CHL1  H24B 7724   5.322  -0.051   8.180  1.4365  1.8201 -2.5001
   71CHL1   C25 7725   5.407  -0.260   8.192 -0.4466  0.3323  0.0479
   71CHL1   H25 7726   5.412  -0.344   8.119  1.4719  0.7001 -0.2945
   71CHL1   C26 7727   5.554  -0.220   8.228 -0.4803 -0.0998 -0.6888
   71CHL1  H26A 7728   5.594  -0.285   8.309 -0.9968 -0.5214 -0.7652
   71CHL1  H26B 7729   5.616  -0.233   8.137  2.0403 -0.6047  1.0070
   71CHL1  H26C 7730   5.560  -0.114   8.260 -2.5320  0.2564 -1.3465
   71CHL1   C27 7731   5.337  -0.298   8.326 -0.6139  0.5434 -0.4483
   71CHL1  H27A 7732   5.396  -0.368   8.391  1.2808  0.5091 -2.1185
   71CHL1  H27B 7733   5.329  -0.202   8.382  0.7228 -0.9113  2.4879
   71CHL1  H27C 7734   5.241  -0.351   8.311  0.1358 -1.5626  1.4982
   72CHL1    C3 7735   0.598   3.564   7.065 -0.1020 -0.4776  0.2721
   72CHL1    H3 7736   0.492   3.571   7.098 -0.5273  2.9925 -1.3577
   72CHL1    O3 7737   0.590   3.581   6.920 -0.1538 -0.5040  0.6510
   72CHL1   H3' 7738   0.676   3.611   6.889 -1.0706  0.8291 -0.7387
   72CHL1    C4 7739   0.682   3.672   7.121  0.1151 -0.6297 -0.2871
   72CHL1   H4A 7740   0.786   3.658   7.086  0.7629 -1.3663  1.7883
   72CHL1   H4B 7741   0.629   3.764   7.089 -0.9791  0.1580  3.3954
   72CHL1    C5 7742   0.677   3.664   7.274  1.0852 -0.0377  0.2173
   72CHL1    C6 7743   0.625   3.764   7.350  0.4696  0.4218 -0.1944
   72CHL1    H6 7744   0.588   3.858   7.306 -2.5063 -0.1079  0.9316
   72CHL1    C7 7745   0.626   3.762   7.502 -0.0043  0.3828  0.3607
   72CHL1   H7A 7746   0.677   3.851   7.543 -1.8224  1.2411  0.8781
   72CHL1   H7B 7747   0.525   3.755   7.550 -0.9001  0.6456 -1.4014
   72CHL1    C8 7748   0.699   3.641   7.560 -0.1004 -0.4174  0.0696
   72CHL1    H8 7749   0.807   3.668   7.554 -0.2101  0.1615  0.6955
   72CHL1   C14 7750   0.667   3.614   7.706 -0.2277 -0.9095 -0.5641
   72CHL1   H14 7751   0.562   3.577   7.709 -1.6037  2.6674  1.3991
   72CHL1   C15 7752   0.665   3.738   7.798 -0.2555 -0.4738 -0.6606
   72CHL1  H15A 7753   0.759   3.793   7.778  0.0037 -1.3954 -2.1714
   72CHL1  H15B 7754   0.574   3.801   7.787  0.7020  1.8203  2.8549
   72CHL1   C16 7755   0.681   3.674   7.943 -0.3161  0.2546  0.7838
   72CHL1  H16A 7756   0.776   3.716   7.981  1.2950  0.0131 -2.6194
   72CHL1  H16B 7757   0.605   3.714   8.014  0.7652  1.2377  1.4314
   72CHL1   C17 7758   0.687   3.520   7.924 -0.3456 -0.4237 -0.3382
   72CHL1   H17 7759   0.578   3.497   7.921 -0.9075  2.0337 -2.7937
   72CHL1   C13 7760   0.742   3.511   7.778  0.8077  1.1085 -0.2823
   72CHL1   C18 7761   0.893   3.531   7.784 -0.2190  0.7085 -0.5219
   72CHL1  H18A 7762   0.919   3.613   7.854 -1.5026  1.6400 -1.0822
   72CHL1  H18B 7763   0.935   3.436   7.822 -0.1013  0.4863 -1.1891
   72CHL1  H18C 7764   0.942   3.549   7.686 -0.8046 -0.2839 -1.0219
   72CHL1   C12 7765   0.717   3.378   7.703 -0.1156  0.4652 -0.2354
   72CHL1  H12A 7766   0.778   3.293   7.739 -1.0600  0.5327  1.6422
   72CHL1  H12B 7767   0.610   3.350   7.715  0.2264 -1.3153 -0.9845
   72CHL1   C11 7768   0.747   3.377   7.550  0.7393  0.0508 -0.2036
   72CHL1  H11A 7769   0.855   3.369   7.528  0.9827  0.1802  0.8671
   72CHL1  H11B 7770   0.686   3.299   7.500 -1.9414 -0.0488  2.8539
   72CHL1    C9 7771   0.691   3.508   7.477 -0.0580 -0.2442 -0.7490
   72CHL1    H9 7772   0.585   3.476   7.485  0.9330 -3.7172  0.1386
   72CHL1   C10 7773   0.723   3.528   7.327 -0.0851  0.3509 -1.1771
   72CHL1   C19 7774   0.880   3.519   7.311  0.6105  0.7831 -0.2107
   72CHL1  H19A 7775   0.922   3.593   7.383  0.8844  0.2918  0.1417
   72CHL1  H19B 7776   0.905   3.412   7.326 -0.0966  0.3397 -2.0086
   72CHL1  H19C 7777   0.906   3.544   7.206  1.5531 -0.0920 -0.2050
   72CHL1    C1 7778   0.655   3.411   7.244  0.5436 -0.1012 -0.2287
   72CHL1   H1A 7779   0.709   3.318   7.271  0.1131 -0.0530  0.8191
   72CHL1   H1B 7780   0.552   3.376   7.267  0.4972 -0.5370 -1.0426
   72CHL1    C2 7781   0.657   3.426   7.093 -0.7196 -0.6152 -0.2134
   72CHL1   H2A 7782   0.586   3.350   7.054 -0.5599 -0.5109 -0.7207
   72CHL1   H2B 7783   0.763   3.416   7.062 -0.2911  0.9897  0.6274
   72CHL1   C20 7784   0.748   3.446   8.044  0.4801  0.0753 -0.1797
   72CHL1   H20 7785   0.856   3.472   8.049  1.3054 -3.1328  1.5511
   72CHL1   C21 7786   0.747   3.291   8.025 -0.7579  0.0695 -0.2208
   72CHL1  H21A 7787   0.822   3.267   7.947  0.5507 -0.7315  1.2196
   72CHL1  H21B 7788   0.643   3.271   7.990 -1.6074  2.5748  0.5951
   72CHL1  H21C 7789   0.787   3.241   8.116  0.6793 -0.4521 -1.1272
   72CHL1   C22 7790   0.689   3.485   8.184  0.1855 -1.1602  0.7020
   72CHL1  H22A 7791   0.743   3.427   8.262 -0.9352 -0.3204  2.1510
   72CHL1  H22B 7792   0.698   3.594   8.201 -1.6692 -0.9430  0.4753
   72CHL1   C23 7793   0.535   3.460   8.193 -0.8269  0.9615 -0.8162
   72CHL1  H23A 7794   0.478   3.488   8.101  0.8654  0.1419 -2.1874
   72CHL1  H23B 7795   0.525   3.351   8.215  2.2846  0.6845 -0.2328
   72CHL1   C24 7796   0.472   3.524   8.319  0.5285 -0.2399 -0.5768
   72CHL1  H24A 7797   0.541   3.483   8.396  1.7149  0.3634 -1.2718
   72CHL1  H24B 7798   0.490   3.633   8.322  2.3390 -0.4739 -1.4084
   72CHL1   C25 7799   0.330   3.476   8.357  0.3348 -0.4922 -0.1760
   72CHL1   H25 7800   0.333   3.371   8.321  0.6835 -0.5799  0.1032
   72CHL1   C26 7801   0.292   3.496   8.510 -0.5409 -0.0311  0.3619
   72CHL1  H26A 7802   0.189   3.459   8.532 -0.0917 -1.0610  0.7856
   72CHL1  H26B 7803   0.371   3.445   8.569  0.8548  0.2564 -1.1789
   72CHL1  H26C 7804   0.293   3.599   8.552  0.1764 -1.0250  3.0055
   72CHL1   C27 7805   0.231   3.542   8.266  0.0088  0.1168 -0.6594
   72CHL1  H27A 7806   0.275   3.550   8.164  2.3603  2.4003  0.4036
   72CHL1  H27B 7807   0.136   3.486   8.270 -0.2329  0.5567 -0.1419
   72CHL1  H27C 7808   0.216   3.647   8.299  1.6055  0.8013 -1.9691
   73CHL1    C3 7809   5.654   2.138   7.041  0.4100 -0.1583  0.9319
   73CHL1    H3 7810   5.739   2.067   7.044  1.2246  0.7675  0.3452
   73CHL1    O3 7811   5.617   2.164   6.907  0.2350 -0.2404  0.5165
   73CHL1   H3' 7812   5.535   2.213   6.912 -1.2566 -2.5217 -0.1400
   73CHL1    C4 7813   5.529   2.107   7.121  0.4194  0.3047 -0.3574
   73CHL1   H4A 7814   5.462   2.196   7.113 -1.4578 -1.0553 -0.3890
   73CHL1   H4B 7815   5.468   2.023   7.082  0.4599  0.7646 -1.4590
   73CHL1    C5 7816   5.553   2.091   7.265 -0.4422  0.5330  1.1734
   73CHL1    C6 7817   5.521   1.975   7.327 -0.8185  0.1576 -0.2372
   73CHL1    H6 7818   5.479   1.892   7.267 -2.1759  0.2754  0.5148
   73CHL1    C7 7819   5.571   1.938   7.466  0.6240  0.4991 -0.0766
   73CHL1   H7A 7820   5.496   1.866   7.507  0.0483  0.2439 -1.5045
   73CHL1   H7B 7821   5.657   1.870   7.447 -0.4537 -0.6723 -0.9514
   73CHL1    C8 7822   5.604   2.055   7.558 -0.4170 -0.3330  0.3324
   73CHL1    H8 7823   5.503   2.095   7.581 -0.2511 -0.6233  1.6522
   73CHL1   C14 7824   5.669   2.017   7.688 -0.1634  0.0245 -0.0472
   73CHL1   H14 7825   5.763   1.964   7.661  0.5922 -0.9893  4.0072
   73CHL1   C15 7826   5.581   1.924   7.773  0.3792 -1.0689 -0.2314
   73CHL1  H15A 7827   5.478   1.963   7.769  0.8010 -0.0010 -2.4703
   73CHL1  H15B 7828   5.585   1.821   7.732  2.1149 -0.7781 -0.9015
   73CHL1   C16 7829   5.647   1.938   7.913  0.3881  0.4368  0.3031
   73CHL1  H16A 7830   5.572   1.958   7.993 -0.2951 -0.7792 -0.0135
   73CHL1  H16B 7831   5.697   1.845   7.946 -1.9350 -0.3165  1.9769
   73CHL1   C17 7832   5.745   2.060   7.902 -0.6372  0.0001 -0.2712
   73CHL1   H17 7833   5.841   2.014   7.869 -1.6258 -1.4697 -1.1842
   73CHL1   C13 7834   5.701   2.134   7.777 -0.3360 -0.0388  0.0368
   73CHL1   C18 7835   5.583   2.225   7.813  1.1406  0.0309 -0.2125
   73CHL1  H18A 7836   5.531   2.261   7.722 -0.6701 -2.3963 -0.2549
   73CHL1  H18B 7837   5.507   2.169   7.872  2.0508 -1.6022 -0.5072
   73CHL1  H18C 7838   5.624   2.311   7.871  0.3533 -0.6112  1.3521
   73CHL1   C12 7839   5.806   2.215   7.701  0.1680 -0.1937  0.0147
   73CHL1  H12A 7840   5.826   2.312   7.752 -1.7767  0.2853 -0.0689
   73CHL1  H12B 7841   5.898   2.152   7.701 -1.0045 -1.9885  1.1855
   73CHL1   C11 7842   5.765   2.262   7.564  0.2229  0.8086 -0.1627
   73CHL1  H11A 7843   5.691   2.343   7.581 -0.0772  0.9798 -2.0578
   73CHL1  H11B 7844   5.844   2.311   7.504  0.9531 -1.1650 -0.9134
   73CHL1    C9 7845   5.691   2.152   7.481  0.3366 -0.0577  0.2734
   73CHL1    H9 7846   5.776   2.083   7.459  0.0983 -0.6655  1.2128
   73CHL1   C10 7847   5.642   2.200   7.334  0.3499  0.2996 -0.9174
   73CHL1   C19 7848   5.551   2.322   7.363 -0.2197 -0.4496 -1.0255
   73CHL1  H19A 7849   5.490   2.346   7.274  1.4527  0.4890 -1.9699
   73CHL1  H19B 7850   5.476   2.291   7.439  0.4958  0.2008 -0.0301
   73CHL1  H19C 7851   5.613   2.404   7.405 -0.1586 -1.2716  0.5834
   73CHL1    C1 7852   5.760   2.246   7.242  0.6896  0.6267 -0.3594
   73CHL1   H1A 7853   5.795   2.344   7.281  2.0123  0.3044 -0.6959
   73CHL1   H1B 7854   5.840   2.170   7.252  0.5570  0.4353 -0.7129
   73CHL1    C2 7855   5.715   2.262   7.094 -0.3483 -0.2201 -0.3675
   73CHL1   H2A 7856   5.802   2.291   7.031  0.7064  0.3639  1.2637
   73CHL1   H2B 7857   5.644   2.347   7.085 -2.0112 -1.4867  0.3233
   73CHL1   C20 7858   5.782   2.135   8.026  0.9536 -0.6121  0.7741
   73CHL1   H20 7859   5.714   2.223   8.023  2.8220  0.8944 -1.2874
   73CHL1   C21 7860   5.932   2.184   8.013  0.3522 -0.0905 -0.7254
   73CHL1  H21A 7861   5.999   2.095   8.014  0.4109 -0.0418  0.6568
   73CHL1  H21B 7862   5.964   2.253   8.094 -2.6593  1.8778 -1.0713
   73CHL1  H21C 7863   5.943   2.233   7.913 -0.8425 -1.3351 -1.4920
   73CHL1   C22 7864   5.759   2.054   8.153  0.6354 -1.0364  0.2217
   73CHL1  H22A 7865   5.654   2.061   8.189  0.6596  0.0921  0.0895
   73CHL1  H22B 7866   5.788   1.946   8.151 -0.4353 -1.3343 -1.3945
   73CHL1   C23 7867   5.841   2.107   8.273 -0.2689  0.2623 -0.0663
   73CHL1  H23A 7868   5.949   2.091   8.252 -0.0921  2.1391 -0.8160
   73CHL1  H23B 7869   5.819   2.215   8.286  0.5016  0.5965 -1.3422
   73CHL1   C24 7870   5.803   2.044   8.405 -0.1847  0.2021 -0.7530
   73CHL1  H24A 7871   5.705   2.080   8.443 -0.3813  2.2241 -2.9278
   73CHL1  H24B 7872   5.810   1.933   8.405 -1.2281  0.0610  1.9836
   73CHL1   C25 7873   5.896   2.099   8.524  0.0508 -0.0441 -0.2499
   73CHL1   H25 7874   5.995   2.069   8.484 -0.9204 -1.1225 -1.9995
   73CHL1   C26 7875   5.885   2.246   8.538 -0.4108 -0.4323  0.3209
   73CHL1  H26A 7876   5.929   2.295   8.448 -0.5701 -0.3622  0.2792
   73CHL1  H26B 7877   5.780   2.277   8.559 -0.2933  0.2240 -0.0192
   73CHL1  H26C 7878   5.950   2.271   8.624  1.7863 -0.0995 -1.3543
   73CHL1   C27 7879   5.867   2.020   8.649  0.3038 -0.4592 -0.6719
   73CHL1  H27A 7880   5.952   2.031   8.719  0.3693 -1.3329 -0.5962
   73CHL1  H27B 7881   5.775   2.046   8.707  0.4060  0.4002 -0.8918
   73CHL1  H27C 7882   5.861   1.911   8.625 -0.5522 -0.1548 -1.9934
   74CHL1    C3 7883   0.965   4.061   6.894  0.8324 -0.0473 -0.3098
   74CHL1    H3 7884   1.061   4.006   6.898  0.0959 -1.3970 -0.4059
   74CHL1    O3 7885   0.911   4.046   6.767 -0.1687  0.4959  0.0227
   74CHL1   H3' 7886   0.844   4.114   6.753  0.6751  0.9233 -2.5012
   74CHL1    C4 7887   0.865   3.990   6.998 -0.2113  0.2323  0.1107
   74CHL1   H4A 7888   0.762   4.032   6.989 -1.1458 -2.2159 -1.5238
   74CHL1   H4B 7889   0.834   3.888   6.967  0.9457 -0.2521  0.5085
   74CHL1    C5 7890   0.911   4.001   7.138 -0.3852  1.1722 -0.3296
   74CHL1    C6 7891   0.938   3.889   7.210  0.1726 -0.2395 -0.0463
   74CHL1    H6 7892   0.928   3.791   7.162  4.6577 -0.7136 -0.4057
   74CHL1    C7 7893   0.977   3.890   7.360  0.6702 -0.1036  0.0747
   74CHL1   H7A 7894   0.924   3.805   7.410  0.9120 -1.0172 -1.1704
   74CHL1   H7B 7895   1.083   3.860   7.370  0.3475 -2.6993 -2.5922
   74CHL1    C8 7896   0.947   4.034   7.415  0.0596 -0.1598 -0.1003
   74CHL1    H8 7897   0.838   4.053   7.420 -0.2022 -1.4412 -0.4595
   74CHL1   C14 7898   1.002   4.047   7.554 -0.7629 -0.4741 -0.0250
   74CHL1   H14 7899   1.110   4.027   7.534 -0.3738  0.5605  0.8691
   74CHL1   C15 7900   0.956   3.947   7.656 -0.0527  0.3969 -0.6695
   74CHL1  H15A 7901   0.846   3.954   7.647 -0.0387 -1.0097 -2.5903
   74CHL1  H15B 7902   0.992   3.845   7.631 -0.2961 -0.1540  1.0911
   74CHL1   C16 7903   1.010   4.005   7.789 -0.3988  0.1907  0.2787
   74CHL1  H16A 7904   0.922   3.997   7.856  0.2517 -0.5930  1.0570
   74CHL1  H16B 7905   1.087   3.944   7.841 -0.1204  0.7107  0.4829
   74CHL1   C17 7906   1.060   4.155   7.759  0.4065 -0.5673 -0.1868
   74CHL1   H17 7907   1.167   4.154   7.732  0.2382 -0.6560 -0.8727
   74CHL1   C13 7908   0.996   4.189   7.623 -0.4310 -0.3011 -0.3365
   74CHL1   C18 7909   0.850   4.248   7.643  0.3500  0.2150  0.6655
   74CHL1  H18A 7910   0.850   4.359   7.649  0.2349  0.3370 -1.0538
   74CHL1  H18B 7911   0.801   4.229   7.545  0.9794  0.3960  0.3054
   74CHL1  H18C 7912   0.800   4.190   7.723  2.7770 -3.1592 -0.0439
   74CHL1   C12 7913   1.083   4.282   7.529  0.5264  0.3038 -0.6156
   74CHL1  H12A 7914   1.086   4.387   7.565  1.7247  0.1221 -0.1427
   74CHL1  H12B 7915   1.186   4.240   7.522  1.0068  1.4889 -0.7869
   74CHL1   C11 7916   1.020   4.288   7.387  0.1294 -0.1114 -0.5464
   74CHL1  H11A 7917   0.917   4.327   7.399 -0.0824 -0.7409 -0.2978
   74CHL1  H11B 7918   1.074   4.365   7.328  1.4017 -0.0072  0.6973
   74CHL1    C9 7919   1.001   4.142   7.323 -0.0501 -0.1578  0.5977
   74CHL1    H9 7920   1.105   4.111   7.301 -0.7488 -0.5786 -2.7206
   74CHL1   C10 7921   0.939   4.141   7.184  0.0297 -0.5159  0.2457
   74CHL1   C19 7922   0.811   4.231   7.186 -0.2315 -0.3225  0.6275
   74CHL1  H19A 7923   0.740   4.200   7.267  0.2366  0.6780  1.4435
   74CHL1  H19B 7924   0.849   4.332   7.212 -1.7719  0.8096 -1.2710
   74CHL1  H19C 7925   0.764   4.235   7.086 -1.2011  2.1391  1.1030
   74CHL1    C1 7926   1.040   4.214   7.076 -0.1661  0.2625 -0.7526
   74CHL1   H1A 7927   1.054   4.319   7.107 -0.4425 -0.0671  0.5833
   74CHL1   H1B 7928   1.133   4.154   7.072 -0.5806 -0.5841  1.0404
   74CHL1    C2 7929   0.989   4.203   6.929  0.6333  0.6941  0.4960
   74CHL1   H2A 7930   1.059   4.239   6.851 -1.5167  1.3613 -1.2257
   74CHL1   H2B 7931   0.895   4.262   6.918  0.2626  0.0343  0.0816
   74CHL1   C20 7932   1.030   4.261   7.876  0.0947 -0.6100  0.2832
   74CHL1   H20 7933   0.920   4.271   7.891  0.0264  0.7753 -0.8447
   74CHL1   C21 7934   1.076   4.402   7.829 -0.3285 -0.7591 -0.4789
   74CHL1  H21A 7935   1.012   4.450   7.752 -0.1085 -1.7660 -1.3077
   74CHL1  H21B 7936   1.172   4.379   7.776 -0.0719  0.2030 -0.4430
   74CHL1  H21C 7937   1.098   4.483   7.901  1.6865  0.8918 -2.7594
   74CHL1   C22 7938   1.099   4.227   8.009 -0.4674  0.9574  0.1015
   74CHL1  H22A 7939   1.088   4.120   8.037 -1.3124  1.1853  0.6741
   74CHL1  H22B 7940   1.207   4.245   7.995 -0.3593 -0.1072 -0.6063
   74CHL1   C23 7941   1.036   4.305   8.122  0.2109 -0.0773 -0.0207
   74CHL1  H23A 7942   1.062   4.412   8.118  0.4518 -0.1450 -0.2934
   74CHL1  H23B 7943   0.926   4.291   8.115  0.0191  0.5222  1.4229
   74CHL1   C24 7944   1.089   4.254   8.258 -0.5035  0.6568 -0.1733
   74CHL1  H24A 7945   1.072   4.145   8.265  1.1451  0.1171 -2.9258
   74CHL1  H24B 7946   1.199   4.272   8.262  0.1513 -1.8811 -3.2170
   74CHL1   C25 7947   1.010   4.315   8.367  0.3287  0.5528  0.1379
   74CHL1   H25 7948   0.907   4.275   8.360 -0.0051  0.8849  2.3106
   74CHL1   C26 7949   1.058   4.252   8.502  0.3580 -0.1646 -0.2586
   74CHL1  H26A 7950   1.018   4.149   8.514  1.0636 -0.5859 -1.3240
   74CHL1  H26B 7951   1.167   4.259   8.523 -0.0796  0.1205  2.1492
   74CHL1  H26C 7952   1.012   4.302   8.589 -0.8229 -0.6721 -0.5746
   74CHL1   C27 7953   1.017   4.469   8.381 -0.3120 -0.0960 -0.0383
   74CHL1  H27A 7954   0.965   4.513   8.293 -1.6096  0.0092  0.7429
   74CHL1  H27B 7955   0.949   4.508   8.460 -0.3696  3.4781 -1.6348
   74CHL1  H27C 7956   1.115   4.517   8.401 -0.6654  0.5067  0.2853
   75CHL1    C3 7957   0.488   6.576   6.622  0.2435 -0.4955 -0.1313
   75CHL1    H3 7958   0.590   6.583   6.664  0.7525  2.9622 -1.6156
   75CHL1    O3 7959   0.502   6.623   6.489  0.2536 -0.3303 -0.3539
   75CHL1   H3' 7960   0.420   6.671   6.480  0.3597  0.6707  2.8328
   75CHL1    C4 7961   0.430   6.433   6.626 -0.3225 -0.2931  0.0246
   75CHL1   H4A 7962   0.336   6.438   6.568  1.0167  0.2170 -2.2159
   75CHL1   H4B 7963   0.495   6.362   6.569 -0.6426 -0.5712  0.0022
   75CHL1    C5 7964   0.418   6.384   6.776  0.1289  0.3086  0.4502
   75CHL1    C6 7965   0.489   6.278   6.812 -0.9071 -0.2705 -0.0973
   75CHL1    H6 7966   0.567   6.240   6.744  2.0787 -0.7727  3.3296
   75CHL1    C7 7967   0.483   6.221   6.951  0.4020  0.4143  0.2895
   75CHL1   H7A 7968   0.465   6.112   6.952 -0.1206  0.4943  0.2982
   75CHL1   H7B 7969   0.581   6.240   6.998  0.3419  0.0259  0.5728
   75CHL1    C8 7970   0.364   6.282   7.033 -0.4542  0.7761 -0.9796
   75CHL1    H8 7971   0.269   6.240   6.993 -0.5813 -0.5680  0.6326
   75CHL1   C14 7972   0.376   6.246   7.184 -0.3902 -0.0430  0.2848
   75CHL1   H14 7973   0.458   6.312   7.220  0.0955  0.0715 -0.9789
   75CHL1   C15 7974   0.411   6.103   7.214  0.0369  0.1695  0.5781
   75CHL1  H15A 7975   0.354   6.036   7.146 -1.8978  1.4821  0.8402
   75CHL1  H15B 7976   0.521   6.089   7.205  0.1383  2.1520 -3.2648
   75CHL1   C16 7977   0.365   6.074   7.357 -0.5243  0.3756  0.2206
   75CHL1  H16A 7978   0.279   6.005   7.371 -0.1922 -0.3132 -1.0225
   75CHL1  H16B 7979   0.448   6.041   7.423  0.3328 -0.1604 -1.0874
   75CHL1   C17 7980   0.308   6.213   7.407 -0.0787 -0.8088  0.1811
   75CHL1   H17 7981   0.395   6.274   7.439 -0.4251  1.2761 -2.4944
   75CHL1   C13 7982   0.257   6.281   7.273 -0.7371  0.2876  0.0718
   75CHL1   C18 7983   0.137   6.204   7.228  0.6649 -0.7382 -0.6199
   75CHL1  H18A 7984   0.099   6.242   7.131  1.8696  0.7465 -0.5412
   75CHL1  H18B 7985   0.146   6.094   7.211 -2.0500 -1.1054 -0.1579
   75CHL1  H18C 7986   0.051   6.214   7.297  0.1943  1.5036 -1.4517
   75CHL1   C12 7987   0.247   6.431   7.273 -0.4823 -0.1551  0.1080
   75CHL1  H12A 7988   0.166   6.465   7.341  0.6509  0.8640  0.9943
   75CHL1  H12B 7989   0.343   6.472   7.311  1.0082 -0.7058 -2.7641
   75CHL1   C11 7990   0.231   6.479   7.125 -0.2979 -0.2154 -0.1996
   75CHL1  H11A 7991   0.131   6.454   7.084  0.2181  0.1761 -1.7935
   75CHL1  H11B 7992   0.235   6.590   7.130  1.6857 -0.3025  0.7748
   75CHL1    C9 7993   0.340   6.427   7.023  0.2009  0.2336 -0.0529
   75CHL1    H9 7994   0.434   6.480   7.051  0.1136  1.2318 -1.5112
   75CHL1   C10 7995   0.335   6.471   6.872  0.4498  0.6023 -0.1377
   75CHL1   C19 7996   0.183   6.455   6.829 -0.9602 -0.2114  0.7278
   75CHL1  H19A 7997   0.133   6.532   6.892  1.5576  0.3178  2.2410
   75CHL1  H19B 7998   0.174   6.478   6.721  1.3702  0.5180  0.6322
   75CHL1  H19C 7999   0.149   6.350   6.840  1.4123 -1.5168 -2.6242
   75CHL1    C1 8000   0.376   6.621   6.851  0.3309  0.2290 -0.0570
   75CHL1   H1A 8001   0.295   6.688   6.888  0.5539 -0.8607  2.6388
   75CHL1   H1B 8002   0.465   6.652   6.910  1.7691 -2.8122 -0.4027
   75CHL1    C2 8003   0.392   6.665   6.700 -0.4779  0.4878 -0.1924
   75CHL1   H2A 8004   0.420   6.772   6.698 -1.8581  0.8678 -1.1941
   75CHL1   H2B 8005   0.300   6.653   6.639  0.7506  0.3337 -2.1005
   75CHL1   C20 8006   0.208   6.206   7.521 -0.4608 -0.0092  0.2492
   75CHL1   H20 8007   0.113   6.163   7.482 -0.4173  2.2728 -2.7446
   75CHL1   C21 8008   0.157   6.339   7.565 -0.3846 -0.5640  0.0849
   75CHL1  H21A 8009   0.076   6.372   7.495  1.5001 -0.3746 -2.1437
   75CHL1  H21B 8010   0.242   6.410   7.571  1.0781 -1.9197 -2.5749
   75CHL1  H21C 8011   0.108   6.333   7.664 -1.9842 -1.6347 -0.7331
   75CHL1   C22 8012   0.261   6.135   7.651 -0.5089  0.4480  0.1490
   75CHL1  H22A 8013   0.329   6.054   7.619 -2.8135 -1.0848 -1.1535
   75CHL1  H22B 8014   0.333   6.208   7.692  0.2921 -0.8603  1.1294
   75CHL1   C23 8015   0.156   6.073   7.747  0.8204  0.3617  0.3455
   75CHL1  H23A 8016   0.067   6.139   7.746  1.7568  1.7410 -2.5169
   75CHL1  H23B 8017   0.121   5.979   7.700 -0.9079  2.0645 -1.9892
   75CHL1   C24 8018   0.208   6.060   7.888  0.0022 -0.3854  0.0826
   75CHL1  H24A 8019   0.314   6.026   7.883 -0.1922 -1.4711  2.1076
   75CHL1  H24B 8020   0.203   6.158   7.940 -0.1805 -0.1713 -0.3294
   75CHL1   C25 8021   0.130   5.964   7.979 -0.4353  0.2368 -0.0958
   75CHL1   H25 8022   0.021   5.985   7.969 -0.0457  2.0117 -1.0541
   75CHL1   C26 8023   0.134   5.820   7.930  0.1617  0.0786 -0.4045
   75CHL1  H26A 8024   0.093   5.803   7.828 -0.8113  0.6622 -0.1298
   75CHL1  H26B 8025   0.239   5.786   7.940 -0.6771 -2.2309  1.3983
   75CHL1  H26C 8026   0.070   5.753   7.991  0.7113  0.9465  1.1983
   75CHL1   C27 8027   0.184   5.966   8.121 -0.0612 -0.4939 -0.5358
   75CHL1  H27A 8028   0.134   5.887   8.180 -1.0081 -1.1752 -2.1821
   75CHL1  H27B 8029   0.294   5.951   8.120  0.3844  2.2590 -0.1483
   75CHL1  H27C 8030   0.163   6.063   8.171 -2.7297 -1.5800  0.6391
   76CHL1    C3 8031   5.906   3.167   7.164  0.5139  0.1176 -0.3331
   76CHL1    H3 8032   5.996   3.225   7.196  0.5005  0.6307 -1.2081
   76CHL1    O3 8033   5.918   3.105   7.039  0.1315  0.4468  0.8617
   76CHL1   H3' 8034   6.006   3.065   7.035 -0.7986 -1.6541  0.1358
   76CHL1    C4 8035   5.877   3.064   7.277  0.1363 -0.2718  0.9516
   76CHL1   H4A 8036   5.799   2.993   7.243  0.0706  1.1606 -2.1432
   76CHL1   H4B 8037   5.971   3.006   7.291  0.4872  0.0332 -0.0986
   76CHL1    C5 8038   5.831   3.129   7.406 -0.4282 -0.0932 -0.1536
   76CHL1    C6 8039   5.895   3.106   7.518  0.2541 -0.1114 -0.1044
   76CHL1    H6 8040   5.974   3.031   7.531  0.7885  0.5855  0.7842
   76CHL1    C7 8041   5.849   3.167   7.645 -0.1325 -0.2996 -0.1726
   76CHL1   H7A 8042   5.849   3.092   7.727 -0.2127  1.4106  1.4395
   76CHL1   H7B 8043   5.923   3.248   7.659 -0.6244 -0.0654  1.2676
   76CHL1    C8 8044   5.709   3.232   7.640  0.4040 -0.2081  0.3699
   76CHL1    H8 8045   5.639   3.147   7.646  0.8578 -0.6987 -0.9989
   76CHL1   C14 8046   5.693   3.321   7.761  0.1047  0.5152  0.1424
   76CHL1   H14 8047   5.763   3.407   7.761  0.5192  0.1825  0.7630
   76CHL1   C15 8048   5.711   3.255   7.901  0.3869 -0.3449  0.0444
   76CHL1  H15A 8049   5.658   3.158   7.905  0.9121 -0.6611 -0.6126
   76CHL1  H15B 8050   5.820   3.246   7.922  0.6993 -0.9103 -1.6599
   76CHL1   C16 8051   5.638   3.353   7.996  0.2836  0.4623 -0.0502
   76CHL1  H16A 8052   5.561   3.290   8.045  2.2167 -0.6523  1.6820
   76CHL1  H16B 8053   5.705   3.398   8.073 -1.4437 -0.8433  2.3444
   76CHL1   C17 8054   5.565   3.460   7.903  0.0892  0.2200 -0.5697
   76CHL1   H17 8055   5.641   3.540   7.891 -0.0604  0.3325 -0.7669
   76CHL1   C13 8056   5.559   3.386   7.764 -0.8521 -0.1095  0.6957
   76CHL1   C18 8057   5.444   3.275   7.778 -0.2476 -0.3377  0.2391
   76CHL1  H18A 8058   5.342   3.321   7.785  0.2668  1.0198 -0.7018
   76CHL1  H18B 8059   5.443   3.208   7.689  0.8765 -0.9519  0.6751
   76CHL1  H18C 8060   5.458   3.208   7.865 -1.5419 -0.0668  0.6811
   76CHL1   C12 8061   5.539   3.471   7.638  0.9158  0.0347 -0.4293
   76CHL1  H12A 8062   5.439   3.521   7.641  0.6106 -0.6271  0.5508
   76CHL1  H12B 8063   5.615   3.552   7.630 -0.1390  1.2262  1.1391
   76CHL1   C11 8064   5.548   3.389   7.513 -0.0861 -0.5479  0.2329
   76CHL1  H11A 8065   5.470   3.311   7.520  0.3929 -1.1819 -1.1025
   76CHL1  H11B 8066   5.534   3.453   7.423 -1.9606 -1.1229  0.0816
   76CHL1    C9 8067   5.687   3.316   7.515  1.0852 -0.4541  0.2481
   76CHL1    H9 8068   5.767   3.391   7.501  0.0919  0.2891 -1.7426
   76CHL1   C10 8069   5.708   3.227   7.388  0.2750  0.0415 -0.3991
   76CHL1   C19 8070   5.581   3.146   7.352  0.4272  0.3742 -0.3740
   76CHL1  H19A 8071   5.592   3.078   7.265 -1.4801  1.3462 -1.4397
   76CHL1  H19B 8072   5.541   3.090   7.439 -2.6539  0.5559 -1.5511
   76CHL1  H19C 8073   5.506   3.220   7.317  2.2478  4.1097  2.8721
   76CHL1    C1 8074   5.736   3.318   7.271  0.4021 -0.1170 -0.2568
   76CHL1   H1A 8075   5.637   3.358   7.240  1.2243  0.8004 -1.8500
   76CHL1   H1B 8076   5.815   3.387   7.307  0.6427 -1.4140  1.8811
   76CHL1    C2 8077   5.789   3.264   7.143  0.3505  0.6815 -0.3543
   76CHL1   H2A 8078   5.815   3.339   7.065 -0.5540 -1.5171 -2.9139
   76CHL1   H2B 8079   5.718   3.196   7.093  3.0836 -0.7444 -2.5321
   76CHL1   C20 8080   5.439   3.515   7.970 -0.3090  0.0210 -0.7522
   76CHL1   H20 8081   5.366   3.432   7.970  0.3079 -0.7037  3.1427
   76CHL1   C21 8082   5.389   3.637   7.887 -0.1112 -0.1581  0.4329
   76CHL1  H21A 8083   5.342   3.606   7.791 -0.0946  2.2520 -0.4144
   76CHL1  H21B 8084   5.477   3.696   7.855  0.3848 -2.4938 -3.0913
   76CHL1  H21C 8085   5.320   3.702   7.946 -3.0393 -1.0454 -1.7669
   76CHL1   C22 8086   5.466   3.560   8.119  0.6015  0.3443 -0.2513
   76CHL1  H22A 8087   5.517   3.481   8.179  3.1696  1.4548 -0.8253
   76CHL1  H22B 8088   5.546   3.636   8.116  3.7479 -2.6335  1.1339
   76CHL1   C23 8089   5.343   3.598   8.203  0.2948 -0.1784  0.1024
   76CHL1  H23A 8090   5.296   3.691   8.167 -0.5614 -0.3266  0.7998
   76CHL1  H23B 8091   5.262   3.522   8.193  2.2400 -2.0498 -2.9402
   76CHL1   C24 8092   5.381   3.623   8.348 -0.0915  0.4806 -0.6147
   76CHL1  H24A 8093   5.410   3.529   8.400 -3.2632  0.7439  1.9525
   76CHL1  H24B 8094   5.467   3.693   8.356 -0.9665  1.4282  1.1538
   76CHL1   C25 8095   5.274   3.695   8.434  0.5155 -0.2062 -0.0360
   76CHL1   H25 8096   5.238   3.778   8.370  0.7378 -1.3056 -1.6243
   76CHL1   C26 8097   5.151   3.610   8.472 -0.6156  0.1884 -0.2344
   76CHL1  H26A 8098   5.088   3.668   8.543 -0.4491 -1.2471  1.1547
   76CHL1  H26B 8099   5.105   3.580   8.375  0.1543  1.0519 -0.8816
   76CHL1  H26C 8100   5.181   3.514   8.520  0.7422  1.4973  1.7240
   76CHL1   C27 8101   5.334   3.764   8.562  0.4112  0.7052  0.2983
   76CHL1  H27A 8102   5.243   3.792   8.620 -0.9211 -2.4555 -0.0916
   76CHL1  H27B 8103   5.387   3.685   8.619  0.2181 -1.2179 -2.0238
   76CHL1  H27C 8104   5.396   3.853   8.536  0.3687  0.1695 -1.8568
   77CHL1    C3 8105   6.206   1.069   6.996 -0.1254  0.4151  0.1388
   77CHL1    H3 8106   6.146   0.976   7.007  0.8364 -0.1606  0.6162
   77CHL1    O3 8107   6.217   1.095   6.852 -0.0870 -0.7161 -0.1949
   77CHL1   H3' 8108   6.312   1.097   6.837  0.2755 -2.4220  1.4091
   77CHL1    C4 8109   6.134   1.181   7.065  0.5349 -0.3761 -0.5493
   77CHL1   H4A 8110   6.183   1.279   7.050  3.2308 -1.2417  1.7569
   77CHL1   H4B 8111   6.030   1.189   7.026 -0.1073  1.7783  1.4121
   77CHL1    C5 8112   6.126   1.166   7.217  1.0277  0.2032 -0.1295
   77CHL1    C6 8113   6.004   1.181   7.278  0.0853 -0.0081 -0.1593
   77CHL1    H6 8114   5.917   1.224   7.225  1.9634  4.9707  0.3003
   77CHL1    C7 8115   5.979   1.156   7.420 -0.0842  0.2612 -0.0608
   77CHL1   H7A 8116   5.911   1.237   7.454 -0.4094  0.3812 -0.9598
   77CHL1   H7B 8117   5.914   1.066   7.422 -0.5514  0.5225 -1.8423
   77CHL1    C8 8118   6.105   1.151   7.506 -0.3435  0.0888  0.5136
   77CHL1    H8 8119   6.141   1.254   7.525 -0.6660  0.6909 -1.8246
   77CHL1   C14 8120   6.070   1.075   7.630  0.5221  0.5784  0.1304
   77CHL1   H14 8121   6.042   0.974   7.593 -0.0575  1.2545 -1.3563
   77CHL1   C15 8122   5.944   1.119   7.706 -0.6827  0.5244  0.3708
   77CHL1  H15A 8123   5.953   1.227   7.730  2.1588  0.4112  0.0965
   77CHL1  H15B 8124   5.858   1.097   7.638  0.3265  2.9029 -1.8584
   77CHL1   C16 8125   5.958   1.036   7.839 -0.5389 -0.2890  0.5993
   77CHL1  H16A 8126   5.967   1.115   7.916  1.9114 -0.1838  0.2818
   77CHL1  H16B 8127   5.876   0.961   7.850  0.2866 -1.1611  0.9341
   77CHL1   C17 8128   6.093   0.964   7.846  0.3842  0.1173  0.7355
   77CHL1   H17 8129   6.069   0.869   7.793 -1.6176  1.5098 -1.0077
   77CHL1   C13 8130   6.174   1.040   7.732  0.2838 -0.4058 -0.2102
   77CHL1   C18 8131   6.238   1.175   7.780  0.0397  0.2881  0.2370
   77CHL1  H18A 8132   6.156   1.234   7.827  0.0721  0.9462 -0.5106
   77CHL1  H18B 8133   6.314   1.145   7.856 -1.1582 -0.8564  1.0238
   77CHL1  H18C 8134   6.282   1.232   7.696 -1.1841 -0.4650 -0.9632
   77CHL1   C12 8135   6.271   0.950   7.655  1.5301 -0.1839  0.2172
   77CHL1  H12A 8136   6.358   0.918   7.716 -1.0509 -3.4095  2.6228
   77CHL1  H12B 8137   6.207   0.862   7.632  1.0016 -0.7820  3.4305
   77CHL1   C11 8138   6.328   1.020   7.524 -1.0478 -0.0631 -0.3300
   77CHL1  H11A 8139   6.401   1.097   7.558  0.0801 -1.7709  1.2790
   77CHL1  H11B 8140   6.394   0.941   7.484 -1.0426  0.5701 -1.6335
   77CHL1    C9 8141   6.215   1.073   7.430  0.1477  0.1426  0.9404
   77CHL1    H9 8142   6.170   0.975   7.403 -0.3273  0.1317  1.7340
   77CHL1   C10 8143   6.246   1.126   7.291 -0.0046  0.0364 -0.1599
   77CHL1   C19 8144   6.332   1.252   7.313  0.1316 -0.8658 -0.1433
   77CHL1  H19A 8145   6.378   1.287   7.218  1.5815  0.2257  0.9186
   77CHL1  H19B 8146   6.286   1.343   7.359 -0.0396 -0.0187 -1.9000
   77CHL1  H19C 8147   6.420   1.230   7.377  2.0299  0.9524 -1.9815
   77CHL1    C1 8148   6.324   1.020   7.209 -0.7129  0.9506 -0.6485
   77CHL1   H1A 8149   6.424   0.996   7.252  0.1165  0.5605 -2.6929
   77CHL1   H1B 8150   6.256   0.932   7.213 -0.4390  0.7650  0.1883
   77CHL1    C2 8151   6.346   1.053   7.058  0.2008 -0.3467  0.1706
   77CHL1   H2A 8152   6.400   0.968   7.010 -0.6078  0.0356 -1.5090
   77CHL1   H2B 8153   6.408   1.145   7.045  0.9882 -0.8084  0.5832
   77CHL1   C20 8154   6.150   0.955   7.987  0.3694 -0.3429 -0.1644
   77CHL1   H20 8155   6.180   1.054   8.029  0.4227  0.8941 -2.8506
   77CHL1   C21 8156   6.284   0.876   7.969 -0.0619  0.1421 -0.2769
   77CHL1  H21A 8157   6.358   0.950   7.932  0.1239 -0.2756 -0.7455
   77CHL1  H21B 8158   6.273   0.792   7.897  0.9579  0.1524 -0.4569
   77CHL1  H21C 8159   6.311   0.831   8.067 -1.3323  0.7837  0.3910
   77CHL1   C22 8160   6.063   0.870   8.077 -0.3626 -1.0214 -0.1079
   77CHL1  H22A 8161   5.956   0.903   8.075 -0.5617 -1.6112  0.5147
   77CHL1  H22B 8162   6.068   0.762   8.052  0.0584 -1.0641  0.1598
   77CHL1   C23 8163   6.087   0.891   8.228 -0.6119  0.1758  0.5277
   77CHL1  H23A 8164   6.170   0.820   8.246 -0.4835  0.2983  0.4161
   77CHL1  H23B 8165   6.119   0.995   8.252  4.5925 -1.6166  2.8941
   77CHL1   C24 8166   5.964   0.843   8.310  0.2665 -0.7132  0.3395
   77CHL1  H24A 8167   5.883   0.920   8.312 -1.2925 -2.1538 -2.0063
   77CHL1  H24B 8168   5.948   0.742   8.266  2.2774 -0.5346 -0.9554
   77CHL1   C25 8169   6.003   0.822   8.458 -0.8273  0.3945 -0.6762
   77CHL1   H25 8170   6.066   0.911   8.478  1.2231 -1.0838 -0.2473
   77CHL1   C26 8171   5.877   0.821   8.543 -0.1018 -0.2328  0.0741
   77CHL1  H26A 8172   5.896   0.822   8.653 -2.1265  0.0147  0.4593
   77CHL1  H26B 8173   5.824   0.916   8.520 -0.1330 -0.3028 -0.1420
   77CHL1  H26C 8174   5.806   0.738   8.526 -0.8594  0.5100 -0.4648
   77CHL1   C27 8175   6.089   0.699   8.485  0.4744 -0.1847  0.1213
   77CHL1  H27A 8176   6.169   0.697   8.408 -0.3773  1.1834 -0.8457
   77CHL1  H27B 8177   6.130   0.703   8.588  0.1035  2.1619  0.2396
   77CHL1  H27C 8178   6.020   0.616   8.457 -0.8757  1.1245 -0.5634
   78CHL1    C3 8179   2.738   1.965   6.595  0.0394 -0.6317 -0.0796
   78CHL1    H3 8180   2.636   2.007   6.582  0.7331  0.9468 -0.6764
   78CHL1    O3 8181   2.783   1.958   6.460  0.5125  0.2570  0.0252
   78CHL1   H3' 8182   2.750   2.038   6.419 -0.3322  0.1939  0.5492
   78CHL1    C4 8183   2.819   2.073   6.673  0.0997  0.3068 -0.7859
   78CHL1   H4A 8184   2.921   2.035   6.653  2.3748  4.5116  1.5968
   78CHL1   H4B 8185   2.805   2.168   6.617 -2.4562  0.4821 -0.0011
   78CHL1    C5 8186   2.800   2.082   6.825  0.1494 -0.5787 -0.0407
   78CHL1    C6 8187   2.772   2.200   6.883  0.8567 -0.3634  0.1379
   78CHL1    H6 8188   2.775   2.292   6.822  1.9625  0.8179  1.8695
   78CHL1    C7 8189   2.758   2.212   7.031  0.0478 -0.0102 -1.0320
   78CHL1   H7A 8190   2.835   2.280   7.074 -1.4048  0.8234  0.3504
   78CHL1   H7B 8191   2.655   2.240   7.061  0.4919  0.6230 -0.0573
   78CHL1    C8 8192   2.783   2.076   7.105  0.1691  0.4023  0.5176
   78CHL1    H8 8193   2.894   2.073   7.111  0.3839  1.7829 -1.6257
   78CHL1   C14 8194   2.728   2.087   7.240 -0.1590 -0.5445  0.0501
   78CHL1   H14 8195   2.619   2.096   7.221 -0.2684  0.4917  1.0527
   78CHL1   C15 8196   2.768   2.216   7.326  0.7093  0.4136 -0.1065
   78CHL1  H15A 8197   2.877   2.237   7.329  0.8145  0.1774 -1.5621
   78CHL1  H15B 8198   2.711   2.307   7.295  1.3325  1.0496  0.5933
   78CHL1   C16 8199   2.724   2.176   7.465  0.3015 -0.5784 -0.0375
   78CHL1  H16A 8200   2.799   2.209   7.540  0.2958 -1.0789  0.1940
   78CHL1  H16B 8201   2.634   2.238   7.484  2.3711  2.6255  0.0083
   78CHL1   C17 8202   2.687   2.021   7.464  0.4442  0.0716  0.0864
   78CHL1   H17 8203   2.578   2.005   7.448  0.6225 -1.1093 -0.0126
   78CHL1   C13 8204   2.752   1.971   7.338 -0.7459  0.6655 -0.0303
   78CHL1   C18 8205   2.906   1.960   7.366  0.3456  1.1161  0.5719
   78CHL1  H18A 8206   2.969   1.958   7.274  1.0436  3.8742  0.8768
   78CHL1  H18B 8207   2.946   2.043   7.429  0.1062 -0.2390  2.5970
   78CHL1  H18C 8208   2.928   1.870   7.426 -0.6090  0.7380  0.3621
   78CHL1   C12 8209   2.680   1.850   7.272 -0.1074 -0.6903  0.1897
   78CHL1  H12A 8210   2.704   1.758   7.330  2.5209 -0.6605 -0.7021
   78CHL1  H12B 8211   2.570   1.866   7.271  0.0593  0.5549 -1.3832
   78CHL1   C11 8212   2.732   1.827   7.131 -0.1481 -0.9282 -0.2382
   78CHL1  H11A 8213   2.836   1.789   7.145  0.1399 -1.0812 -2.4878
   78CHL1  H11B 8214   2.694   1.732   7.087  0.1014 -1.1375 -0.0126
   78CHL1    C9 8215   2.722   1.950   7.039 -0.3906 -1.6377  0.2612
   78CHL1    H9 8216   2.615   1.973   7.023  0.0672 -0.6486 -1.8915
   78CHL1   C10 8217   2.781   1.941   6.892 -0.3319 -0.0820  1.0175
   78CHL1   C19 8218   2.926   1.882   6.896  0.0033  0.1084  0.1528
   78CHL1  H19A 8219   2.985   1.942   6.969 -3.1638  2.7194  0.8182
   78CHL1  H19B 8220   2.913   1.785   6.950  4.5264  0.3079  2.0415
   78CHL1  H19C 8221   2.969   1.863   6.796 -0.1123 -1.5172  0.3797
   78CHL1    C1 8222   2.692   1.836   6.811 -0.4052 -0.2712  0.3053
   78CHL1   H1A 8223   2.700   1.744   6.872 -0.3203  1.5569  3.2544
   78CHL1   H1B 8224   2.586   1.869   6.820 -1.2029 -2.4170 -0.6250
   78CHL1    C2 8225   2.734   1.829   6.663 -0.3491 -0.8748 -0.3865
   78CHL1   H2A 8226   2.658   1.769   6.610 -2.0222  0.2661  0.5847
   78CHL1   H2B 8227   2.826   1.768   6.655 -0.1773 -0.5532 -0.9137
   78CHL1   C20 8228   2.723   1.950   7.599  0.4685  0.1149  0.3020
   78CHL1   H20 8229   2.832   1.958   7.621  0.3963 -0.1915  0.7928
   78CHL1   C21 8230   2.685   1.803   7.594  0.5234 -0.8543  0.7786
   78CHL1  H21A 8231   2.586   1.785   7.547 -0.1793  1.6785  1.1203
   78CHL1  H21B 8232   2.681   1.763   7.697 -1.3297  0.5330  1.3064
   78CHL1  H21C 8233   2.761   1.746   7.536 -1.5803 -1.4603 -1.5203
   78CHL1   C22 8234   2.650   2.016   7.729  0.1584  0.1217 -0.3567
   78CHL1  H22A 8235   2.678   2.124   7.730  1.1004 -0.0563  2.6787
   78CHL1  H22B 8236   2.541   1.995   7.728  0.1724  0.0525 -0.5117
   78CHL1   C23 8237   2.695   1.964   7.866  0.1153  0.6221  0.7313
   78CHL1  H23A 8238   2.667   1.859   7.886 -0.9255  0.7362 -0.0672
   78CHL1  H23B 8239   2.805   1.981   7.874  0.1564  0.9392 -0.3180
   78CHL1   C24 8240   2.631   2.044   7.981  0.4726  0.1428 -0.0355
   78CHL1  H24A 8241   2.636   2.155   7.969 -1.8956  0.2635 -0.5623
   78CHL1  H24B 8242   2.522   2.023   7.989 -0.1210  2.1660 -1.6946
   78CHL1   C25 8243   2.688   2.002   8.115  0.3610  0.0763  0.1505
   78CHL1   H25 8244   2.796   2.021   8.105 -0.0834  1.5074 -3.4885
   78CHL1   C26 8245   2.638   2.093   8.234 -0.1559 -0.4481 -0.4899
   78CHL1  H26A 8246   2.647   2.202   8.212  0.8212  0.0049  1.8470
   78CHL1  H26B 8247   2.532   2.073   8.258  0.3377 -0.5003  1.9858
   78CHL1  H26C 8248   2.708   2.075   8.319 -0.6912  2.0425  0.5701
   78CHL1   C27 8249   2.659   1.856   8.156  0.5734  0.0278  0.5903
   78CHL1  H27A 8250   2.712   1.849   8.253  0.5893 -0.4841  0.5481
   78CHL1  H27B 8251   2.551   1.833   8.163  0.2518  1.0246 -0.7668
   78CHL1  H27C 8252   2.715   1.789   8.087  0.2167  1.5531 -1.2597
   79CHL1    C3 8253   0.523   1.322   7.043 -0.1544  0.3495  0.4932
   79CHL1    H3 8254   0.616   1.369   7.081  1.2790 -1.7330 -0.2466
   79CHL1    O3 8255   0.526   1.296   6.901  0.5518  0.2661 -0.7234
   79CHL1   H3' 8256   0.439   1.257   6.888 -0.0429  0.8996  1.0969
   79CHL1    C4 8257   0.492   1.184   7.112 -0.2480 -0.4726 -0.0985
   79CHL1   H4A 8258   0.396   1.141   7.078  0.0753 -0.7045 -0.7227
   79CHL1   H4B 8259   0.559   1.103   7.076  0.9193  0.9261 -1.2003
   79CHL1    C5 8260   0.493   1.196   7.262 -0.5359 -0.3136  0.4850
   79CHL1    C6 8261   0.582   1.120   7.334 -0.7330 -0.4263  0.0274
   79CHL1    H6 8262   0.644   1.047   7.281  0.2411 -0.2529  0.8894
   79CHL1    C7 8263   0.589   1.130   7.489  0.0428  0.3129  0.5299
   79CHL1   H7A 8264   0.595   1.029   7.535 -1.7297 -1.4212 -2.7404
   79CHL1   H7B 8265   0.683   1.181   7.519  0.6946 -0.2955 -0.4447
   79CHL1    C8 8266   0.467   1.203   7.555 -0.6254 -0.1889  0.1932
   79CHL1    H8 8267   0.390   1.123   7.551  1.2736 -2.1827  1.2568
   79CHL1   C14 8268   0.495   1.235   7.697 -0.2185  1.1241  0.3341
   79CHL1   H14 8269   0.582   1.304   7.690  0.1870  0.6966  1.0627
   79CHL1   C15 8270   0.533   1.121   7.793 -0.0149  0.0114  0.5068
   79CHL1  H15A 8271   0.463   1.035   7.801  1.3201 -0.9889  2.1414
   79CHL1  H15B 8272   0.633   1.073   7.783  0.5918  0.6277  2.8907
   79CHL1   C16 8273   0.537   1.192   7.933  0.1299 -1.0993  0.3774
   79CHL1  H16A 8274   0.483   1.123   8.002  2.9454 -4.1834 -0.2552
   79CHL1  H16B 8275   0.631   1.221   7.985  0.0419  1.7920 -0.9296
   79CHL1   C17 8276   0.453   1.329   7.914 -0.8059  0.1878 -0.1029
   79CHL1   H17 8277   0.535   1.398   7.885  1.6529 -3.4202 -2.5524
   79CHL1   C13 8278   0.387   1.314   7.773  0.0744  0.0405  0.1080
   79CHL1   C18 8279   0.266   1.220   7.796 -0.2544 -0.6101 -0.1464
   79CHL1  H18A 8280   0.274   1.132   7.864 -1.0995 -0.1233  0.6011
   79CHL1  H18B 8281   0.182   1.284   7.831  0.7982 -0.6388  2.6815
   79CHL1  H18C 8282   0.221   1.181   7.702 -0.4101 -0.0060 -0.3262
   79CHL1   C12 8283   0.351   1.437   7.694  0.3271 -0.0525 -0.6740
   79CHL1  H12A 8284   0.260   1.487   7.735 -0.4323 -2.5587  0.9694
   79CHL1  H12B 8285   0.433   1.511   7.683 -0.8071  1.4829  0.6445
   79CHL1   C11 8286   0.316   1.403   7.550  0.2532 -0.5481  0.7431
   79CHL1  H11A 8287   0.225   1.339   7.551 -0.8740  0.9668  2.3492
   79CHL1  H11B 8288   0.299   1.502   7.503  1.2364 -0.2280  1.0362
   79CHL1    C9 8289   0.426   1.329   7.473  0.4118  0.0269  0.0348
   79CHL1    H9 8290   0.514   1.397   7.470  0.0887  0.4279 -0.6770
   79CHL1   C10 8291   0.399   1.303   7.324  0.4404 -0.1384 -0.1274
   79CHL1   C19 8292   0.271   1.218   7.306 -0.6127 -0.0880  0.4208
   79CHL1  H19A 8293   0.265   1.134   7.379 -0.2866 -0.5056 -0.0253
   79CHL1  H19B 8294   0.180   1.280   7.316  0.3134  1.5939 -1.1106
   79CHL1  H19C 8295   0.252   1.178   7.204  2.3833  1.1774 -0.7577
   79CHL1    C1 8296   0.405   1.436   7.237  0.0389 -0.8132 -0.4988
   79CHL1   H1A 8297   0.323   1.502   7.271  0.1289  0.5160 -2.6746
   79CHL1   H1B 8298   0.503   1.479   7.267  0.7629 -2.2529 -0.7082
   79CHL1    C2 8299   0.411   1.418   7.083 -0.1678  0.0792  0.2614
   79CHL1   H2A 8300   0.409   1.517   7.032  2.2578 -0.0267 -0.1476
   79CHL1   H2B 8301   0.310   1.380   7.055  0.5030 -0.8152 -0.9810
   79CHL1   C20 8302   0.375   1.392   8.031  0.5132  0.2959  0.4797
   79CHL1   H20 8303   0.269   1.371   8.007  0.5884  1.2448 -0.7947
   79CHL1   C21 8304   0.400   1.537   8.034 -0.1520  0.3446  0.7757
   79CHL1  H21A 8305   0.502   1.549   8.076  0.0400  1.7465 -0.0176
   79CHL1  H21B 8306   0.329   1.595   8.097 -1.1306  0.7632 -0.6610
   79CHL1  H21C 8307   0.403   1.588   7.936 -1.7669 -2.8022 -1.0479
   79CHL1   C22 8308   0.408   1.334   8.169  0.0672 -0.2616 -0.0871
   79CHL1  H22A 8309   0.396   1.223   8.161 -2.1601 -0.1733  1.2392
   79CHL1  H22B 8310   0.513   1.354   8.199 -0.3509  0.6540  0.8398
   79CHL1   C23 8311   0.307   1.381   8.272  0.8818  0.0226 -0.2258
   79CHL1  H23A 8312   0.328   1.490   8.282 -0.2108  0.2914 -0.7089
   79CHL1  H23B 8313   0.202   1.378   8.236  0.5652  1.9753  0.4015
   79CHL1   C24 8314   0.319   1.300   8.400 -0.7289 -0.6317 -0.4764
   79CHL1  H24A 8315   0.342   1.193   8.385 -0.7505 -0.3806 -2.5473
   79CHL1  H24B 8316   0.417   1.330   8.446  0.5833 -0.6733 -3.0554
   79CHL1   C25 8317   0.200   1.339   8.500  0.1709  0.5622 -0.6275
   79CHL1   H25 8318   0.163   1.441   8.478 -1.6894  0.1481  0.3986
   79CHL1   C26 8319   0.082   1.246   8.465 -1.4309  0.6824  0.0938
   79CHL1  H26A 8320  -0.006   1.268   8.529 -1.9470 -0.0249 -0.3614
   79CHL1  H26B 8321   0.080   1.231   8.355  1.6782 -1.4375  0.1947
   79CHL1  H26C 8322   0.108   1.142   8.495 -1.6962  0.1811 -1.3533
   79CHL1   C27 8323   0.241   1.313   8.650 -0.3871  0.0402  0.7849
   79CHL1  H27A 8324   0.154   1.334   8.717  0.1378 -1.1423  1.8691
   79CHL1  H27B 8325   0.272   1.207   8.649  2.1419  0.7334  0.0314
   79CHL1  H27C 8326   0.327   1.375   8.683 -2.3438  2.4613  1.6654
   80CHL1    C3 8327   5.008   6.090   7.040  0.1894 -0.4109 -0.7745
   80CHL1    H3 8328   5.037   5.993   7.087  0.4070 -0.3406 -0.7630
   80CHL1    O3 8329   5.050   6.098   6.905 -0.0908  0.5612 -0.2618
   80CHL1   H3' 8330   4.976   6.065   6.853 -1.4770  0.0488  1.9032
   80CHL1    C4 8331   4.852   6.088   7.041 -0.0169 -0.6602  0.7543
   80CHL1   H4A 8332   4.815   6.184   6.998  3.6986  1.6604  2.1702
   80CHL1   H4B 8333   4.805   6.005   6.985  0.0604 -0.3699  0.2540
   80CHL1    C5 8334   4.801   6.098   7.178  0.2579 -0.2954 -0.5349
   80CHL1    C6 8335   4.719   6.007   7.226  1.1039  0.2480 -1.1528
   80CHL1    H6 8336   4.694   5.924   7.159  0.5704 -0.3201 -0.2781
   80CHL1    C7 8337   4.660   6.000   7.362 -0.3790  0.2517  0.3013
   80CHL1   H7A 8338   4.551   5.983   7.356 -0.6347  2.1327 -1.0084
   80CHL1   H7B 8339   4.706   5.919   7.424  0.3955  0.6203  0.2228
   80CHL1    C8 8340   4.678   6.130   7.443 -0.2217  0.4469 -0.6649
   80CHL1    H8 8341   4.595   6.196   7.407 -1.2181 -0.4048  0.0247
   80CHL1   C14 8342   4.663   6.103   7.591  0.4001  1.0687  0.1965
   80CHL1   H14 8343   4.749   6.042   7.626  0.1601 -0.2986 -1.4696
   80CHL1   C15 8344   4.540   6.024   7.640  0.3659 -0.6850 -0.0531
   80CHL1  H15A 8345   4.448   6.067   7.595  1.9402  2.0649 -0.8664
   80CHL1  H15B 8346   4.533   5.918   7.607 -0.3826 -0.7270  0.2414
   80CHL1   C16 8347   4.532   6.058   7.787  0.1809 -1.2189 -0.2386
   80CHL1  H16A 8348   4.426   6.074   7.817  0.6149  0.8417  0.3090
   80CHL1  H16B 8349   4.577   5.971   7.840 -0.4674 -1.1415  0.4574
   80CHL1   C17 8350   4.639   6.172   7.818 -0.0054  0.8401  0.0260
   80CHL1   H17 8351   4.727   6.121   7.862 -0.0782  0.5464 -0.1712
   80CHL1   C13 8352   4.675   6.232   7.676 -0.4513 -0.0686  0.1151
   80CHL1   C18 8353   4.569   6.339   7.640  0.0210 -0.4162 -0.0212
   80CHL1  H18A 8354   4.595   6.429   7.699  2.4163 -1.8606  1.3162
   80CHL1  H18B 8355   4.575   6.363   7.532 -1.5093 -1.8883 -0.4774
   80CHL1  H18C 8356   4.462   6.313   7.651 -0.3149  0.5392 -0.8500
   80CHL1   C12 8357   4.818   6.288   7.660  1.0075  0.3008 -0.5019
   80CHL1  H12A 8358   4.823   6.387   7.710 -1.3520  0.1685  0.1010
   80CHL1  H12B 8359   4.883   6.219   7.718 -0.1119 -0.0943  0.3095
   80CHL1   C11 8360   4.845   6.311   7.510  0.3473  1.1706  0.0709
   80CHL1  H11A 8361   4.798   6.406   7.476  1.3181  1.4278 -0.5884
   80CHL1  H11B 8362   4.955   6.326   7.501  0.1858  3.1067  0.7976
   80CHL1    C9 8363   4.814   6.187   7.420  0.1706 -0.3786  0.7869
   80CHL1    H9 8364   4.879   6.104   7.456 -0.5314 -0.7832  1.1554
   80CHL1   C10 8365   4.855   6.211   7.277  0.5983  0.3517  0.7067
   80CHL1   C19 8366   4.796   6.337   7.223 -0.4661 -0.9249 -0.2351
   80CHL1  H19A 8367   4.858   6.425   7.252 -0.3695 -0.6034 -1.3468
   80CHL1  H19B 8368   4.792   6.356   7.113 -4.1632 -0.0955 -0.1087
   80CHL1  H19C 8369   4.691   6.361   7.249  0.3762  0.6524  2.0677
   80CHL1    C1 8370   5.011   6.221   7.271 -0.2926  0.2464  0.3273
   80CHL1   H1A 8371   5.060   6.311   7.315 -0.3869  0.2031  0.5220
   80CHL1   H1B 8372   5.055   6.131   7.318 -1.4721 -1.2402 -1.2865
   80CHL1    C2 8373   5.057   6.211   7.115  0.2081 -0.2247 -0.0964
   80CHL1   H2A 8374   5.166   6.226   7.107  0.0627  1.6534  0.9563
   80CHL1   H2B 8375   5.018   6.298   7.058 -1.5631 -0.7226  0.2794
   80CHL1   C20 8376   4.587   6.262   7.934 -0.7050  0.6658  0.0743
   80CHL1   H20 8377   4.490   6.312   7.911  0.0329  2.5787  0.8950
   80CHL1   C21 8378   4.683   6.372   7.977  0.1071 -0.2972 -0.2021
   80CHL1  H21A 8379   4.778   6.329   8.018  0.1438 -0.3896 -0.3827
   80CHL1  H21B 8380   4.643   6.431   8.062  0.8712 -0.4325  0.2650
   80CHL1  H21C 8381   4.706   6.440   7.892  0.9632 -2.6043 -1.9116
   80CHL1   C22 8382   4.539   6.190   8.061 -0.7460  0.1930 -0.3343
   80CHL1  H22A 8383   4.509   6.265   8.138 -3.1614 -1.1932  0.1851
   80CHL1  H22B 8384   4.448   6.129   8.040  0.0012 -0.4997 -1.6421
   80CHL1   C23 8385   4.641   6.091   8.123 -0.5981  0.5659 -0.5643
   80CHL1  H23A 8386   4.663   6.009   8.051 -2.2636  0.7196 -1.2802
   80CHL1  H23B 8387   4.731   6.142   8.164 -1.5974  1.9047  0.0316
   80CHL1   C24 8388   4.584   6.012   8.248  0.6716 -0.1490  0.6303
   80CHL1  H24A 8389   4.500   5.942   8.227  0.7442 -0.1117  0.2145
   80CHL1  H24B 8390   4.661   5.947   8.294 -2.0158 -2.9171  1.6333
   80CHL1   C25 8391   4.522   6.096   8.361  0.1753  0.9536  0.3136
   80CHL1   H25 8392   4.439   6.164   8.334 -1.0481 -0.5631  0.1083
   80CHL1   C26 8393   4.459   6.005   8.458 -0.4408 -0.4518 -0.0205
   80CHL1  H26A 8394   4.401   6.062   8.534  0.9230 -1.0569  1.5399
   80CHL1  H26B 8395   4.388   5.934   8.411 -0.5542 -0.1048 -0.3805
   80CHL1  H26C 8396   4.538   5.959   8.522 -1.6646  0.1335  2.0206
   80CHL1   C27 8397   4.634   6.175   8.432 -0.2422 -0.1140  0.2923
   80CHL1  H27A 8398   4.593   6.239   8.512 -2.3778 -1.3443  0.2590
   80CHL1  H27B 8399   4.695   6.092   8.475 -0.6429 -1.1869 -1.1188
   80CHL1  H27C 8400   4.680   6.246   8.360 -0.7692  1.4193  1.4067
   81CHL1    C3 8401   3.458   5.884   6.868  0.3402 -0.0807  0.5173
   81CHL1    H3 8402   3.530   5.806   6.903  2.4313  0.1966 -2.7356
   81CHL1    O3 8403   3.472   5.895   6.730  0.0585  0.3187  0.0426
   81CHL1   H3' 8404   3.445   5.985   6.711 -1.3170 -0.7108 -3.5934
   81CHL1    C4 8405   3.317   5.832   6.912  0.3049 -0.4615 -0.5437
   81CHL1   H4A 8406   3.240   5.888   6.855  0.9330 -0.8545 -1.8014
   81CHL1   H4B 8407   3.304   5.730   6.871 -0.3598  0.2963 -2.3222
   81CHL1    C5 8408   3.307   5.840   7.065  1.0969  0.1779  0.3714
   81CHL1    C6 8409   3.288   5.735   7.138 -1.0651 -0.3124 -0.3972
   81CHL1    H6 8410   3.295   5.642   7.080 -1.1674  0.7765 -2.2280
   81CHL1    C7 8411   3.256   5.733   7.285 -0.4649  0.1519 -0.3028
   81CHL1   H7A 8412   3.184   5.655   7.317  1.6929 -1.1892  1.6527
   81CHL1   H7B 8413   3.349   5.708   7.341 -0.7022 -1.0699 -0.4312
   81CHL1    C8 8414   3.217   5.877   7.332  0.8349  0.8145 -0.0253
   81CHL1    H8 8415   3.114   5.895   7.293  1.0179  0.3434 -0.7374
   81CHL1   C14 8416   3.204   5.883   7.479 -0.0102  0.2159 -0.4563
   81CHL1   H14 8417   3.302   5.852   7.521 -0.7537 -0.3479  0.9429
   81CHL1   C15 8418   3.097   5.783   7.541  0.2481  0.4379 -0.1717
   81CHL1  H15A 8419   3.005   5.775   7.480  1.8173  0.8454 -2.7262
   81CHL1  H15B 8420   3.129   5.677   7.545 -0.9967  0.0453 -0.0692
   81CHL1   C16 8421   3.072   5.846   7.677  0.5243 -1.0789 -0.1816
   81CHL1  H16A 8422   2.964   5.868   7.691 -0.4328 -3.9949 -2.1128
   81CHL1  H16B 8423   3.114   5.781   7.756  0.6733 -1.2737 -0.4220
   81CHL1   C17 8424   3.146   5.988   7.676 -0.4909 -1.0209  0.0527
   81CHL1   H17 8425   3.243   5.965   7.725 -0.0455 -0.9548 -0.7931
   81CHL1   C13 8426   3.171   6.023   7.532  0.2680  0.1552 -0.1729
   81CHL1   C18 8427   3.045   6.080   7.470 -0.3123  0.5988  0.1581
   81CHL1  H18A 8428   2.962   6.012   7.500  1.0557 -0.6964  1.1816
   81CHL1  H18B 8429   3.022   6.185   7.500 -1.1934  0.9004 -1.4977
   81CHL1  H18C 8430   3.038   6.091   7.360 -3.4893  0.0416  0.1995
   81CHL1   C12 8431   3.281   6.119   7.496 -0.3563 -0.1901  0.5015
   81CHL1  H12A 8432   3.270   6.227   7.520  0.4209  0.2225 -0.8563
   81CHL1  H12B 8433   3.377   6.091   7.544  0.9265  0.6507 -1.4348
   81CHL1   C11 8434   3.299   6.122   7.342  0.1854 -0.2520 -0.4911
   81CHL1  H11A 8435   3.219   6.181   7.293 -0.6114 -1.6042 -0.8732
   81CHL1  H11B 8436   3.396   6.175   7.327  0.7128 -1.4307 -1.5032
   81CHL1    C9 8437   3.313   5.980   7.280 -0.1535 -0.6043  0.6132
   81CHL1    H9 8438   3.410   5.939   7.315  0.4385 -0.9102 -1.2788
   81CHL1   C10 8439   3.319   5.984   7.124 -0.1142 -0.2292 -0.6274
   81CHL1   C19 8440   3.204   6.064   7.059  0.2524  0.0098  0.1647
   81CHL1  H19A 8441   3.109   6.034   7.109  0.4038 -1.6676 -0.5171
   81CHL1  H19B 8442   3.226   6.173   7.065  1.3886 -0.2361  0.6901
   81CHL1  H19C 8443   3.182   6.044   6.952  1.3891 -1.7391  0.2223
   81CHL1    C1 8444   3.456   6.042   7.074  0.3603 -0.0055  0.1063
   81CHL1   H1A 8445   3.455   6.150   7.101 -1.5824 -0.4051  1.8692
   81CHL1   H1B 8446   3.535   5.989   7.131 -0.1088 -1.8552 -0.9067
   81CHL1    C2 8447   3.484   6.021   6.929  0.5496 -0.5847 -0.1236
   81CHL1   H2A 8448   3.588   6.050   6.904  0.0183  1.6650  0.0522
   81CHL1   H2B 8449   3.417   6.096   6.881 -1.5033 -1.4927  1.1944
   81CHL1   C20 8450   3.084   6.092   7.767  0.3440 -0.1205 -0.0472
   81CHL1   H20 8451   2.983   6.111   7.726  1.1041  0.5220 -1.7155
   81CHL1   C21 8452   3.161   6.224   7.760  0.0404 -0.6375  0.2115
   81CHL1  H21A 8453   3.269   6.202   7.753  0.0836  0.1679 -3.2625
   81CHL1  H21B 8454   3.154   6.286   7.852  1.4934 -2.5694  1.6980
   81CHL1  H21C 8455   3.139   6.292   7.675  0.3010 -1.6481 -0.6821
   81CHL1   C22 8456   3.074   6.038   7.908 -0.7316  0.3527 -0.8309
   81CHL1  H22A 8457   3.050   5.929   7.905  2.1627 -0.4506  1.2046
   81CHL1  H22B 8458   3.173   6.045   7.957 -1.0593  2.9193 -0.4233
   81CHL1   C23 8459   2.971   6.115   7.990  0.4863  0.1614 -0.1291
   81CHL1  H23A 8460   3.013   6.209   8.030 -1.0945  1.6432 -1.7906
   81CHL1  H23B 8461   2.894   6.146   7.917  0.2561  0.6976  0.3342
   81CHL1   C24 8462   2.910   6.032   8.112 -0.1036  0.0453  0.3072
   81CHL1  H24A 8463   2.835   6.109   8.140 -1.8902 -1.3565 -0.4633
   81CHL1  H24B 8464   2.862   5.942   8.067 -0.8520  0.4718  0.2345
   81CHL1   C25 8465   2.998   5.990   8.224  0.3155 -0.7109  0.5211
   81CHL1   H25 8466   3.071   5.913   8.193  1.3151  0.0076  1.0247
   81CHL1   C26 8467   3.089   6.105   8.273  0.9832  0.3671  0.3557
   81CHL1  H26A 8468   3.165   6.065   8.344 -0.7086  0.8214  2.5584
   81CHL1  H26B 8469   3.148   6.138   8.185  1.9899 -0.7581  0.5787
   81CHL1  H26C 8470   3.037   6.190   8.323 -0.3577  0.8856 -1.7845
   81CHL1   C27 8471   2.929   5.933   8.353  0.2389 -0.1925 -0.3331
   81CHL1  H27A 8472   2.871   5.840   8.334  1.4543 -1.7339  2.8552
   81CHL1  H27B 8473   3.003   5.894   8.426  0.0397  0.0911  0.0178
   81CHL1  H27C 8474   2.864   6.008   8.402  1.5563  0.6390  0.2100
   82CHL1    C3 8475   2.239   0.339   6.902 -0.3359  0.0326  0.1878
   82CHL1    H3 8476   2.147   0.400   6.904 -0.2457  0.1636  1.4818
   82CHL1    O3 8477   2.263   0.295   6.766  0.2870 -0.0492 -0.4845
   82CHL1   H3' 8478   2.358   0.308   6.764  0.3774  0.3219  2.0013
   82CHL1    C4 8479   2.360   0.423   6.969 -0.2901 -0.0969 -0.0035
   82CHL1   H4A 8480   2.443   0.350   6.978 -1.4621 -1.5351 -0.3879
   82CHL1   H4B 8481   2.387   0.502   6.896 -1.0745  0.7767  0.6308
   82CHL1    C5 8482   2.310   0.467   7.109  0.2762  0.1718  0.5136
   82CHL1    C6 8483   2.304   0.600   7.139 -1.2939 -0.0806  0.3839
   82CHL1    H6 8484   2.335   0.675   7.064  1.4887  0.2878  1.7633
   82CHL1    C7 8485   2.264   0.643   7.270  0.2349 -0.4171 -0.9997
   82CHL1   H7A 8486   2.340   0.721   7.295  0.3549 -0.7174 -0.4166
   82CHL1   H7B 8487   2.164   0.690   7.255 -0.3846 -1.3529  0.0574
   82CHL1    C8 8488   2.258   0.532   7.377 -0.1333 -0.9455  0.3456
   82CHL1    H8 8489   2.366   0.513   7.397 -0.1284 -1.4379 -0.1450
   82CHL1   C14 8490   2.187   0.577   7.509 -0.0390 -0.5501 -0.6724
   82CHL1   H14 8491   2.089   0.618   7.475  1.2352  2.3843 -1.1779
   82CHL1   C15 8492   2.240   0.699   7.586 -0.1942 -0.2865  0.4655
   82CHL1  H15A 8493   2.350   0.683   7.579 -0.1733  0.6371 -2.2342
   82CHL1  H15B 8494   2.212   0.797   7.540 -1.5186 -0.6613  0.4314
   82CHL1   C16 8495   2.187   0.684   7.727  0.4791 -0.0904  0.3541
   82CHL1  H16A 8496   2.276   0.685   7.794  0.0629  1.3272  0.9192
   82CHL1  H16B 8497   2.130   0.778   7.743 -0.7554 -0.3006 -2.3168
   82CHL1   C17 8498   2.110   0.549   7.729  0.3573 -0.1185 -0.0644
   82CHL1   H17 8499   2.004   0.571   7.706  0.7208  1.7330 -0.0802
   82CHL1   C13 8500   2.170   0.469   7.611 -0.2715  0.0935  0.4018
   82CHL1   C18 8501   2.305   0.415   7.668  0.7623 -0.1912 -0.0889
   82CHL1  H18A 8502   2.361   0.472   7.745  0.4956  1.3454 -0.9792
   82CHL1  H18B 8503   2.280   0.312   7.703 -2.1514  0.0962 -0.9842
   82CHL1  H18C 8504   2.372   0.403   7.581 -3.0899  0.2758 -3.4300
   82CHL1   C12 8505   2.079   0.359   7.548  0.3203  0.5349 -0.6700
   82CHL1  H12A 8506   2.039   0.288   7.622 -0.3027 -0.5349 -1.9809
   82CHL1  H12B 8507   1.996   0.414   7.499 -2.4544 -3.2564 -0.6191
   82CHL1   C11 8508   2.162   0.290   7.433  0.3824 -0.8390  0.3107
   82CHL1  H11A 8509   2.249   0.249   7.487  0.3449  0.2759  1.2566
   82CHL1  H11B 8510   2.107   0.204   7.389 -1.3798  0.1138  0.5277
   82CHL1    C9 8511   2.196   0.401   7.326 -0.2346  0.2526  0.3456
   82CHL1    H9 8512   2.095   0.433   7.292 -0.6882  0.9586  2.2513
   82CHL1   C10 8513   2.274   0.346   7.203  0.5199 -0.2518  0.5675
   82CHL1   C19 8514   2.401   0.287   7.254 -0.6115 -0.0175  0.3076
   82CHL1  H19A 8515   2.403   0.243   7.356 -0.7983 -0.0464  0.2980
   82CHL1  H19B 8516   2.433   0.206   7.185 -0.1605  0.7087 -0.3636
   82CHL1  H19C 8517   2.488   0.357   7.251  0.7888 -1.6916  0.1908
   82CHL1    C1 8518   2.186   0.238   7.132  0.5979 -1.0697 -0.2214
   82CHL1   H1A 8519   2.188   0.149   7.199  0.3372 -0.5057  0.5545
   82CHL1   H1B 8520   2.082   0.275   7.143  0.8688 -0.3538 -0.0422
   82CHL1    C2 8521   2.222   0.210   6.981 -0.3238 -0.2458  0.3544
   82CHL1   H2A 8522   2.156   0.142   6.924 -1.1486  2.1882 -1.7816
   82CHL1   H2B 8523   2.321   0.161   6.985 -0.0189  0.4437  1.5630
   82CHL1   C20 8524   2.101   0.495   7.873  0.1823  0.5217 -0.0220
   82CHL1   H20 8525   2.197   0.445   7.897  1.3466  1.1010 -2.9407
   82CHL1   C21 8526   1.993   0.389   7.882 -0.3705  0.4876  0.3526
   82CHL1  H21A 8527   1.983   0.338   7.980 -0.1827 -2.1071 -0.8750
   82CHL1  H21B 8528   2.010   0.313   7.802  1.8858  0.3028  0.9348
   82CHL1  H21C 8529   1.894   0.432   7.859 -0.3400  1.7733  2.4024
   82CHL1   C22 8530   2.085   0.617   7.976  0.4642 -0.1040  0.1491
   82CHL1  H22A 8531   2.175   0.681   7.967 -0.1791  0.6595 -1.1901
   82CHL1  H22B 8532   1.997   0.681   7.952  1.4072  0.5210 -1.8640
   82CHL1   C23 8533   2.099   0.563   8.122  0.4038 -0.9780 -0.2008
   82CHL1  H23A 8534   2.007   0.504   8.141 -1.7602  1.9804 -0.8054
   82CHL1  H23B 8535   2.189   0.497   8.120  0.0011 -1.5173 -1.8390
   82CHL1   C24 8536   2.097   0.675   8.222  0.0730  1.0357 -0.6721
   82CHL1  H24A 8537   2.195   0.725   8.209 -0.1935  1.1894 -2.2929
   82CHL1  H24B 8538   2.016   0.748   8.198 -2.2028 -1.3069 -0.6359
   82CHL1   C25 8539   2.084   0.628   8.374  0.4221 -0.7194  0.6130
   82CHL1   H25 8540   1.980   0.593   8.391 -1.3998  2.3680 -2.6778
   82CHL1   C26 8541   2.186   0.527   8.401 -0.1399  0.5202 -1.1624
   82CHL1  H26A 8542   2.174   0.488   8.504 -1.3377  0.8387 -1.1628
   82CHL1  H26B 8543   2.178   0.442   8.331  1.1013 -1.1483  0.6162
   82CHL1  H26C 8544   2.289   0.566   8.386  0.5540  0.2191  2.1626
   82CHL1   C27 8545   2.106   0.750   8.462  0.3615  0.0156  0.0188
   82CHL1  H27A 8546   2.125   0.716   8.566  0.2545  1.6694  0.6092
   82CHL1  H27B 8547   2.197   0.806   8.433 -0.2769  1.4790  0.7575
   82CHL1  H27C 8548   2.018   0.816   8.446  1.5017  0.8131 -4.0648
   83CHL1    C3 8549   0.380   0.442   6.581 -0.0535  0.3215  0.6591
   83CHL1    H3 8550   0.276   0.480   6.565 -0.6480 -2.3328 -2.7263
   83CHL1    O3 8551   0.422   0.399   6.456  0.3905  0.3814 -0.1743
   83CHL1   H3' 8552   0.509   0.363   6.471 -0.3825 -1.5691 -0.0386
   83CHL1    C4 8553   0.477   0.546   6.643  0.6606 -0.1508 -0.3130
   83CHL1   H4A 8554   0.580   0.508   6.626  0.3039 -0.4673 -1.9425
   83CHL1   H4B 8555   0.471   0.630   6.571 -1.2146 -0.7764 -0.9349
   83CHL1    C5 8556   0.445   0.590   6.784 -0.1960 -0.5845 -0.4052
   83CHL1    C6 8557   0.427   0.723   6.818  0.2348 -0.1126  0.5232
   83CHL1    H6 8558   0.427   0.798   6.737  1.3654  0.4300  0.9984
   83CHL1    C7 8559   0.385   0.769   6.953 -0.0868  0.4004 -0.0637
   83CHL1   H7A 8560   0.428   0.870   6.972  0.1727  0.4275 -0.7848
   83CHL1   H7B 8561   0.275   0.780   6.956 -0.3474 -2.0201  0.8607
   83CHL1    C8 8562   0.408   0.654   7.058  0.3653  0.0509 -0.7830
   83CHL1    H8 8563   0.516   0.641   7.083 -0.1277 -2.4965  0.3882
   83CHL1   C14 8564   0.332   0.693   7.185  0.1408  0.0527 -0.4255
   83CHL1   H14 8565   0.224   0.699   7.160 -0.0440 -1.3378 -0.0493
   83CHL1   C15 8566   0.357   0.834   7.234  0.6798 -0.3323  0.1002
   83CHL1  H15A 8567   0.466   0.851   7.220  0.8949 -1.6403  0.0293
   83CHL1  H15B 8568   0.308   0.915   7.176 -0.5478 -1.3017 -0.2517
   83CHL1   C16 8569   0.311   0.831   7.383 -0.2987  0.4419  0.3969
   83CHL1  H16A 8570   0.387   0.884   7.445 -0.9520  1.0972  0.6571
   83CHL1  H16B 8571   0.217   0.890   7.389 -0.3835  0.2313  1.3694
   83CHL1   C17 8572   0.273   0.686   7.423  0.7160  0.4324  0.7614
   83CHL1   H17 8573   0.164   0.668   7.413  0.7495 -0.5810  1.8864
   83CHL1   C13 8574   0.335   0.598   7.308 -0.5358 -0.7714 -0.4870
   83CHL1   C18 8575   0.481   0.584   7.353  0.3030  0.2704 -0.1426
   83CHL1  H18A 8576   0.538   0.542   7.268  0.2791 -1.0495  0.4607
   83CHL1  H18B 8577   0.524   0.681   7.384 -0.6960  0.0575  2.1467
   83CHL1  H18C 8578   0.491   0.505   7.431 -2.1537  0.1597  0.1579
   83CHL1   C12 8579   0.272   0.466   7.262  0.1998  0.0293  0.1691
   83CHL1  H12A 8580   0.277   0.390   7.343  0.2559 -1.9778 -1.6277
   83CHL1  H12B 8581   0.167   0.490   7.235 -0.4641  1.7450  3.6782
   83CHL1   C11 8582   0.346   0.405   7.137  0.2076 -0.0430 -0.1555
   83CHL1  H11A 8583   0.448   0.377   7.171  1.1553 -0.9875 -3.4150
   83CHL1  H11B 8584   0.301   0.314   7.092 -0.9944  0.4753 -0.0331
   83CHL1    C9 8585   0.356   0.513   7.017 -0.1210  0.1426  0.0978
   83CHL1    H9 8586   0.253   0.537   6.983  0.9512  2.0002 -2.0676
   83CHL1   C10 8587   0.425   0.470   6.887 -0.2966  0.6848  0.5440
   83CHL1   C19 8588   0.557   0.398   6.925 -0.2373 -1.4216  0.1707
   83CHL1  H19A 8589   0.624   0.469   6.976 -2.7389 -0.8717  2.9548
   83CHL1  H19B 8590   0.536   0.302   6.976  2.0110 -2.2823 -0.4128
   83CHL1  H19C 8591   0.611   0.371   6.832 -0.9881 -1.9511 -0.1245
   83CHL1    C1 8592   0.320   0.370   6.816 -0.2033 -0.2712 -0.1185
   83CHL1   H1A 8593   0.299   0.288   6.888  1.3216 -0.3056  0.3129
   83CHL1   H1B 8594   0.224   0.425   6.812  0.5125  1.3650  2.5456
   83CHL1    C2 8595   0.359   0.327   6.679  0.0118 -0.1164 -0.3356
   83CHL1   H2A 8596   0.294   0.245   6.641 -0.0040 -0.9185  1.3143
   83CHL1   H2B 8597   0.460   0.279   6.681  0.3149  0.5149 -0.0613
   83CHL1   C20 8598   0.302   0.656   7.572  0.3060  0.0902 -0.5547
   83CHL1   H20 8599   0.412   0.652   7.591  0.3258  0.3949 -0.5925
   83CHL1   C21 8600   0.227   0.522   7.595  0.1832  0.7384  0.1647
   83CHL1  H21A 8601   0.291   0.447   7.545 -0.0672  0.5456  0.1351
   83CHL1  H21B 8602   0.125   0.515   7.552  0.1447  0.0529  0.3560
   83CHL1  H21C 8603   0.216   0.488   7.700  0.8894  1.2478  0.4183
   83CHL1   C22 8604   0.246   0.760   7.662 -0.5844  0.5559  0.2934
   83CHL1  H22A 8605   0.310   0.851   7.658 -0.7753  0.6821  0.1245
   83CHL1  H22B 8606   0.144   0.795   7.635 -0.8597 -0.1162  0.4319
   83CHL1   C23 8607   0.245   0.721   7.804  0.1425 -0.4974 -0.1193
   83CHL1  H23A 8608   0.168   0.643   7.817 -0.4348  0.0348 -0.2587
   83CHL1  H23B 8609   0.338   0.671   7.839 -0.1547  0.0027  1.4765
   83CHL1   C24 8610   0.224   0.838   7.888  0.3978  0.6698  0.4235
   83CHL1  H24A 8611   0.306   0.913   7.876  0.1769  1.2704  2.3534
   83CHL1  H24B 8612   0.140   0.899   7.849 -0.1236 -1.0734 -1.3627
   83CHL1   C25 8613   0.221   0.804   8.036 -0.5403  0.7500  0.1893
   83CHL1   H25 8614   0.309   0.747   8.072  1.4968  2.2846 -2.0633
   83CHL1   C26 8615   0.233   0.934   8.111  0.1812 -0.6345 -0.6478
   83CHL1  H26A 8616   0.159   1.012   8.082 -0.6166 -1.4167 -0.7685
   83CHL1  H26B 8617   0.227   0.910   8.219  0.0326  1.1844 -0.2108
   83CHL1  H26C 8618   0.335   0.976   8.098 -0.4395  1.4141  0.5690
   83CHL1   C27 8619   0.085   0.727   8.063 -0.5144 -0.4409 -0.2049
   83CHL1  H27A 8620  -0.002   0.781   8.019 -0.6714 -1.4135 -1.1376
   83CHL1  H27B 8621   0.084   0.625   8.017 -0.1321 -1.5009  2.0136
   83CHL1  H27C 8622   0.069   0.725   8.173 -0.3262  0.4310 -0.1567
   84CHL1    C3 8623   4.098   4.205   6.901  0.4754  0.8360 -0.1039
   84CHL1    H3 8624   3.989   4.184   6.891  0.7413 -0.6753 -0.0023
   84CHL1    O3 8625   4.160   4.196   6.775 -0.1828  0.0814 -0.3302
   84CHL1   H3' 8626   4.245   4.239   6.788 -0.7435  0.7252  1.5822
   84CHL1    C4 8627   4.125   4.350   6.953  0.2438  0.6681 -0.9104
   84CHL1   H4A 8628   4.233   4.374   6.942  0.0620  2.7780  1.1770
   84CHL1   H4B 8629   4.063   4.409   6.882 -0.5324  1.8767  0.6973
   84CHL1    C5 8630   4.073   4.387   7.094  0.1779 -0.3855 -0.2525
   84CHL1    C6 8631   3.991   4.490   7.124 -0.7208  0.2017 -0.3132
   84CHL1    H6 8632   3.974   4.559   7.040 -0.0078  2.6430  1.4339
   84CHL1    C7 8633   3.948   4.522   7.266  0.1893  0.2827 -0.2803
   84CHL1   H7A 8634   3.933   4.628   7.296 -0.3748  0.4585 -1.1321
   84CHL1   H7B 8635   3.844   4.482   7.271 -0.7541  2.0120 -3.1857
   84CHL1    C8 8636   4.031   4.452   7.377 -0.0996 -0.3345  0.6265
   84CHL1    H8 8637   4.123   4.512   7.397 -1.0168  1.1576  0.5084
   84CHL1   C14 8638   3.956   4.463   7.510  0.0124  0.1198 -0.6233
   84CHL1   H14 8639   3.859   4.410   7.499  0.5553 -1.1218  0.2470
   84CHL1   C15 8640   3.917   4.600   7.558 -0.5345 -0.3268 -0.0449
   84CHL1  H15A 8641   4.010   4.661   7.555 -0.8170  0.0777 -0.8121
   84CHL1  H15B 8642   3.831   4.643   7.503 -0.4112 -0.1602 -0.1118
   84CHL1   C16 8643   3.889   4.568   7.711 -0.5674  0.2207  0.2914
   84CHL1  H16A 8644   3.936   4.652   7.766 -0.7763  1.3566 -1.2127
   84CHL1  H16B 8645   3.780   4.578   7.728 -0.7645 -2.3294  1.0466
   84CHL1   C17 8646   3.948   4.433   7.745  0.8887 -0.1549 -0.5636
   84CHL1   H17 8647   3.864   4.362   7.759  0.5218  0.6928  2.1758
   84CHL1   C13 8648   4.032   4.391   7.624  0.1435 -0.1888 -0.5443
   84CHL1   C18 8649   4.175   4.438   7.642 -0.1157  0.6970  0.2835
   84CHL1  H18A 8650   4.181   4.539   7.689 -1.5725  1.4317 -1.0457
   84CHL1  H18B 8651   4.227   4.378   7.719 -2.5585 -1.2106  0.5615
   84CHL1  H18C 8652   4.230   4.433   7.545  1.3865  1.3904  1.0619
   84CHL1   C12 8653   4.031   4.238   7.579 -0.4134 -0.5899  0.0153
   84CHL1  H12A 8654   4.070   4.159   7.647  0.2094 -1.4261 -1.2666
   84CHL1  H12B 8655   3.927   4.217   7.549 -1.0479  0.6203  1.2630
   84CHL1   C11 8656   4.110   4.217   7.454 -0.6106  0.1017 -0.4585
   84CHL1  H11A 8657   4.217   4.233   7.477  0.1108 -1.1808 -2.5705
   84CHL1  H11B 8658   4.103   4.109   7.427 -2.8148  0.1822 -0.4080
   84CHL1    C9 8659   4.052   4.303   7.334  0.1805 -1.0715  0.2456
   84CHL1    H9 8660   3.952   4.265   7.303  0.4717 -0.3242 -1.7186
   84CHL1   C10 8661   4.124   4.290   7.198 -0.5739  0.3357 -0.0773
   84CHL1   C19 8662   4.270   4.310   7.227 -0.0872  0.4241  0.4449
   84CHL1  H19A 8663   4.276   4.409   7.277 -1.3230 -0.2610  2.0376
   84CHL1  H19B 8664   4.311   4.238   7.301  0.9231  1.3043  0.7768
   84CHL1  H19C 8665   4.335   4.305   7.137 -1.8372 -2.3819 -0.7747
   84CHL1    C1 8666   4.100   4.146   7.147  0.1975 -0.1896  0.1165
   84CHL1   H1A 8667   4.144   4.075   7.220 -1.7488 -0.8437  0.7084
   84CHL1   H1B 8668   3.992   4.119   7.141  0.6719 -3.3734  2.8464
   84CHL1    C2 8669   4.162   4.115   7.005 -0.0684 -0.2043  0.1040
   84CHL1   H2A 8670   4.148   4.007   6.983 -0.5938 -0.7583  2.8617
   84CHL1   H2B 8671   4.272   4.132   7.014  0.0979 -1.7811  1.7044
   84CHL1   C20 8672   4.011   4.427   7.885  0.0064 -0.2803  0.3356
   84CHL1   H20 8673   4.099   4.493   7.896  0.2933 -0.2948 -1.5939
   84CHL1   C21 8674   4.059   4.286   7.908 -0.6395  1.0672  0.6866
   84CHL1  H21A 8675   4.121   4.267   7.998 -0.3183 -1.0369  0.0792
   84CHL1  H21B 8676   4.129   4.243   7.834 -0.8096 -1.4881  1.9082
   84CHL1  H21C 8677   3.976   4.212   7.913  1.2624 -1.1188  2.0863
   84CHL1   C22 8678   3.899   4.465   7.986  0.2058  0.2682 -0.5494
   84CHL1  H22A 8679   3.856   4.564   7.958  2.8967  1.4432 -0.8418
   84CHL1  H22B 8680   3.826   4.382   7.983 -0.4363  0.5785  2.5404
   84CHL1   C23 8681   3.952   4.473   8.132  0.3937 -0.6711 -0.3638
   84CHL1  H23A 8682   3.979   4.371   8.165  2.3583 -0.2862 -0.6248
   84CHL1  H23B 8683   4.047   4.532   8.130  0.0277 -0.0809 -0.7765
   84CHL1   C24 8684   3.841   4.522   8.220  0.4592 -0.6891 -0.2175
   84CHL1  H24A 8685   3.790   4.609   8.173  2.0295  0.2373 -0.3012
   84CHL1  H24B 8686   3.757   4.450   8.215 -0.2493  0.1770 -1.5514
   84CHL1   C25 8687   3.884   4.549   8.366 -0.2261  0.0604  0.0455
   84CHL1   H25 8688   3.967   4.480   8.394 -1.5491 -0.8359  1.9966
   84CHL1   C26 8689   3.941   4.692   8.383  0.8277 -0.0774  0.1147
   84CHL1  H26A 8690   3.969   4.714   8.488 -1.9493  0.2649  0.8521
   84CHL1  H26B 8691   4.021   4.720   8.311  0.8020 -1.7781 -0.6195
   84CHL1  H26C 8692   3.855   4.758   8.359  1.5340  0.6644 -0.4214
   84CHL1   C27 8693   3.760   4.526   8.455 -0.0487  0.4761 -0.5540
   84CHL1  H27A 8694   3.726   4.421   8.451 -0.8615  0.7282 -0.5440
   84CHL1  H27B 8695   3.795   4.528   8.560 -1.3043  0.4491 -0.1200
   84CHL1  H27C 8696   3.672   4.593   8.438 -0.9800 -0.8878 -1.3117
   85CHL1    C3 8697   2.338   2.143   6.677  0.6128  1.0630  0.5977
   85CHL1    H3 8698   2.415   2.066   6.658 -0.8648  0.2362 -2.7326
   85CHL1    O3 8699   2.302   2.187   6.545 -0.2224  0.1049 -0.3902
   85CHL1   H3' 8700   2.226   2.245   6.559 -0.5615 -0.6857  1.3198
   85CHL1    C4 8701   2.215   2.073   6.742  0.3943  0.3713 -0.1998
   85CHL1   H4A 8702   2.131   2.139   6.712 -1.0539 -1.0233  0.6244
   85CHL1   H4B 8703   2.201   1.978   6.687 -0.9066  0.1887  0.4232
   85CHL1    C5 8704   2.208   2.046   6.887  0.1052  0.2517  1.0841
   85CHL1    C6 8705   2.179   1.928   6.938 -0.3546  0.3449  0.2180
   85CHL1    H6 8706   2.152   1.837   6.881 -1.1624 -0.0517  1.1908
   85CHL1    C7 8707   2.165   1.903   7.083 -0.1802 -0.6682 -0.0451
   85CHL1   H7A 8708   2.066   1.857   7.102 -1.1612  2.2676  3.0357
   85CHL1   H7B 8709   2.255   1.851   7.122  1.2690 -0.1219 -2.4237
   85CHL1    C8 8710   2.155   2.035   7.156  0.6489  0.5098 -0.9476
   85CHL1    H8 8711   2.054   2.079   7.147  0.0182 -0.9967 -1.4939
   85CHL1   C14 8712   2.173   2.002   7.308 -0.1958  0.4682 -0.2640
   85CHL1   H14 8713   2.268   1.945   7.312 -2.0021 -2.8324 -0.6919
   85CHL1   C15 8714   2.080   1.910   7.375  0.2528 -0.1315  0.6918
   85CHL1  H15A 8715   1.973   1.933   7.360  0.6070  1.0327 -0.2129
   85CHL1  H15B 8716   2.098   1.803   7.349 -1.0158 -0.0481 -0.6180
   85CHL1   C16 8717   2.102   1.924   7.525 -0.0915 -0.9843  0.3915
   85CHL1  H16A 8718   2.005   1.949   7.573 -1.0447 -1.9874 -0.9274
   85CHL1  H16B 8719   2.154   1.837   7.570 -0.3541 -1.8090 -0.8618
   85CHL1   C17 8720   2.203   2.049   7.534  0.0578  0.2282 -0.5662
   85CHL1   H17 8721   2.305   2.007   7.524  0.4441  1.3774 -1.6238
   85CHL1   C13 8722   2.180   2.127   7.405  0.1621 -0.7308  0.6208
   85CHL1   C18 8723   2.045   2.203   7.404  0.1646  0.2378  0.0161
   85CHL1  H18A 8724   1.968   2.139   7.452 -0.3951 -0.0094 -1.1854
   85CHL1  H18B 8725   2.071   2.298   7.455 -0.1423  1.3276 -1.7727
   85CHL1  H18C 8726   2.008   2.224   7.301  1.4002  1.8796 -0.1438
   85CHL1   C12 8727   2.292   2.215   7.348 -0.0311 -0.0477  0.2694
   85CHL1  H12A 8728   2.301   2.305   7.414  0.2567 -0.6264  1.0367
   85CHL1  H12B 8729   2.384   2.154   7.346 -0.7136 -1.1579  1.4440
   85CHL1   C11 8730   2.261   2.267   7.207 -0.3629 -0.1105  0.9261
   85CHL1  H11A 8731   2.167   2.326   7.210  1.3520  2.8498  0.2936
   85CHL1  H11B 8732   2.343   2.338   7.183  0.5083 -1.5826 -0.7571
   85CHL1    C9 8733   2.258   2.139   7.113  0.0897  0.3688 -0.1299
   85CHL1    H9 8734   2.358   2.092   7.129  0.8335  2.4188  1.6454
   85CHL1   C10 8735   2.250   2.175   6.966  0.6188 -0.6027 -0.2163
   85CHL1   C19 8736   2.139   2.287   6.950  0.8255  0.9219  0.3817
   85CHL1  H19A 8737   2.167   2.391   6.978  0.0002  1.5344 -0.9871
   85CHL1  H19B 8738   2.091   2.284   6.850  2.0652 -0.7577 -0.2134
   85CHL1  H19C 8739   2.056   2.257   7.018  0.8872  1.4277  0.6874
   85CHL1    C1 8740   2.381   2.246   6.907 -0.6990 -0.7551  0.3700
   85CHL1   H1A 8741   2.386   2.348   6.949 -2.4622 -0.0491 -1.0017
   85CHL1   H1B 8742   2.478   2.194   6.924  1.3336  2.3789 -0.6798
   85CHL1    C2 8743   2.376   2.266   6.757  0.7517 -0.2528  0.4766
   85CHL1   H2A 8744   2.478   2.301   6.730  0.6645 -0.2028  0.1993
   85CHL1   H2B 8745   2.305   2.349   6.735  1.5720  0.8163  1.6896
   85CHL1   C20 8746   2.202   2.118   7.666 -0.1591 -0.2460 -0.4983
   85CHL1   H20 8747   2.104   2.163   7.689  0.9449  1.2927  1.4686
   85CHL1   C21 8748   2.309   2.227   7.671 -0.0054 -0.5261  0.9966
   85CHL1  H21A 8749   2.281   2.322   7.621  1.4846  0.4221  1.9010
   85CHL1  H21B 8750   2.402   2.185   7.627  1.0402 -0.1787  2.7651
   85CHL1  H21C 8751   2.327   2.266   7.773 -0.8979 -1.6907  1.6287
   85CHL1   C22 8752   2.226   2.028   7.781 -0.2142  0.9410 -0.5786
   85CHL1  H22A 8753   2.154   1.943   7.779  1.8373 -0.9587  0.3670
   85CHL1  H22B 8754   2.329   1.985   7.782  0.4396  2.4530  0.7355
   85CHL1   C23 8755   2.215   2.088   7.925  0.6638  0.0191 -0.5586
   85CHL1  H23A 8756   2.296   2.158   7.955 -1.8370  2.7747  0.3343
   85CHL1  H23B 8757   2.126   2.155   7.930  0.6867  0.3776 -3.2002
   85CHL1   C24 8758   2.208   1.982   8.039 -0.1514 -0.6216 -0.2415
   85CHL1  H24A 8759   2.126   1.910   8.016 -1.3620 -0.0150  1.9233
   85CHL1  H24B 8760   2.314   1.950   8.048 -0.1131 -0.5447 -0.4262
   85CHL1   C25 8761   2.170   2.040   8.177 -0.0505 -0.1002  0.8625
   85CHL1   H25 8762   2.063   2.067   8.164  0.1082  0.4739  0.7243
   85CHL1   C26 8763   2.206   1.930   8.280  0.1789 -0.4579  0.2392
   85CHL1  H26A 8764   2.201   1.978   8.380 -1.1688 -0.7177  0.3169
   85CHL1  H26B 8765   2.132   1.847   8.278 -1.5643  0.9940  1.3110
   85CHL1  H26C 8766   2.311   1.898   8.271  0.6046  0.6507  0.9572
   85CHL1   C27 8767   2.233   2.183   8.199 -0.6393 -0.1810 -0.3869
   85CHL1  H27A 8768   2.344   2.190   8.201 -0.6937  0.9435 -0.7130
   85CHL1  H27B 8769   2.184   2.239   8.117 -0.1752 -0.6383 -0.9770
   85CHL1  H27C 8770   2.200   2.238   8.290 -0.6483 -0.3086 -0.3128
   86CHL1    C3 8771   3.360   6.556   6.755  0.5188  0.2668 -0.0368
   86CHL1    H3 8772   3.298   6.646   6.733 -0.0956 -0.1790 -0.1612
   86CHL1    O3 8773   3.401   6.497   6.633 -0.2651 -0.1255  0.5241
   86CHL1   H3' 8774   3.457   6.561   6.588 -0.9194  0.7637  0.9181
   86CHL1    C4 8775   3.477   6.579   6.840 -1.2077 -0.4786 -0.0837
   86CHL1   H4A 8776   3.535   6.484   6.846  1.5995  1.1442 -0.0582
   86CHL1   H4B 8777   3.544   6.652   6.790  0.8102 -1.9749  0.2788
   86CHL1    C5 8778   3.437   6.634   6.978 -0.8605 -0.4907 -0.3779
   86CHL1    C6 8779   3.471   6.753   7.030  0.2366 -0.7335  0.0852
   86CHL1    H6 8780   3.536   6.820   6.971  0.4541 -0.7882  0.2624
   86CHL1    C7 8781   3.421   6.813   7.163 -0.0578  0.3635  0.2320
   86CHL1   H7A 8782   3.492   6.883   7.212 -1.0622  1.2456  0.4814
   86CHL1   H7B 8783   3.327   6.872   7.155 -0.3486 -0.0986  0.1987
   86CHL1    C8 8784   3.376   6.700   7.258  0.1765 -0.8515 -0.2062
   86CHL1    H8 8785   3.465   6.647   7.298 -0.8394 -2.4072  0.0792
   86CHL1   C14 8786   3.304   6.767   7.377  0.3946  0.6277 -0.4213
   86CHL1   H14 8787   3.212   6.803   7.326 -0.6593 -2.5636 -0.9890
   86CHL1   C15 8788   3.383   6.875   7.450  0.1282  0.0776 -1.1152
   86CHL1  H15A 8789   3.485   6.844   7.483  0.0702 -1.4457 -2.2619
   86CHL1  H15B 8790   3.383   6.977   7.408 -3.0447  1.0690  0.9882
   86CHL1   C16 8791   3.294   6.889   7.579  0.3017 -0.3198  0.3047
   86CHL1  H16A 8792   3.353   6.877   7.673 -0.3616 -0.6410  0.6856
   86CHL1  H16B 8793   3.237   6.985   7.579 -0.9447 -1.0408 -0.0826
   86CHL1   C17 8794   3.187   6.775   7.579  0.5789 -0.5487 -0.3789
   86CHL1   H17 8795   3.103   6.818   7.521  0.8950  2.2445  1.0523
   86CHL1   C13 8796   3.253   6.667   7.486 -0.1080 -0.4311  0.1536
   86CHL1   C18 8797   3.373   6.589   7.550  0.2731  0.4350  0.5675
   86CHL1  H18A 8798   3.344   6.503   7.613  1.2025 -1.6086 -1.6627
   86CHL1  H18B 8799   3.429   6.545   7.465 -3.2764  0.6745 -2.0962
   86CHL1  H18C 8800   3.437   6.659   7.608 -0.2199 -0.1766  1.8871
   86CHL1   C12 8801   3.156   6.567   7.411 -0.3572  0.1821 -0.5416
   86CHL1  H12A 8802   3.131   6.484   7.479  0.0157  1.0185  0.6488
   86CHL1  H12B 8803   3.068   6.632   7.391 -1.1596 -0.3901  0.9886
   86CHL1   C11 8804   3.228   6.501   7.289  0.1854  0.4603 -0.3958
   86CHL1  H11A 8805   3.309   6.442   7.336  0.1492  0.4669 -0.3246
   86CHL1  H11B 8806   3.163   6.427   7.237  2.0934 -1.9599  0.4200
   86CHL1    C9 8807   3.280   6.604   7.192  0.1185  0.0161  0.4743
   86CHL1    H9 8808   3.192   6.665   7.161  0.5847  0.2905 -0.3527
   86CHL1   C10 8809   3.338   6.547   7.060  0.0578 -0.5309 -0.0937
   86CHL1   C19 8810   3.429   6.427   7.095  0.3161  0.3645  0.0514
   86CHL1  H19A 8811   3.463   6.379   7.001 -1.1718 -0.1203 -0.2588
   86CHL1  H19B 8812   3.514   6.458   7.161  1.2303  0.4449 -1.1369
   86CHL1  H19C 8813   3.370   6.347   7.145 -1.8223  1.2223 -0.9727
   86CHL1    C1 8814   3.227   6.509   6.959 -0.9472 -0.0966  0.1300
   86CHL1   H1A 8815   3.166   6.438   7.018  0.9284 -1.0973  0.9696
   86CHL1   H1B 8816   3.171   6.604   6.945  0.7234  0.6363 -2.2781
   86CHL1    C2 8817   3.269   6.453   6.819  0.0104 -0.6833 -0.5934
   86CHL1   H2A 8818   3.177   6.436   6.759 -1.4027  0.9025  0.9849
   86CHL1   H2B 8819   3.316   6.354   6.831  1.3816 -0.1675 -1.5379
   86CHL1   C20 8820   3.142   6.739   7.717 -0.3036  0.7615 -0.0973
   86CHL1   H20 8821   3.214   6.676   7.773 -0.0130  2.6573  1.8114
   86CHL1   C21 8822   3.011   6.650   7.716 -0.2366 -0.5454 -0.6213
   86CHL1  H21A 8823   3.014   6.575   7.635 -0.2852  0.5075 -1.6290
   86CHL1  H21B 8824   2.918   6.705   7.690 -0.6027  0.4158  2.4035
   86CHL1  H21C 8825   3.001   6.592   7.810  0.5842 -1.3633 -1.0269
   86CHL1   C22 8826   3.110   6.859   7.807  0.2080 -0.2748 -0.1742
   86CHL1  H22A 8827   3.207   6.902   7.839  1.0561 -2.8111  0.9362
   86CHL1  H22B 8828   3.065   6.943   7.751 -1.6388  0.4580  2.2226
   86CHL1   C23 8829   3.046   6.820   7.941 -0.6506  0.3237  0.7615
   86CHL1  H23A 8830   2.944   6.792   7.907 -0.5818  1.7147 -0.6745
   86CHL1  H23B 8831   3.092   6.730   7.988  0.8497  0.7337  0.1085
   86CHL1   C24 8832   3.032   6.942   8.038  0.5363  0.3783 -0.0582
   86CHL1  H24A 8833   3.132   6.975   8.075  0.9362 -1.0196  0.1658
   86CHL1  H24B 8834   2.987   7.032   7.990  1.2277  0.5568 -0.3828
   86CHL1   C25 8835   2.938   6.915   8.161  0.4767 -0.3391 -0.1946
   86CHL1   H25 8836   2.832   6.899   8.131  0.2265 -0.3867  0.6672
   86CHL1   C26 8837   2.986   6.788   8.234 -0.0683 -0.1414  0.2176
   86CHL1  H26A 8838   2.972   6.695   8.176  0.8704  0.8271 -1.6803
   86CHL1  H26B 8839   3.096   6.800   8.249  0.1370 -0.8062 -0.6826
   86CHL1  H26C 8840   2.933   6.785   8.332  1.0574 -1.7556  0.8154
   86CHL1   C27 8841   2.956   7.025   8.264 -0.7086  0.3597 -0.5825
   86CHL1  H27A 8842   3.060   7.029   8.303 -0.3718  1.2914 -1.5576
   86CHL1  H27B 8843   2.927   7.125   8.226 -1.4208  0.9336  1.3408
   86CHL1  H27C 8844   2.891   7.000   8.351 -0.1291 -0.6713 -0.4249
   87CHL1    C3 8845   6.078   3.588   7.003 -0.6041  0.6026 -0.1338
   87CHL1    H3 8846   5.973   3.553   7.013 -0.3393 -0.6483 -1.4017
   87CHL1    O3 8847   6.121   3.573   6.868  0.0641  0.4062  0.1463
   87CHL1   H3' 8848   6.213   3.598   6.869  0.2945 -0.3209  2.0523
   87CHL1    C4 8849   6.076   3.730   7.055 -0.4734 -0.2698  0.2507
   87CHL1   H4A 8850   6.178   3.767   7.030 -0.0639 -0.2077  1.8799
   87CHL1   H4B 8851   5.998   3.770   6.987 -1.0055 -0.7827  0.5467
   87CHL1    C5 8852   6.036   3.753   7.201 -0.7541 -0.0495 -1.0568
   87CHL1    C6 8853   5.944   3.842   7.242 -0.5255 -0.0419 -0.0801
   87CHL1    H6 8854   5.891   3.901   7.166  0.9462  0.9937 -0.3664
   87CHL1    C7 8855   5.898   3.859   7.379 -0.8844 -0.6712 -0.2323
   87CHL1   H7A 8856   5.891   3.968   7.396 -4.0298 -0.7984 -0.1987
   87CHL1   H7B 8857   5.798   3.814   7.392 -0.5694 -1.4393 -0.3960
   87CHL1    C8 8858   6.002   3.804   7.481 -0.1282  0.5199  0.7208
   87CHL1    H8 8859   6.098   3.861   7.484 -0.0032  0.3361  0.3000
   87CHL1   C14 8860   5.954   3.808   7.625 -0.3897  0.3863  0.0956
   87CHL1   H14 8861   5.859   3.750   7.620 -1.5119  2.2445 -0.9238
   87CHL1   C15 8862   5.913   3.939   7.688  0.0725 -0.4002 -0.1181
   87CHL1  H15A 8863   5.994   4.014   7.676 -0.0627 -0.2793 -0.2592
   87CHL1  H15B 8864   5.814   3.976   7.654 -1.0425 -1.9005  1.2791
   87CHL1   C16 8865   5.893   3.904   7.834  0.3497 -0.0205  0.5074
   87CHL1  H16A 8866   5.944   3.982   7.895 -0.4516 -2.2851  4.3962
   87CHL1  H16B 8867   5.790   3.917   7.872  0.2797 -0.7773  0.5912
   87CHL1   C17 8868   5.941   3.753   7.850  0.3591 -0.1945  0.2504
   87CHL1   H17 8869   5.857   3.683   7.830  0.9842 -1.4013  1.6734
   87CHL1   C13 8870   6.034   3.731   7.731  0.1236 -0.8093  0.0585
   87CHL1   C18 8871   6.170   3.804   7.757 -0.1073 -0.3848 -0.0607
   87CHL1  H18A 8872   6.155   3.907   7.793  1.7796  0.1880 -0.7943
   87CHL1  H18B 8873   6.229   3.744   7.829  1.3047 -0.6592 -1.3920
   87CHL1  H18C 8874   6.212   3.808   7.654 -3.8143 -1.4580 -1.7869
   87CHL1   C12 8875   6.039   3.588   7.681  0.2486 -0.7150 -0.3148
   87CHL1  H12A 8876   6.084   3.522   7.759 -1.2944 -0.3525  0.9369
   87CHL1  H12B 8877   5.931   3.558   7.681 -0.2934  1.1296 -1.0699
   87CHL1   C11 8878   6.092   3.561   7.546  0.2656  0.6648 -0.0367
   87CHL1  H11A 8879   6.199   3.585   7.561  0.5526 -1.4928  1.8639
   87CHL1  H11B 8880   6.092   3.454   7.514 -0.7814  0.5281  0.3735
   87CHL1    C9 8881   6.031   3.654   7.440  0.2733 -0.5458 -0.0818
   87CHL1    H9 8882   5.935   3.610   7.405  0.3916 -1.4005  0.6174
   87CHL1   C10 8883   6.101   3.649   7.296  0.9940  0.2216 -1.0120
   87CHL1   C19 8884   6.244   3.706   7.322  0.7964  0.1786  0.1558
   87CHL1  H19A 8885   6.302   3.633   7.383  0.7688  0.4425  0.4996
   87CHL1  H19B 8886   6.303   3.719   7.228  0.2182  0.1814 -0.2089
   87CHL1  H19C 8887   6.238   3.801   7.378 -1.0807 -1.3827  2.8309
   87CHL1    C1 8888   6.119   3.505   7.240  0.5591 -0.2804  0.7126
   87CHL1   H1A 8889   6.183   3.440   7.304 -0.5654 -2.5519 -0.3639
   87CHL1   H1B 8890   6.022   3.453   7.232  2.3046 -3.5968 -0.8624
   87CHL1    C2 8891   6.171   3.495   7.094 -0.0164 -0.0887  0.2748
   87CHL1   H2A 8892   6.174   3.394   7.048  0.4921  0.1171 -0.1575
   87CHL1   H2B 8893   6.279   3.521   7.082  0.1388 -1.6223 -2.7456
   87CHL1   C20 8894   5.993   3.729   7.995  0.2402 -0.1447  0.3926
   87CHL1   H20 8895   6.080   3.794   8.019  0.5427 -0.0295 -0.9464
   87CHL1   C21 8896   6.034   3.584   8.013  0.8095 -0.3570 -0.1940
   87CHL1  H21A 8897   5.960   3.514   7.968 -0.3509 -0.7808  2.2258
   87CHL1  H21B 8898   6.031   3.559   8.121  1.7686 -2.8354 -0.6687
   87CHL1  H21C 8899   6.136   3.571   7.971 -0.0449  0.0190 -2.5723
   87CHL1   C22 8900   5.882   3.769   8.105 -0.0758  0.1604 -0.0170
   87CHL1  H22A 8901   5.814   3.854   8.086 -0.8854 -0.1499  1.3317
   87CHL1  H22B 8902   5.813   3.681   8.113 -1.1702  1.0216  0.2710
   87CHL1   C23 8903   5.941   3.789   8.252  0.1211 -0.0307 -0.3468
   87CHL1  H23A 8904   6.005   3.699   8.267 -0.0631 -0.0430  0.3723
   87CHL1  H23B 8905   6.000   3.882   8.254  0.2595 -0.0831 -1.4470
   87CHL1   C24 8906   5.828   3.796   8.359  0.2373  0.1039  0.4483
   87CHL1  H24A 8907   5.750   3.868   8.325  0.5948 -0.1177 -0.9180
   87CHL1  H24B 8908   5.789   3.694   8.381  1.1859  0.2398  3.1237
   87CHL1   C25 8909   5.893   3.854   8.484  0.0736  0.1591  0.7651
   87CHL1   H25 8910   5.939   3.950   8.451  1.5776 -0.7247  0.1571
   87CHL1   C26 8911   5.791   3.876   8.592 -0.3702 -0.6813 -0.6189
   87CHL1  H26A 8912   5.697   3.925   8.558 -0.0437  0.6643  0.3585
   87CHL1  H26B 8913   5.764   3.781   8.642 -2.1561 -0.4418 -1.0647
   87CHL1  H26C 8914   5.828   3.950   8.666  0.3339 -1.5201 -0.1146
   87CHL1   C27 8915   6.019   3.773   8.520  0.4237 -0.2590 -0.7344
   87CHL1  H27A 8916   6.040   3.790   8.628 -0.0852 -1.1180 -0.4818
   87CHL1  H27B 8917   6.005   3.663   8.507 -0.5910 -0.4544  1.4528
   87CHL1  H27C 8918   6.109   3.800   8.461  1.5298  1.4466  1.5748
   88CHL1    C3 8919   2.391   3.592   6.897 -0.6900 -0.5113  0.6273
   88CHL1    H3 8920   2.378   3.501   6.958  0.8435 -0.5393  0.9557
   88CHL1    O3 8921   2.376   3.581   6.753  0.0369  0.0497  0.4831
   88CHL1   H3' 8922   2.463   3.600   6.720  0.4655 -3.2891 -0.6588
   88CHL1    C4 8923   2.304   3.698   6.951  0.2251 -0.2238 -0.3335
   88CHL1   H4A 8924   2.331   3.796   6.906 -1.3162  0.0692 -0.6701
   88CHL1   H4B 8925   2.199   3.672   6.926  0.0859 -3.1788  2.6227
   88CHL1    C5 8926   2.315   3.710   7.105  0.3489  0.2801  0.4872
   88CHL1    C6 8927   2.212   3.675   7.180  0.6586 -0.5264  1.0228
   88CHL1    H6 8928   2.114   3.654   7.135  0.0907  0.3480  1.8125
   88CHL1    C7 8929   2.213   3.670   7.331 -0.3298 -0.4656 -0.0329
   88CHL1   H7A 8930   2.133   3.740   7.363  0.6094  1.9412 -2.5172
   88CHL1   H7B 8931   2.192   3.563   7.350  0.7690 -1.5030 -3.8155
   88CHL1    C8 8932   2.341   3.738   7.385 -0.0229 -0.3108 -0.4709
   88CHL1    H8 8933   2.335   3.849   7.375  0.5972  0.0247  2.0989
   88CHL1   C14 8934   2.357   3.702   7.534 -0.2284 -0.3431 -0.2453
   88CHL1   H14 8935   2.364   3.591   7.534 -1.9144 -0.5120 -2.1665
   88CHL1   C15 8936   2.242   3.752   7.621 -0.7191  0.0320  0.5694
   88CHL1  H15A 8937   2.206   3.853   7.591 -1.7406 -0.6638 -0.6647
   88CHL1  H15B 8938   2.151   3.688   7.619  0.5286 -1.8030  0.2415
   88CHL1   C16 8939   2.301   3.743   7.762  0.0863  0.4978 -0.0999
   88CHL1  H16A 8940   2.271   3.837   7.812  0.0505  0.8874 -0.8470
   88CHL1  H16B 8941   2.255   3.660   7.821  0.7944  0.1241 -0.0647
   88CHL1   C17 8942   2.454   3.735   7.746  0.2385 -0.3020  0.4201
   88CHL1   H17 8943   2.481   3.627   7.749  1.1804 -0.2456 -2.5082
   88CHL1   C13 8944   2.479   3.768   7.600 -0.1638 -0.1355 -0.1757
   88CHL1   C18 8945   2.484   3.927   7.583  0.0396  0.3135 -0.1019
   88CHL1  H18A 8946   2.478   3.949   7.474  1.4676 -0.1195 -0.2830
   88CHL1  H18B 8947   2.398   3.978   7.631 -0.8974  0.9755 -2.3521
   88CHL1  H18C 8948   2.584   3.961   7.617  0.0067  0.0542  0.2622
   88CHL1   C12 8949   2.599   3.706   7.528 -0.4978 -0.1354  0.2680
   88CHL1  H12A 8950   2.686   3.762   7.569 -1.7612  3.0401 -1.0172
   88CHL1  H12B 8951   2.602   3.599   7.557  0.0482  0.1837  1.4655
   88CHL1   C11 8952   2.596   3.723   7.375 -0.5081 -0.0975  0.2854
   88CHL1  H11A 8953   2.611   3.832   7.361 -2.4026  0.4525  2.0403
   88CHL1  H11B 8954   2.679   3.675   7.318 -1.5977 -1.4871 -0.1746
   88CHL1    C9 8955   2.463   3.688   7.310 -0.1939 -0.9945  0.3219
   88CHL1    H9 8956   2.455   3.578   7.322  1.7223 -1.2253 -0.0653
   88CHL1   C10 8957   2.464   3.735   7.160 -0.0968  0.5963  0.4424
   88CHL1   C19 8958   2.500   3.879   7.137  0.0928 -0.5217  0.1574
   88CHL1  H19A 8959   2.438   3.952   7.194  1.3640  0.1180  0.7772
   88CHL1  H19B 8960   2.607   3.902   7.156 -0.2965  0.7554  0.9273
   88CHL1  H19C 8961   2.485   3.911   7.032  1.7858 -1.7485 -0.5024
   88CHL1    C1 8962   2.562   3.646   7.081  0.3643  0.3625 -0.3614
   88CHL1   H1A 8963   2.665   3.680   7.108  0.1927  0.0374  0.7738
   88CHL1   H1B 8964   2.557   3.539   7.113 -1.6334  0.9900  1.6546
   88CHL1    C2 8965   2.540   3.634   6.928 -0.5046 -0.3645  0.1728
   88CHL1   H2A 8966   2.611   3.551   6.904  0.9131  0.4319  1.4068
   88CHL1   H2B 8967   2.563   3.723   6.865  0.1778 -0.8349 -0.2595
   88CHL1   C20 8968   2.524   3.808   7.863 -0.1492 -0.8023 -0.3968
   88CHL1   H20 8969   2.491   3.914   7.865  1.9261 -0.1167  1.2475
   88CHL1   C21 8970   2.675   3.794   7.850 -0.2170 -0.3569  0.9061
   88CHL1  H21A 8971   2.691   3.690   7.813  0.4001  0.5064 -1.4328
   88CHL1  H21B 8972   2.729   3.817   7.945  0.4393 -1.0107  0.7094
   88CHL1  H21C 8973   2.714   3.861   7.770  3.2498  0.8232  3.3348
   88CHL1   C22 8974   2.481   3.761   8.008 -0.2897  0.2506  0.4099
   88CHL1  H22A 8975   2.372   3.778   8.001 -0.2272  0.9162  0.9788
   88CHL1  H22B 8976   2.507   3.654   8.022 -0.1232  0.3236  0.6654
   88CHL1   C23 8977   2.536   3.849   8.123 -0.0216  0.0863 -0.0331
   88CHL1  H23A 8978   2.519   3.795   8.219 -1.4511  1.2799  0.4408
   88CHL1  H23B 8979   2.646   3.865   8.121  0.0021  0.2181  1.1137
   88CHL1   C24 8980   2.477   3.991   8.122  0.1865  0.1266  0.2133
   88CHL1  H24A 8981   2.476   4.032   8.019 -0.2305  3.0586  1.2903
   88CHL1  H24B 8982   2.377   3.995   8.171 -0.7610  0.2156 -1.6219
   88CHL1   C25 8983   2.558   4.101   8.205 -0.2780 -0.3564  0.4675
   88CHL1   H25 8984   2.570   4.057   8.306 -0.9811  0.7888  1.0650
   88CHL1   C26 8985   2.697   4.139   8.150 -0.9527 -0.0628 -0.2416
   88CHL1  H26A 8986   2.693   4.208   8.063  2.5501 -0.9321 -1.2478
   88CHL1  H26B 8987   2.744   4.197   8.233  0.8563 -1.5532 -0.1547
   88CHL1  H26C 8988   2.770   4.056   8.140  0.5365  0.8758  1.9692
   88CHL1   C27 8989   2.472   4.230   8.211  0.4069 -0.2315  0.2756
   88CHL1  H27A 8990   2.522   4.305   8.275 -1.4823 -1.1421  2.9954
   88CHL1  H27B 8991   2.446   4.275   8.113 -0.1346 -1.9482 -0.4094
   88CHL1  H27C 8992   2.375   4.203   8.257  0.6903 -1.0242  0.4201
   89CHL1    C3 8993   6.484   4.682   7.097  0.4223 -0.9357  0.8240
   89CHL1    H3 8994   6.446   4.785   7.117 -0.2955 -1.2073  0.8645
   89CHL1    O3 8995   6.465   4.664   6.957 -0.5356  0.6145 -0.2729
   89CHL1   H3' 8996   6.444   4.571   6.947 -0.6877  0.3661  1.7952
   89CHL1    C4 8997   6.637   4.657   7.117  0.4114 -0.5684  0.7528
   89CHL1   H4A 8998   6.652   4.560   7.065 -2.3011 -1.2078  0.9979
   89CHL1   H4B 8999   6.680   4.742   7.060 -1.0595 -1.4139 -1.7791
   89CHL1    C5 9000   6.685   4.647   7.258  0.1390 -0.6361  0.1378
   89CHL1    C6 9001   6.792   4.718   7.299  0.2405 -0.3465 -0.1016
   89CHL1    H6 9002   6.840   4.782   7.224 -0.1161  1.2087  0.9471
   89CHL1    C7 9003   6.830   4.720   7.445 -0.3848  0.4279  0.4383
   89CHL1   H7A 9004   6.940   4.730   7.451 -0.2761 -0.6340  0.3690
   89CHL1   H7B 9005   6.776   4.805   7.493 -1.2975 -0.5254  1.1539
   89CHL1    C8 9006   6.785   4.592   7.516  0.2061 -0.1265  0.3958
   89CHL1    H8 9007   6.829   4.505   7.464 -0.6301 -1.6359  2.1088
   89CHL1   C14 9008   6.820   4.598   7.658 -0.0469 -0.7457  0.1104
   89CHL1   H14 9009   6.768   4.680   7.712  0.6718 -0.4992  0.4252
   89CHL1   C15 9010   6.971   4.626   7.685  0.4291 -0.3670  0.2366
   89CHL1  H15A 9011   7.033   4.567   7.615  0.9334  1.6765 -1.1234
   89CHL1  H15B 9012   6.999   4.733   7.677 -0.0181 -0.2780 -0.1944
   89CHL1   C16 9013   6.989   4.585   7.833 -0.1592  0.4052 -0.2386
   89CHL1  H16A 9014   7.074   4.514   7.837 -0.1324  0.4750  0.5818
   89CHL1  H16B 9015   6.999   4.676   7.896 -0.3101  0.3285 -0.1028
   89CHL1   C17 9016   6.855   4.514   7.877 -0.1689  0.0822  0.4258
   89CHL1   H17 9017   6.785   4.590   7.918  1.2594  0.4855  2.2042
   89CHL1   C13 9018   6.777   4.475   7.741 -0.1072  0.1364  0.4882
   89CHL1   C18 9019   6.843   4.344   7.681  0.8841  0.5443 -0.3286
   89CHL1  H18A 9020   6.818   4.261   7.750 -0.9710  0.1286 -1.4400
   89CHL1  H18B 9021   6.800   4.317   7.582 -1.8260 -0.9221  1.1381
   89CHL1  H18C 9022   6.954   4.356   7.680  1.4832 -3.5596 -0.1324
   89CHL1   C12 9023   6.622   4.471   7.737  0.4232 -0.7471  1.0110
   89CHL1  H12A 9024   6.587   4.374   7.778 -4.2960  0.9699  1.6781
   89CHL1  H12B 9025   6.600   4.553   7.810  1.1528 -1.2523  1.8106
   89CHL1   C11 9026   6.566   4.469   7.596 -0.0225 -0.0516 -0.2762
   89CHL1  H11A 9027   6.597   4.366   7.567  0.0773 -0.6002  1.6678
   89CHL1  H11B 9028   6.456   4.484   7.601 -0.1241 -1.1514  1.8457
   89CHL1    C9 9029   6.629   4.567   7.499 -0.1076 -0.7956 -0.0248
   89CHL1    H9 9030   6.590   4.665   7.533  2.9004  0.3777  0.3569
   89CHL1   C10 9031   6.600   4.553   7.348  0.6482  0.4485  0.3741
   89CHL1   C19 9032   6.607   4.407   7.302 -0.7063  0.5773 -0.0118
   89CHL1  H19A 9033   6.711   4.368   7.296 -1.2789 -0.8081 -2.1376
   89CHL1  H19B 9034   6.552   4.337   7.369  0.0493 -0.1394 -0.1212
   89CHL1  H19C 9035   6.574   4.406   7.196 -0.4175 -0.9406 -0.1096
   89CHL1    C1 9036   6.451   4.595   7.322  0.4333 -0.3078 -0.3443
   89CHL1   H1A 9037   6.384   4.531   7.385  0.6933 -0.4287 -0.1900
   89CHL1   H1B 9038   6.431   4.695   7.368  0.3391 -0.1194 -0.7859
   89CHL1    C2 9039   6.396   4.594   7.176  0.5607 -0.3978 -0.2918
   89CHL1   H2A 9040   6.291   4.627   7.170  0.9643  0.9707 -0.0623
   89CHL1   H2B 9041   6.402   4.491   7.134  0.9259  0.0162 -1.2993
   89CHL1   C20 9042   6.871   4.402   7.978  0.2523  0.1519  0.1905
   89CHL1   H20 9043   6.915   4.318   7.920 -0.0387  0.0355  0.1378
   89CHL1   C21 9044   6.731   4.365   8.039 -0.0989 -0.4527 -0.6253
   89CHL1  H21A 9045   6.657   4.352   7.958 -1.6925  3.8959 -0.0847
   89CHL1  H21B 9046   6.696   4.444   8.108 -1.2619 -0.4256 -1.2277
   89CHL1  H21C 9047   6.735   4.275   8.104  2.0187 -0.8532 -1.2060
   89CHL1   C22 9048   6.973   4.441   8.089  0.2973 -0.4661 -0.4371
   89CHL1  H22A 9049   7.061   4.496   8.051 -0.7763  0.6409 -1.4373
   89CHL1  H22B 9050   6.927   4.521   8.151  0.5767 -0.6084 -0.0451
   89CHL1   C23 9051   6.999   4.321   8.179  0.2002  0.0876  0.2818
   89CHL1  H23A 9052   6.903   4.278   8.212  0.4653  0.1027  1.0972
   89CHL1  H23B 9053   7.060   4.248   8.122 -0.1541 -0.0763  0.1140
   89CHL1   C24 9054   7.081   4.355   8.308 -0.2737 -0.0199  1.1039
   89CHL1  H24A 9055   7.126   4.260   8.343  0.8141  0.6676  1.5996
   89CHL1  H24B 9056   7.160   4.424   8.271 -1.8571  0.3267 -1.9911
   89CHL1   C25 9057   7.005   4.421   8.427 -0.6206 -0.1304  0.0539
   89CHL1   H25 9058   6.961   4.516   8.390  0.5336  0.7312  0.8254
   89CHL1   C26 9059   6.883   4.336   8.474  0.3554  0.0458 -0.2778
   89CHL1  H26A 9060   6.828   4.390   8.554 -0.4028 -0.7589 -0.2483
   89CHL1  H26B 9061   6.812   4.327   8.389 -0.5357  1.7825  0.2285
   89CHL1  H26C 9062   6.913   4.239   8.520 -1.3509 -0.9661 -1.2180
   89CHL1   C27 9063   7.098   4.458   8.543 -0.1104  0.6462  0.3253
   89CHL1  H27A 9064   7.178   4.532   8.525  0.4006 -0.5677 -3.3250
   89CHL1  H27B 9065   7.031   4.487   8.627 -1.2347  0.6541 -0.5459
   89CHL1  H27C 9066   7.138   4.364   8.587 -0.3419  1.3161  2.0627
   90CHL1    C3 9067   4.208   1.094   6.876 -1.0496 -0.3232  0.5140
   90CHL1    H3 9068   4.220   0.988   6.909 -0.3524 -0.0408  1.1922
   90CHL1    O3 9069   4.203   1.095   6.729 -0.1744  1.0521 -0.0305
   90CHL1   H3' 9070   4.168   1.008   6.709  2.9744 -0.4872  0.4960
   90CHL1    C4 9071   4.072   1.145   6.917 -0.5173 -0.3740 -0.4262
   90CHL1   H4A 9072   4.060   1.239   6.859  2.8894  0.3866 -0.1111
   90CHL1   H4B 9073   3.995   1.078   6.872  1.0098 -1.6750 -1.2142
   90CHL1    C5 9074   4.054   1.168   7.065  0.4577  0.2966 -0.2431
   90CHL1    C6 9075   3.947   1.115   7.125  0.2100 -0.8711  0.4477
   90CHL1    H6 9076   3.869   1.063   7.068 -0.8805  0.3996  0.7358
   90CHL1    C7 9077   3.920   1.126   7.269 -0.0722  0.6063 -0.3216
   90CHL1   H7A 9078   3.812   1.152   7.274 -0.3612  1.1470 -4.8976
   90CHL1   H7B 9079   3.926   1.027   7.319 -4.4433 -0.5373 -1.6110
   90CHL1    C8 9080   4.015   1.228   7.341 -0.4162  0.2047 -0.7731
   90CHL1    H8 9081   3.969   1.325   7.313  0.2021  0.0872 -2.3387
   90CHL1   C14 9082   4.023   1.204   7.492  0.5226 -0.6094 -0.4887
   90CHL1   H14 9083   4.065   1.102   7.502  1.5416 -0.1693 -0.2044
   90CHL1   C15 9084   3.895   1.194   7.576 -0.2282 -0.2356  0.4846
   90CHL1  H15A 9085   3.829   1.276   7.541  2.3326  1.5125 -0.4666
   90CHL1  H15B 9086   3.837   1.102   7.553  0.2236 -0.3776 -0.1062
   90CHL1   C16 9087   3.936   1.216   7.724  0.1664  0.0442 -0.3540
   90CHL1  H16A 9088   3.868   1.294   7.766  0.8284  0.5158 -0.1363
   90CHL1  H16B 9089   3.920   1.122   7.782 -2.2097  1.4433  1.4865
   90CHL1   C17 9090   4.091   1.250   7.718 -0.3448  0.1723 -0.5695
   90CHL1   H17 9091   4.142   1.156   7.747  2.1241  2.0983  2.0231
   90CHL1   C13 9092   4.114   1.289   7.578 -0.1389 -0.4928  0.6116
   90CHL1   C18 9093   4.071   1.431   7.554 -1.0322 -0.0496 -0.1992
   90CHL1  H18A 9094   4.138   1.501   7.609 -0.3634 -1.8051  1.2978
   90CHL1  H18B 9095   4.077   1.463   7.448  1.4846 -0.2981 -0.1985
   90CHL1  H18C 9096   3.970   1.449   7.596 -1.2373 -1.3750 -0.1135
   90CHL1   C12 9097   4.254   1.261   7.519  0.1318  0.2091 -0.0741
   90CHL1  H12A 9098   4.328   1.325   7.572  0.0044  0.6442 -0.4124
   90CHL1  H12B 9099   4.282   1.154   7.531  0.7724  0.2522 -1.0238
   90CHL1   C11 9100   4.266   1.286   7.372  0.4192  0.0413  0.0767
   90CHL1  H11A 9101   4.257   1.396   7.363  4.0809  0.3409 -1.6163
   90CHL1  H11B 9102   4.367   1.262   7.333 -0.0251 -0.5831 -0.7359
   90CHL1    C9 9103   4.158   1.211   7.289 -0.0456  0.0438  0.2857
   90CHL1    H9 9104   4.186   1.104   7.300 -0.3051 -0.2228 -1.3382
   90CHL1   C10 9105   4.166   1.238   7.134  0.2294 -0.0597 -0.2231
   90CHL1   C19 9106   4.143   1.393   7.115 -0.0033  0.1891 -1.1553
   90CHL1  H19A 9107   4.229   1.447   7.161 -1.1726 -0.4370  2.0548
   90CHL1  H19B 9108   4.138   1.426   7.009 -2.8548  0.7306 -0.9327
   90CHL1  H19C 9109   4.050   1.434   7.159  0.4315  1.5742 -1.4749
   90CHL1    C1 9110   4.306   1.183   7.085  1.1584  0.3639  0.0211
   90CHL1   H1A 9111   4.392   1.238   7.128 -0.5045  0.5061  3.4842
   90CHL1   H1B 9112   4.322   1.080   7.124 -0.5934 -0.7250 -1.9373
   90CHL1    C2 9113   4.325   1.177   6.927  0.2555 -0.4601  0.0051
   90CHL1   H2A 9114   4.428   1.141   6.911  0.4757 -0.4375  1.2987
   90CHL1   H2B 9115   4.326   1.277   6.877  1.8595 -0.9803 -1.0627
   90CHL1   C20 9116   4.128   1.353   7.830 -0.2159 -1.1875  0.3359
   90CHL1   H20 9117   4.077   1.451   7.817  1.5362  0.0231  1.9851
   90CHL1   C21 9118   4.280   1.406   7.821 -0.0566  0.3297  0.1753
   90CHL1  H21A 9119   4.347   1.323   7.787 -1.4831 -0.6188 -0.4350
   90CHL1  H21B 9120   4.303   1.438   7.924 -0.7404  1.6412 -0.0614
   90CHL1  H21C 9121   4.291   1.497   7.759 -1.4944  0.0626 -0.5127
   90CHL1   C22 9122   4.095   1.329   7.981  0.3196 -0.1069  0.6092
   90CHL1  H22A 9123   4.140   1.420   8.025 -0.0067  1.1907 -1.5938
   90CHL1  H22B 9124   3.988   1.341   8.008  0.5447  2.7129  0.5530
   90CHL1   C23 9125   4.152   1.209   8.053  0.1351 -0.0355 -0.0987
   90CHL1  H23A 9126   4.093   1.122   8.015  0.4709  1.1011 -3.5362
   90CHL1  H23B 9127   4.255   1.190   8.018  0.2100  0.2648 -0.0403
   90CHL1   C24 9128   4.143   1.206   8.210  0.4942 -0.7864  0.7902
   90CHL1  H24A 9129   4.177   1.303   8.251 -1.6688 -0.7055  2.5807
   90CHL1  H24B 9130   4.038   1.190   8.244  0.1773  2.2201  1.4256
   90CHL1   C25 9131   4.228   1.091   8.279  0.1347  0.0842 -0.1528
   90CHL1   H25 9132   4.221   0.994   8.224 -1.8789 -0.5852  1.1598
   90CHL1   C26 9133   4.383   1.115   8.276  0.0503  0.5997 -0.3937
   90CHL1  H26A 9134   4.403   1.212   8.326  2.1724 -0.3506  0.7487
   90CHL1  H26B 9135   4.443   1.038   8.329  1.0684  1.7020  0.1037
   90CHL1  H26C 9136   4.422   1.119   8.172 -1.1700  5.2819 -0.9004
   90CHL1   C27 9137   4.180   1.073   8.429  0.2767  0.1289  0.3795
   90CHL1  H27A 9138   4.207   1.154   8.499  2.2221 -1.8226  1.9936
   90CHL1  H27B 9139   4.068   1.072   8.426  0.2257  0.0962  1.7761
   90CHL1  H27C 9140   4.229   0.983   8.472  0.2339 -1.4355 -2.5287
   91CHL1    C3 9141   6.134   1.757   7.354  0.6345  0.3778  0.3166
   91CHL1    H3 9142   6.215   1.822   7.391  0.1155  0.3339  1.5944
   91CHL1    O3 9143   6.127   1.773   7.213 -0.0493 -0.7563 -0.0309
   91CHL1   H3' 9144   6.044   1.732   7.186 -0.2684 -0.1383 -0.3412
   91CHL1    C4 9145   6.159   1.608   7.394 -0.5238 -0.2976 -0.2753
   91CHL1   H4A 9146   6.074   1.550   7.354 -0.5197 -1.4468  1.2773
   91CHL1   H4B 9147   6.253   1.585   7.338 -0.7614  0.7129 -1.1208
   91CHL1    C5 9148   6.183   1.594   7.548 -0.2754  0.0115 -0.2126
   91CHL1    C6 9149   6.299   1.555   7.597 -0.0241 -0.0362 -0.5366
   91CHL1    H6 9150   6.389   1.540   7.535  0.3505 -1.9188  0.3879
   91CHL1    C7 9151   6.331   1.536   7.737 -0.3166  0.4663  1.0936
   91CHL1   H7A 9152   6.388   1.441   7.752 -0.7988 -0.1861 -0.9737
   91CHL1   H7B 9153   6.388   1.623   7.775  1.0942  1.0116 -2.0423
   91CHL1    C8 9154   6.194   1.539   7.825  0.1142  0.1772  0.1842
   91CHL1    H8 9155   6.144   1.440   7.818  2.6440 -1.1733 -0.2823
   91CHL1   C14 9156   6.229   1.570   7.971  0.2594  0.2684 -0.0902
   91CHL1   H14 9157   6.261   1.677   7.970 -0.8636  0.6951  2.2152
   91CHL1   C15 9158   6.343   1.500   8.031 -0.1878  0.0640  0.6707
   91CHL1  H15A 9159   6.332   1.393   8.006  0.9315  0.1096 -0.1037
   91CHL1  H15B 9160   6.443   1.534   7.996  2.8780 -4.8240  3.4984
   91CHL1   C16 9161   6.326   1.536   8.176 -0.7829  0.5910  0.2634
   91CHL1  H16A 9162   6.314   1.436   8.223  0.0189 -0.0713 -0.8791
   91CHL1  H16B 9163   6.413   1.588   8.221  0.1016 -1.0375  0.5132
   91CHL1   C17 9164   6.187   1.613   8.194  0.4348 -0.1870  0.5054
   91CHL1   H17 9165   6.215   1.720   8.188  0.7798 -0.3235 -0.6834
   91CHL1   C13 9166   6.111   1.579   8.063  0.0977  0.4588 -1.1889
   91CHL1   C18 9167   6.054   1.433   8.083 -0.0684 -0.6407  0.2343
   91CHL1  H18A 9168   5.964   1.445   8.146  1.5433  1.0420  2.3685
   91CHL1  H18B 9169   6.034   1.402   7.978  0.1770  2.0951 -0.7095
   91CHL1  H18C 9170   6.119   1.360   8.135 -0.0044  0.8796  2.4084
   91CHL1   C12 9171   6.001   1.680   8.011 -0.2132 -0.5716  0.1126
   91CHL1  H12A 9172   5.903   1.676   8.063  0.5852  0.9804  1.8118
   91CHL1  H12B 9173   6.041   1.783   8.015 -0.4612 -0.4108 -1.0727
   91CHL1   C11 9174   5.965   1.658   7.864  0.6874  0.6987  1.1465
   91CHL1  H11A 9175   5.908   1.564   7.849  3.1747 -1.1461  2.3742
   91CHL1  H11B 9176   5.894   1.734   7.825  2.6603  1.1713 -1.9400
   91CHL1    C9 9177   6.097   1.648   7.776  0.0510 -0.1017 -0.1074
   91CHL1    H9 9178   6.155   1.743   7.781 -1.0816  0.6166 -0.2420
   91CHL1   C10 9179   6.054   1.632   7.623 -0.3421 -0.4876  0.1811
   91CHL1   C19 9180   5.943   1.537   7.606 -0.2811 -0.4311 -0.3997
   91CHL1  H19A 9181   5.930   1.519   7.497 -1.0146  3.1494 -1.0228
   91CHL1  H19B 9182   5.966   1.439   7.652 -0.0819 -0.3701 -0.3676
   91CHL1  H19C 9183   5.851   1.585   7.643  0.5022  2.1597 -1.5539
   91CHL1    C1 9184   6.018   1.782   7.577 -0.5013  0.2859 -0.1288
   91CHL1   H1A 9185   5.925   1.818   7.626  0.1004 -0.3666  1.5888
   91CHL1   H1B 9186   6.099   1.846   7.618 -0.0631  0.4979 -1.3040
   91CHL1    C2 9187   6.002   1.806   7.425  0.5374 -0.1003 -0.4184
   91CHL1   H2A 9188   5.990   1.915   7.406 -1.3385 -0.3296 -0.7621
   91CHL1   H2B 9189   5.915   1.757   7.377  0.9977 -1.5706  0.2026
   91CHL1   C20 9190   6.110   1.611   8.333  0.2075 -0.1063  0.6243
   91CHL1   H20 9191   6.072   1.507   8.342  1.0206 -0.4877 -0.1915
   91CHL1   C21 9192   5.992   1.706   8.326  0.0105  0.0293 -0.0219
   91CHL1  H21A 9193   6.023   1.802   8.279 -1.9355  0.1355 -1.1967
   91CHL1  H21B 9194   5.947   1.723   8.426 -0.5953 -0.1876 -0.2548
   91CHL1  H21C 9195   5.907   1.671   8.264  0.1482  1.7525 -1.2352
   91CHL1   C22 9196   6.201   1.633   8.456  0.3733 -0.3903  0.9355
   91CHL1  H22A 9197   6.279   1.555   8.464  1.4223  0.7477  2.4722
   91CHL1  H22B 9198   6.252   1.731   8.440 -1.2656  0.3454 -0.0642
   91CHL1   C23 9199   6.121   1.631   8.594 -0.0556  0.2098  0.4270
   91CHL1  H23A 9200   6.048   1.712   8.612  1.8765  2.2790 -0.5971
   91CHL1  H23B 9201   6.066   1.535   8.609 -2.7500  2.0108  3.3009
   91CHL1   C24 9202   6.220   1.645   8.713 -0.7995  0.0395  0.1645
   91CHL1  H24A 9203   6.282   1.553   8.711 -1.2711 -0.2706 -1.5625
   91CHL1  H24B 9204   6.279   1.738   8.698 -0.6673  0.2356  1.7279
   91CHL1   C25 9205   6.163   1.668   8.851 -0.5565 -0.3658 -0.4339
   91CHL1   H25 9206   6.117   1.769   8.839  1.6935  0.5576 -1.9050
   91CHL1   C26 9207   6.061   1.565   8.891  0.1091  0.0726  0.1041
   91CHL1  H26A 9208   5.974   1.562   8.822  0.7223  0.4735 -0.7108
   91CHL1  H26B 9209   6.108   1.466   8.905  1.3468  0.3844 -1.4728
   91CHL1  H26C 9210   6.030   1.604   8.990 -0.7005  1.2691 -0.5909
   91CHL1   C27 9211   6.281   1.673   8.950 -0.5195  0.0712 -0.1441
   91CHL1  H27A 9212   6.307   1.566   8.968  0.0277 -0.2667 -2.6107
   91CHL1  H27B 9213   6.376   1.720   8.917 -0.2071 -0.5189 -0.0974
   91CHL1  H27C 9214   6.250   1.699   9.054 -1.6047 -1.9372  0.0908
   92CHL1    C3 9215   3.600   4.470   6.694 -0.0088  0.0510 -0.3987
   92CHL1    H3 9216   3.704   4.499   6.718 -0.1691 -0.3192  0.8089
   92CHL1    O3 9217   3.586   4.477   6.555 -0.5212  0.6046  0.0275
   92CHL1   H3' 9218   3.662   4.431   6.520 -2.0606 -2.5384  0.4504
   92CHL1    C4 9219   3.583   4.336   6.751 -0.9343 -0.0730  0.6125
   92CHL1   H4A 9220   3.487   4.293   6.716  0.4847 -2.5868 -0.5077
   92CHL1   H4B 9221   3.666   4.274   6.711 -2.7193 -2.8415  0.9465
   92CHL1    C5 9222   3.588   4.335   6.899  0.1767 -0.0685  0.0563
   92CHL1    C6 9223   3.677   4.253   6.964 -0.2798  0.1659  0.7269
   92CHL1    H6 9224   3.755   4.196   6.910 -0.5979  0.5444 -0.1526
   92CHL1    C7 9225   3.686   4.242   7.112  0.2824  0.2478  0.3353
   92CHL1   H7A 9226   3.706   4.138   7.146  2.2103  0.5556  0.2418
   92CHL1   H7B 9227   3.771   4.297   7.158 -1.1345  2.0478  0.9255
   92CHL1    C8 9228   3.557   4.309   7.179 -0.0231  1.2265  0.3630
   92CHL1    H8 9229   3.468   4.243   7.172  2.2885 -2.0654 -0.1652
   92CHL1   C14 9230   3.570   4.326   7.326  0.3257  0.0333 -0.0939
   92CHL1   H14 9231   3.653   4.398   7.338  0.0573  0.5691 -1.3410
   92CHL1   C15 9232   3.607   4.198   7.403  0.6912 -0.3511 -0.2473
   92CHL1  H15A 9233   3.526   4.122   7.394  0.8425 -0.5524  0.0759
   92CHL1  H15B 9234   3.708   4.162   7.373  1.7437  2.9704 -1.1217
   92CHL1   C16 9235   3.598   4.250   7.544 -0.2139  0.2358  0.0907
   92CHL1  H16A 9236   3.535   4.183   7.606 -0.1263  0.7814  0.7653
   92CHL1  H16B 9237   3.695   4.257   7.597  0.0716  0.3029 -0.4355
   92CHL1   C17 9238   3.532   4.391   7.556 -0.1479  0.3762  1.2518
   92CHL1   H17 9239   3.616   4.463   7.550  0.4808 -0.4014  0.4996
   92CHL1   C13 9240   3.463   4.403   7.413  0.3039 -0.2525 -0.1578
   92CHL1   C18 9241   3.331   4.330   7.418  0.1250 -0.0163 -0.3983
   92CHL1  H18A 9242   3.254   4.378   7.482  2.9184  3.1074  0.9111
   92CHL1  H18B 9243   3.287   4.347   7.317  0.0276  3.5140  0.1363
   92CHL1  H18C 9244   3.345   4.223   7.443 -0.3478  0.1177  0.4819
   92CHL1   C12 9245   3.455   4.541   7.357 -0.0649 -0.4772  0.3634
   92CHL1  H12A 9246   3.363   4.592   7.393  0.7892  1.5162 -0.1019
   92CHL1  H12B 9247   3.537   4.615   7.369  2.4181 -2.6797 -1.7374
   92CHL1   C11 9248   3.435   4.531   7.197 -0.3767  0.5024  0.4030
   92CHL1  H11A 9249   3.332   4.490   7.191  0.1137 -0.8145  0.6014
   92CHL1  H11B 9250   3.440   4.637   7.164 -0.0791  0.5501  0.5978
   92CHL1    C9 9251   3.536   4.444   7.122 -0.2193  0.6177  0.3977
   92CHL1    H9 9252   3.636   4.493   7.121 -0.2897  0.8380 -1.9422
   92CHL1   C10 9253   3.498   4.440   6.969  0.1077  0.1049  0.1159
   92CHL1   C19 9254   3.352   4.396   6.953  0.0242 -0.3059 -0.7897
   92CHL1  H19A 9255   3.326   4.376   6.846  1.7115 -1.8352 -0.9549
   92CHL1  H19B 9256   3.332   4.295   6.995 -3.3859 -1.2758 -4.1266
   92CHL1  H19C 9257   3.281   4.466   7.001 -0.5789 -1.3873 -0.0755
   92CHL1    C1 9258   3.521   4.579   6.903 -0.3449 -0.2617 -0.5925
   92CHL1   H1A 9259   3.448   4.655   6.939  0.8735 -0.0581  1.5735
   92CHL1   H1B 9260   3.619   4.609   6.945 -0.6867 -0.7108  0.5386
   92CHL1    C2 9261   3.515   4.581   6.750 -0.9232  0.2172  0.3052
   92CHL1   H2A 9262   3.557   4.675   6.708  0.0407 -0.5592 -0.5525
   92CHL1   H2B 9263   3.410   4.556   6.724 -1.1447  1.0500  0.3820
   92CHL1   C20 9264   3.444   4.408   7.683 -0.2289 -0.0678  0.1119
   92CHL1   H20 9265   3.358   4.338   7.681  0.8032 -1.4019  1.0403
   92CHL1   C21 9266   3.398   4.552   7.695  0.3931  0.5914  0.1495
   92CHL1  H21A 9267   3.329   4.559   7.782  1.8644  1.4657  1.3038
   92CHL1  H21B 9268   3.345   4.583   7.602  2.9545  1.4632 -1.1268
   92CHL1  H21C 9269   3.486   4.619   7.708  0.3921  0.9606 -1.5067
   92CHL1   C22 9270   3.518   4.372   7.815 -0.3238 -0.5069  0.4072
   92CHL1  H22A 9271   3.578   4.283   7.790 -0.6417 -0.2289 -1.4610
   92CHL1  H22B 9272   3.596   4.449   7.836 -0.3382  0.0169 -1.2944
   92CHL1   C23 9273   3.431   4.344   7.936  0.2680 -0.0399  0.4151
   92CHL1  H23A 9274   3.341   4.410   7.941 -1.8008 -2.6931  0.5992
   92CHL1  H23B 9275   3.403   4.237   7.936  1.4826 -0.3974 -1.7282
   92CHL1   C24 9276   3.513   4.360   8.065 -0.2343  0.0540  0.1551
   92CHL1  H24A 9277   3.613   4.315   8.049  0.9120  2.0016  1.4020
   92CHL1  H24B 9278   3.523   4.468   8.090 -1.1184  0.9293 -2.8441
   92CHL1   C25 9279   3.435   4.301   8.189 -0.7148  0.9406  0.3411
   92CHL1   H25 9280   3.328   4.309   8.161 -0.4950  1.2278 -0.4463
   92CHL1   C26 9281   3.471   4.157   8.209 -0.4520  0.1010  0.6007
   92CHL1  H26A 9282   3.412   4.109   8.290  2.0327 -2.5695  0.9746
   92CHL1  H26B 9283   3.460   4.099   8.114  1.2868  1.1271 -0.2686
   92CHL1  H26C 9284   3.568   4.141   8.260 -0.5519  0.2750  0.8470
   92CHL1   C27 9285   3.459   4.383   8.312  0.8550  0.3298  0.3650
   92CHL1  H27A 9286   3.402   4.342   8.398 -0.5819  2.6437  0.6115
   92CHL1  H27B 9287   3.567   4.371   8.333  0.8370 -0.6688 -0.0619
   92CHL1  H27C 9288   3.425   4.487   8.295 -1.8503 -0.4208  0.7617
   93CHL1    C3 9289   1.789   6.654   6.730 -0.2753  0.3116 -0.8290
   93CHL1    H3 9290   1.728   6.583   6.791 -0.1171  1.3022  0.5376
   93CHL1    O3 9291   1.839   6.605   6.606 -0.0836 -0.4742  0.2556
   93CHL1   H3' 9292   1.874   6.681   6.557  1.1611  0.4564  2.4352
   93CHL1    C4 9293   1.708   6.777   6.693 -0.1262 -0.3965 -0.2582
   93CHL1   H4A 9294   1.759   6.853   6.631 -1.1957  2.6438  2.3254
   93CHL1   H4B 9295   1.615   6.727   6.655 -2.1746 -0.5895  4.3348
   93CHL1    C5 9296   1.658   6.842   6.820 -0.2063 -0.6960  0.3113
   93CHL1    C6 9297   1.528   6.878   6.828  0.8439 -0.1420  0.6935
   93CHL1    H6 9298   1.467   6.858   6.739 -0.4172 -0.6663  1.6486
   93CHL1    C7 9299   1.459   6.955   6.942  0.1287  0.0579 -1.1963
   93CHL1   H7A 9300   1.408   7.046   6.904  0.0862  0.6201  0.1699
   93CHL1   H7B 9301   1.387   6.892   6.999 -0.8652  2.6449  0.5970
   93CHL1    C8 9302   1.571   7.002   7.046 -0.0782 -0.3114  0.0803
   93CHL1    H8 9303   1.598   7.105   7.014  2.0619 -0.7733  0.2728
   93CHL1   C14 9304   1.507   7.016   7.185 -1.0385  0.2095  0.3039
   93CHL1   H14 9305   1.487   6.911   7.215 -0.3192  0.6879  2.7135
   93CHL1   C15 9306   1.379   7.105   7.188 -0.4164  0.2255  0.5435
   93CHL1  H15A 9307   1.387   7.192   7.119  1.1469 -0.3868 -0.0956
   93CHL1  H15B 9308   1.290   7.042   7.170 -0.3883 -0.2586  2.0160
   93CHL1   C16 9309   1.373   7.153   7.333 -0.7985 -0.1760 -0.4125
   93CHL1  H16A 9310   1.367   7.264   7.331  2.8314  0.1773  0.2564
   93CHL1  H16B 9311   1.293   7.104   7.392 -0.1133  1.8781  2.4097
   93CHL1   C17 9312   1.502   7.099   7.404  0.3814 -0.4693 -0.7261
   93CHL1   H17 9313   1.485   6.998   7.448 -0.5513 -0.8594 -1.9054
   93CHL1   C13 9314   1.605   7.077   7.294  0.2584 -0.3978  0.7067
   93CHL1   C18 9315   1.668   7.212   7.261 -0.5097 -0.1797  0.5704
   93CHL1  H18A 9316   1.712   7.212   7.159 -2.8100  1.1583 -0.5159
   93CHL1  H18B 9317   1.593   7.294   7.256 -0.2036  0.1930  1.7222
   93CHL1  H18C 9318   1.744   7.253   7.331 -0.7058  0.7896  0.2324
   93CHL1   C12 9319   1.720   6.974   7.308  0.0744 -0.4094  0.3291
   93CHL1  H12A 9320   1.795   7.023   7.374  0.1604  0.9806 -0.7566
   93CHL1  H12B 9321   1.675   6.880   7.347 -0.7171 -0.3890 -0.5189
   93CHL1   C11 9322   1.793   6.947   7.174 -0.2248  0.0417 -0.4772
   93CHL1  H11A 9323   1.857   7.036   7.156  0.7226 -0.2837  1.0882
   93CHL1  H11B 9324   1.862   6.864   7.200 -0.4370 -0.8848 -2.6918
   93CHL1    C9 9325   1.693   6.907   7.057  0.0636 -0.5936 -0.2881
   93CHL1    H9 9326   1.653   6.814   7.102 -1.3386  0.6198  1.0958
   93CHL1   C10 9327   1.765   6.870   6.930 -0.3887 -0.7805 -0.1442
   93CHL1   C19 9328   1.844   6.999   6.879 -0.1185  0.2703  0.8809
   93CHL1  H19A 9329   1.936   7.015   6.939  0.1094 -2.6790  1.4561
   93CHL1  H19B 9330   1.882   6.973   6.778 -1.1123 -2.3213  1.1026
   93CHL1  H19C 9331   1.781   7.090   6.876 -1.4224 -0.6236 -1.6155
   93CHL1    C1 9332   1.861   6.753   6.952 -0.0192  0.5297  0.1634
   93CHL1   H1A 9333   1.948   6.779   7.015  0.5942 -1.5577  0.2401
   93CHL1   H1B 9334   1.808   6.666   6.997 -2.2216  1.9965  0.5936
   93CHL1    C2 9335   1.908   6.699   6.814  0.2759 -0.5272  0.2317
   93CHL1   H2A 9336   1.983   6.619   6.834  1.3106  0.4721  0.4958
   93CHL1   H2B 9337   1.966   6.776   6.758 -0.2060  0.1647  0.6639
   93CHL1   C20 9338   1.539   7.183   7.529 -0.3044  0.2771 -0.4328
   93CHL1   H20 9339   1.560   7.283   7.487 -0.4724  0.9766  1.1011
   93CHL1   C21 9340   1.650   7.120   7.614  0.0258  0.3377  0.0678
   93CHL1  H21A 9341   1.735   7.097   7.546  0.9788  0.7930  1.0664
   93CHL1  H21B 9342   1.627   7.037   7.684 -0.9414  1.1084  0.6939
   93CHL1  H21C 9343   1.701   7.200   7.672  2.0170 -1.4383  0.8818
   93CHL1   C22 9344   1.423   7.219   7.632  0.8485 -0.0403  0.2670
   93CHL1  H22A 9345   1.461   7.303   7.692  4.3514 -0.5217 -1.0629
   93CHL1  H22B 9346   1.348   7.268   7.566  0.2631  1.1161  1.7447
   93CHL1   C23 9347   1.355   7.110   7.721  0.2026 -0.6394 -0.6260
   93CHL1  H23A 9348   1.303   7.032   7.661 -2.1448 -1.1994  1.9512
   93CHL1  H23B 9349   1.434   7.066   7.785 -1.9410 -0.6241  2.2192
   93CHL1   C24 9350   1.242   7.167   7.811  0.3636 -0.5511 -0.0420
   93CHL1  H24A 9351   1.287   7.232   7.889 -1.7357  0.8196  0.0992
   93CHL1  H24B 9352   1.159   7.219   7.759 -0.2291 -1.3864  0.0399
   93CHL1   C25 9353   1.169   7.053   7.882  0.0933  0.0820  0.2236
   93CHL1   H25 9354   1.124   6.983   7.809 -0.4497 -0.8570  1.4249
   93CHL1   C26 9355   1.259   6.971   7.974 -0.1494 -1.0331 -0.2112
   93CHL1  H26A 9356   1.294   7.019   8.068 -1.8828 -1.0096  0.4597
   93CHL1  H26B 9357   1.199   6.882   8.001 -0.7500 -0.9408 -1.1763
   93CHL1  H26C 9358   1.349   6.936   7.919  1.5659  1.3912  0.8992
   93CHL1   C27 9359   1.052   7.123   7.964 -0.5748  0.2021 -0.0659
   93CHL1  H27A 9360   1.021   7.053   8.045  2.6156 -2.7415 -1.1604
   93CHL1  H27B 9361   1.083   7.222   8.002  0.5953  0.7624 -2.3509
   93CHL1  H27C 9362   0.974   7.145   7.888 -1.2239 -0.3647  0.4172
   94CHL1    C3 9363   3.933   3.749   6.932 -0.1805 -0.4405  0.2111
   94CHL1    H3 9364   4.005   3.833   6.928 -1.8265  0.9810 -2.9819
   94CHL1    O3 9365   3.913   3.692   6.803  0.3518 -0.7968 -0.7652
   94CHL1   H3' 9366   3.826   3.651   6.805 -0.8594  1.5996  0.9900
   94CHL1    C4 9367   3.971   3.632   7.025  0.2283  0.2265  0.6814
   94CHL1   H4A 9368   3.894   3.555   7.003 -0.0755  1.2295 -2.1775
   94CHL1   H4B 9369   4.063   3.583   6.988  0.1719  0.6757 -0.0601
   94CHL1    C5 9370   3.966   3.670   7.172 -0.5118  1.0479  0.6429
   94CHL1    C6 9371   4.070   3.642   7.254  0.2823  0.5613  0.3511
   94CHL1    H6 9372   4.159   3.603   7.203  0.5955  0.3222  1.0742
   94CHL1    C7 9373   4.072   3.663   7.400  0.7893 -0.2684 -0.1237
   94CHL1   H7A 9374   4.101   3.565   7.443  5.4813  0.3994 -1.2529
   94CHL1   H7B 9375   4.141   3.747   7.427 -0.5502  1.1122 -0.8298
   94CHL1    C8 9376   3.931   3.714   7.454 -0.2031 -0.1234  0.1490
   94CHL1    H8 9377   3.871   3.620   7.459 -0.0137 -0.3156 -0.9223
   94CHL1   C14 9378   3.941   3.781   7.591 -0.0152 -0.1437  1.0003
   94CHL1   H14 9379   3.981   3.880   7.560  0.3654 -0.7483 -0.5144
   94CHL1   C15 9380   4.041   3.717   7.690  0.3229 -0.3780  0.7193
   94CHL1  H15A 9381   4.024   3.607   7.692 -1.6625 -0.0983  0.9702
   94CHL1  H15B 9382   4.145   3.739   7.658 -0.2735  0.8072 -0.4927
   94CHL1   C16 9383   4.010   3.783   7.828  0.0138  0.6599  0.0929
   94CHL1  H16A 9384   3.980   3.699   7.894 -2.3129  2.0305  0.9364
   94CHL1  H16B 9385   4.080   3.850   7.882  0.9086 -0.0177 -0.2125
   94CHL1   C17 9386   3.879   3.864   7.797 -0.9777  0.1553 -0.0588
   94CHL1   H17 9387   3.910   3.970   7.783 -0.5712  0.5142  2.8714
   94CHL1   C13 9388   3.815   3.813   7.667  0.1358 -0.4701  0.2033
   94CHL1   C18 9389   3.752   3.687   7.689 -0.4229 -0.9865  0.2310
   94CHL1  H18A 9390   3.811   3.613   7.747  1.8912 -0.8069 -1.7674
   94CHL1  H18B 9391   3.654   3.698   7.741  0.8536  0.5200  2.4668
   94CHL1  H18C 9392   3.719   3.647   7.590 -2.9875  2.6173 -0.5731
   94CHL1   C12 9393   3.730   3.914   7.579 -0.8770  0.4756  0.2480
   94CHL1  H12A 9394   3.625   3.925   7.614 -0.2140  0.3462  2.4073
   94CHL1  H12B 9395   3.778   4.014   7.592 -1.2706  0.8182 -0.7968
   94CHL1   C11 9396   3.720   3.862   7.435 -0.3176 -0.6912 -0.2770
   94CHL1  H11A 9397   3.648   3.778   7.437  0.6366 -1.5287 -0.4371
   94CHL1  H11B 9398   3.685   3.950   7.378  5.9901  1.3148 -1.9325
   94CHL1    C9 9399   3.848   3.808   7.365 -0.5121 -0.0893 -0.0778
   94CHL1    H9 9400   3.918   3.893   7.347  0.5813 -1.0839 -0.6997
   94CHL1   C10 9401   3.841   3.748   7.218 -1.1183  0.3179  0.2391
   94CHL1   C19 9402   3.722   3.656   7.235  0.2076  0.1695  0.2775
   94CHL1  H19A 9403   3.627   3.713   7.229  0.2659  0.1740 -0.6798
   94CHL1  H19B 9404   3.713   3.593   7.144 -1.1208  1.0132 -0.1955
   94CHL1  H19C 9405   3.734   3.575   7.311  0.1749  0.3977  0.5260
   94CHL1    C1 9406   3.808   3.863   7.123  0.1609  0.4178 -0.0735
   94CHL1   H1A 9407   3.722   3.926   7.154  1.2387  1.5273  0.7592
   94CHL1   H1B 9408   3.896   3.930   7.127 -0.0957  0.7493  0.1023
   94CHL1    C2 9409   3.795   3.819   6.971  0.2954  0.4893 -0.1457
   94CHL1   H2A 9410   3.786   3.910   6.909  2.1584  0.0746 -1.0754
   94CHL1   H2B 9411   3.712   3.745   6.963  0.1243  0.5827  0.6476
   94CHL1   C20 9412   3.793   3.879   7.924 -0.1815 -0.4334  0.2693
   94CHL1   H20 9413   3.769   3.782   7.972  1.8924 -0.7586  0.7364
   94CHL1   C21 9414   3.659   3.953   7.890  0.0783  0.6383  0.0639
   94CHL1  H21A 9415   3.612   3.985   7.986 -1.5949 -2.1263  0.2869
   94CHL1  H21B 9416   3.588   3.881   7.845  0.9065 -2.8558  3.7204
   94CHL1  H21C 9417   3.680   4.044   7.830  1.8173 -0.1590 -0.6060
   94CHL1   C22 9418   3.877   3.969   8.029  0.3353 -0.1889  0.1388
   94CHL1  H22A 9419   3.975   3.916   8.033  0.7094  0.5309  0.8177
   94CHL1  H22B 9420   3.885   4.074   7.995  1.5901 -0.4187 -0.3464
   94CHL1   C23 9421   3.823   3.963   8.176  0.9625 -0.2674  0.2464
   94CHL1  H23A 9422   3.725   4.015   8.172 -0.0117 -2.0215  0.5425
   94CHL1  H23B 9423   3.796   3.858   8.200  0.5769 -0.2557 -0.1345
   94CHL1   C24 9424   3.923   4.018   8.284 -0.3295 -0.1674 -0.2238
   94CHL1  H24A 9425   4.021   3.966   8.285 -0.1060 -0.0226  4.1008
   94CHL1  H24B 9426   3.942   4.127   8.271 -2.1593  0.3090  0.7112
   94CHL1   C25 9427   3.888   3.988   8.431 -0.7303 -0.4929 -0.4114
   94CHL1   H25 9428   3.779   3.994   8.452 -0.5080 -3.0728  2.0835
   94CHL1   C26 9429   3.936   3.840   8.466 -0.7628 -0.2698  0.7613
   94CHL1  H26A 9430   4.037   3.822   8.423 -2.0548 -1.8588 -1.9151
   94CHL1  H26B 9431   3.930   3.826   8.576 -3.1346  0.6361  0.8166
   94CHL1  H26C 9432   3.874   3.759   8.422 -0.4173 -0.2316  0.1959
   94CHL1   C27 9433   3.955   4.095   8.515  0.0813  0.0257 -0.5227
   94CHL1  H27A 9434   3.941   4.199   8.480  0.6874  1.0703  2.1817
   94CHL1  H27B 9435   3.914   4.083   8.617 -0.7308  0.2199 -0.8137
   94CHL1  H27C 9436   4.065   4.080   8.521  0.0274 -0.7367 -1.2052
   95CHL1    C3 9437   3.740   3.065   6.646  0.2640  0.3401 -0.2444
   95CHL1    H3 9438   3.846   3.037   6.661  0.0600 -1.4517 -1.6572
   95CHL1    O3 9439   3.704   3.116   6.521  0.5857 -0.0996  0.0187
   95CHL1   H3' 9440   3.708   3.212   6.520 -0.0508 -0.0707 -0.5927
   95CHL1    C4 9441   3.657   2.943   6.675  0.0942 -0.0116 -0.1598
   95CHL1   H4A 9442   3.550   2.951   6.646 -1.0337 -2.6206  2.7662
   95CHL1   H4B 9443   3.688   2.867   6.600 -3.5264  0.8160 -2.7822
   95CHL1    C5 9444   3.665   2.896   6.819 -0.2465 -1.2456 -1.1877
   95CHL1    C6 9445   3.706   2.775   6.848  0.5702  0.1134 -0.0251
   95CHL1    H6 9446   3.723   2.701   6.768 -3.5211 -2.0413  0.8237
   95CHL1    C7 9447   3.712   2.714   6.983  0.0983  0.2900 -0.3376
   95CHL1   H7A 9448   3.665   2.614   6.969  0.6733 -0.1503  0.7371
   95CHL1   H7B 9449   3.815   2.695   7.021  0.1472  0.7317 -0.2525
   95CHL1    C8 9450   3.632   2.799   7.086  0.1983  0.0528  0.2755
   95CHL1    H8 9451   3.525   2.790   7.056 -0.4018  3.9143  0.6314
   95CHL1   C14 9452   3.664   2.749   7.228  0.0973  0.5208 -0.2244
   95CHL1   H14 9453   3.770   2.779   7.244  0.6575 -1.4295 -0.0359
   95CHL1   C15 9454   3.646   2.595   7.249  0.4033 -0.5018 -0.0947
   95CHL1  H15A 9455   3.550   2.556   7.208 -0.1717  0.4727  0.3053
   95CHL1  H15B 9456   3.736   2.539   7.216  0.0954 -1.1951  0.2298
   95CHL1   C16 9457   3.638   2.589   7.397  0.6810  0.2596  0.2834
   95CHL1  H16A 9458   3.551   2.528   7.431  0.1288  0.2975 -1.0239
   95CHL1  H16B 9459   3.727   2.535   7.436  1.5278  1.1519 -0.3893
   95CHL1   C17 9460   3.626   2.730   7.460  0.1489  0.2888  0.2315
   95CHL1   H17 9461   3.731   2.755   7.484  0.0775 -0.3097  1.1939
   95CHL1   C13 9462   3.577   2.811   7.338 -0.1162  0.0910 -0.5087
   95CHL1   C18 9463   3.425   2.789   7.319 -0.5887  0.3345 -0.1537
   95CHL1  H18A 9464   3.394   2.683   7.329 -1.5326  0.6001 -0.1812
   95CHL1  H18B 9465   3.368   2.852   7.391  1.3308  0.0293  1.7744
   95CHL1  H18C 9466   3.387   2.828   7.223 -1.8259  0.5591  0.3971
   95CHL1   C12 9467   3.616   2.961   7.335  0.1150 -0.0821  0.2486
   95CHL1  H12A 9468   3.558   3.028   7.402  0.1930  0.7562 -0.5037
   95CHL1  H12B 9469   3.723   2.977   7.362 -0.0053 -0.9952  1.3668
   95CHL1   C11 9470   3.600   3.029   7.191 -0.4391 -0.2183  0.5936
   95CHL1  H11A 9471   3.490   3.029   7.176 -0.2133  0.4937 -1.3815
   95CHL1  H11B 9472   3.629   3.136   7.180 -0.8424 -0.2621 -1.1104
   95CHL1    C9 9473   3.664   2.945   7.076  0.3913  0.4653  0.3848
   95CHL1    H9 9474   3.772   2.969   7.089  0.1957  1.5633  0.0399
   95CHL1   C10 9475   3.634   3.003   6.930 -0.6107  0.0558 -0.1179
   95CHL1   C19 9476   3.487   3.063   6.925 -0.0081  0.0216  0.1676
   95CHL1  H19A 9477   3.455   3.082   6.820 -2.3881 -4.8093 -0.2844
   95CHL1  H19B 9478   3.414   2.982   6.948  0.8904 -1.1739 -1.0226
   95CHL1  H19C 9479   3.477   3.153   6.989  0.4668  0.5191 -0.4522
   95CHL1    C1 9480   3.734   3.114   6.892 -0.0891 -0.5424  0.0940
   95CHL1   H1A 9481   3.738   3.197   6.965  2.4223 -0.8943  0.4461
   95CHL1   H1B 9482   3.838   3.075   6.887 -0.1377 -0.8747  1.3342
   95CHL1    C2 9483   3.713   3.172   6.747  0.1341 -0.1523 -0.3657
   95CHL1   H2A 9484   3.780   3.260   6.743 -0.0208  0.2953  3.4588
   95CHL1   H2B 9485   3.607   3.206   6.751 -0.2081 -1.2744  0.9910
   95CHL1   C20 9486   3.547   2.734   7.596  0.0365  0.2186  0.0260
   95CHL1   H20 9487   3.442   2.724   7.564  0.2301 -0.0381 -0.5334
   95CHL1   C21 9488   3.546   2.882   7.658 -1.0346  0.4380 -0.4589
   95CHL1  H21A 9489   3.489   2.957   7.599 -0.8945  1.6922  0.9342
   95CHL1  H21B 9490   3.650   2.920   7.660 -0.7328 -0.0438 -3.5434
   95CHL1  H21C 9491   3.506   2.894   7.761  0.6915  0.6767  0.2206
   95CHL1   C22 9492   3.590   2.624   7.690 -0.1127  0.4408  0.1718
   95CHL1  H22A 9493   3.613   2.532   7.633  1.1414  0.3782  0.7315
   95CHL1  H22B 9494   3.686   2.649   7.741 -0.0280  0.7058 -0.1137
   95CHL1   C23 9495   3.477   2.590   7.791 -0.5793  0.2102 -0.1487
   95CHL1  H23A 9496   3.445   2.688   7.833 -1.7598 -1.0658  2.1264
   95CHL1  H23B 9497   3.394   2.541   7.736 -0.2285 -3.2177  2.0857
   95CHL1   C24 9498   3.527   2.495   7.906  0.2869 -0.5663 -0.0899
   95CHL1  H24A 9499   3.576   2.412   7.851 -0.5774 -0.4894 -1.0042
   95CHL1  H24B 9500   3.607   2.549   7.961  1.4895  0.6112 -2.8068
   95CHL1   C25 9501   3.426   2.427   8.001 -0.0441 -0.6169  0.5773
   95CHL1   H25 9502   3.366   2.514   8.034  3.9804  2.4460  0.4539
   95CHL1   C26 9503   3.340   2.322   7.917  0.0868  0.5044 -0.3580
   95CHL1  H26A 9504   3.269   2.364   7.843 -0.1923 -0.3744 -0.6074
   95CHL1  H26B 9505   3.405   2.241   7.876  1.4487  0.9423  0.8264
   95CHL1  H26C 9506   3.276   2.272   7.993  2.7197  0.2378  1.8753
   95CHL1   C27 9507   3.501   2.361   8.117  0.1445  0.1260 -0.1577
   95CHL1  H27A 9508   3.574   2.286   8.077  2.0385  2.7627 -1.9613
   95CHL1  H27B 9509   3.539   2.443   8.181 -0.2567 -0.6810  1.1593
   95CHL1  H27C 9510   3.435   2.302   8.184 -0.1849  0.8758  0.1889
   96CHL1    C3 9511   3.009   1.469   6.666 -0.4786 -0.3358 -0.3683
   96CHL1    H3 9512   3.037   1.577   6.667  1.3514 -0.7057 -3.0412
   96CHL1    O3 9513   3.012   1.425   6.528  0.0758 -0.1496 -0.7248
   96CHL1   H3' 9514   3.003   1.501   6.470 -1.6594  1.3199  1.3172
   96CHL1    C4 9515   3.107   1.395   6.759 -0.1322  0.6397  0.1054
   96CHL1   H4A 9516   3.082   1.290   6.733 -0.1767  1.4662 -3.8745
   96CHL1   H4B 9517   3.211   1.417   6.727 -0.1863  0.9750  0.1646
   96CHL1    C5 9518   3.087   1.400   6.909  0.5778  0.0425 -0.7100
   96CHL1    C6 9519   3.194   1.441   6.988  0.2636 -0.2647  0.3590
   96CHL1    H6 9520   3.284   1.464   6.929  0.1325  0.5820  0.4744
   96CHL1    C7 9521   3.193   1.465   7.140 -0.3960  0.2174 -0.2030
   96CHL1   H7A 9522   3.279   1.413   7.186  0.7660  0.1653 -2.3144
   96CHL1   H7B 9523   3.193   1.573   7.167 -1.6192  0.5332 -1.3466
   96CHL1    C8 9524   3.060   1.403   7.193  0.0664 -0.3106  0.2543
   96CHL1    H8 9525   3.061   1.292   7.192  0.0574 -0.3251  1.1070
   96CHL1   C14 9526   3.044   1.447   7.342  0.1398 -0.0283  0.0557
   96CHL1   H14 9527   3.040   1.558   7.340  0.1313 -0.0157  0.6044
   96CHL1   C15 9528   3.151   1.407   7.451 -0.7601 -0.3193 -0.4460
   96CHL1  H15A 9529   3.167   1.299   7.431 -2.7887 -0.2207 -3.1710
   96CHL1  H15B 9530   3.243   1.470   7.446 -2.4163  2.3556  0.7839
   96CHL1   C16 9531   3.078   1.444   7.592 -0.0109  0.6269  0.5027
   96CHL1  H16A 9532   3.093   1.353   7.654 -0.1907 -1.0223 -1.7140
   96CHL1  H16B 9533   3.122   1.534   7.638 -0.8529  0.3708  1.8606
   96CHL1   C17 9534   2.919   1.466   7.554  0.2248 -0.5121 -1.0538
   96CHL1   H17 9535   2.900   1.575   7.548  0.7277 -0.2455  1.1835
   96CHL1   C13 9536   2.910   1.410   7.407 -0.3365 -0.4949  0.3600
   96CHL1   C18 9537   2.902   1.257   7.414 -0.4836  0.9209  0.1432
   96CHL1  H18A 9538   2.923   1.208   7.316  0.4564 -1.8861  1.6322
   96CHL1  H18B 9539   2.965   1.196   7.483 -1.7577 -2.9658 -1.8034
   96CHL1  H18C 9540   2.799   1.235   7.451  0.3467 -0.9844  1.4581
   96CHL1   C12 9541   2.801   1.475   7.326  0.1359 -0.4747 -0.1708
   96CHL1  H12A 9542   2.703   1.460   7.376 -0.6048 -0.9880 -1.7206
   96CHL1  H12B 9543   2.813   1.585   7.318  0.0772 -0.5982 -2.9632
   96CHL1   C11 9544   2.804   1.433   7.178  0.4639 -0.4177 -0.8668
   96CHL1  H11A 9545   2.768   1.330   7.158 -1.0406 -0.2086  0.5751
   96CHL1  H11B 9546   2.721   1.488   7.127 -0.1083 -1.9538 -1.6700
   96CHL1    C9 9547   2.936   1.448   7.109 -0.5810 -0.6208  0.0829
   96CHL1    H9 9548   2.940   1.559   7.105 -1.5197 -0.5428  0.9336
   96CHL1   C10 9549   2.942   1.400   6.961  0.5997 -0.1353  0.6397
   96CHL1   C19 9550   2.887   1.252   6.945  0.4348  0.0637  0.4035
   96CHL1  H19A 9551   2.776   1.253   6.949  0.4153  0.8491 -0.0777
   96CHL1  H19B 9552   2.913   1.197   6.852  0.1012 -1.6844  1.2995
   96CHL1  H19C 9553   2.918   1.179   7.022 -0.1876 -2.2105 -1.3785
   96CHL1    C1 9554   2.865   1.492   6.868  0.1361  0.2367  0.5100
   96CHL1   H1A 9555   2.759   1.507   6.898 -0.3969 -1.2781 -0.5281
   96CHL1   H1B 9556   2.905   1.596   6.861 -1.8030  1.2002  2.6200
   96CHL1    C2 9557   2.866   1.455   6.715  0.8456  0.0690 -0.5113
   96CHL1   H2A 9558   2.794   1.512   6.653 -2.0849 -0.6942  1.9512
   96CHL1   H2B 9559   2.838   1.348   6.705  0.7953 -0.1448  1.5311
   96CHL1   C20 9560   2.828   1.416   7.665  0.4720 -0.2223 -0.1157
   96CHL1   H20 9561   2.849   1.311   7.693  0.2682 -0.3462 -0.4239
   96CHL1   C21 9562   2.670   1.414   7.632  0.0500 -0.0926  0.1891
   96CHL1  H21A 9563   2.632   1.349   7.550 -0.1668  1.2686 -0.8401
   96CHL1  H21B 9564   2.646   1.522   7.616  2.8307  0.6928  0.7891
   96CHL1  H21C 9565   2.608   1.382   7.718  0.3362  0.5774  0.6552
   96CHL1   C22 9566   2.858   1.501   7.794  0.8109 -0.0824 -0.2883
   96CHL1  H22A 9567   2.964   1.491   7.825  1.0020 -0.7080 -1.1016
   96CHL1  H22B 9568   2.829   1.607   7.778  0.7323  0.4386  2.7114
   96CHL1   C23 9569   2.785   1.448   7.919 -0.6113 -0.1052  0.1583
   96CHL1  H23A 9570   2.680   1.483   7.926 -0.1782  1.0882  0.9966
   96CHL1  H23B 9571   2.787   1.338   7.911 -0.0714 -0.1033  0.2105
   96CHL1   C24 9572   2.845   1.480   8.060  0.3351 -0.5593 -0.0499
   96CHL1  H24A 9573   2.940   1.424   8.073 -0.1094 -1.4103 -0.3070
   96CHL1  H24B 9574   2.872   1.587   8.060 -1.8230  0.1457 -3.4565
   96CHL1   C25 9575   2.775   1.429   8.191  0.2969  0.5159  0.2690
   96CHL1   H25 9576   2.668   1.456   8.188  0.1099 -0.2454 -0.0570
   96CHL1   C26 9577   2.786   1.278   8.206 -0.0616  0.6402 -1.1530
   96CHL1  H26A 9578   2.748   1.230   8.112  0.0506  0.5980 -1.1772
   96CHL1  H26B 9579   2.885   1.249   8.246 -1.1569 -0.6935  0.7385
   96CHL1  H26C 9580   2.716   1.243   8.285  1.4410  0.9364  0.3627
   96CHL1   C27 9581   2.816   1.493   8.322 -0.1976 -0.4784 -0.2967
   96CHL1  H27A 9582   2.921   1.464   8.340  0.9884  2.1239 -2.4547
   96CHL1  H27B 9583   2.812   1.603   8.331  2.6928 -0.1799 -1.5834
   96CHL1  H27C 9584   2.765   1.455   8.414  0.6818  2.0217  1.3415
   97OSM      N 9585   1.439   3.256  11.502  0.3634  0.1551  0.5991
   97OSM    C15 9586   1.405   3.324  11.635 -0.4134  0.3709  0.0669
   97OSM   H15A 9587   1.303   3.303  11.666  0.5669 -1.5592  2.2925
   97OSM   H15B 9588   1.416   3.431  11.625 -1.6665  0.5964  0.7750
   97OSM   H15C 9589   1.457   3.285  11.721  0.2608  1.1678  0.0313
   97OSM    C14 9590   1.578   3.280  11.470 -0.6974  0.3691 -0.4631
   97OSM   H14A 9591   1.599   3.385  11.456  1.8585 -0.1663 -1.2328
   97OSM   H14B 9592   1.609   3.218  11.387  1.8084 -1.7928  1.8665
   97OSM   H14C 9593   1.636   3.244  11.554  0.6520  0.2592 -1.3984
   97OSM    C13 9594   1.405   3.114  11.516  0.3939 -0.6976  0.1327
   97OSM   H13A 9595   1.424   3.068  11.420  1.1609 -0.1824  0.0256
   97OSM   H13B 9596   1.299   3.105  11.536  0.3330 -1.8350 -0.6374
   97OSM   H13C 9597   1.467   3.068  11.591  1.8425  2.1836  0.8786
   97OSM    C12 9598   1.352   3.317  11.392 -0.1512 -0.1341  0.3865
   97OSM   H12A 9599   1.351   3.425  11.398 -1.6091 -0.1176  0.3251
   97OSM   H12B 9600   1.250   3.297  11.421 -0.2041  0.4420  0.6074
   97OSM    C11 9601   1.370   3.266  11.246  0.7097  0.3395  0.1859
   97OSM   H11A 9602   1.473   3.296  11.217  0.5080 -0.8027 -1.8757
   97OSM   H11B 9603   1.302   3.316  11.173  2.4455  0.0009 -1.7521
   97OSM      P 9604   1.213   3.066  11.229  0.1984  0.2380  0.1219
   97OSM    O13 9605   1.218   2.918  11.253  0.1762  0.1599 -0.2506
   97OSM    O14 9606   1.112   3.139  11.312  0.2758  0.0787  0.4640
   97OSM    O11 9607   1.183   3.084  11.077  0.6733 -0.2188 -0.2388
   97OSM    O12 9608   1.353   3.126  11.239 -0.3372  0.3668 -0.5067
   97OSM    C1S 9609   1.089   3.185  11.036 -0.5860  0.0470  0.4933
   97OSM    H1S 9610   1.136   3.285  11.054 -0.3094  0.5243 -2.4799
   97OSM    H1T 9611   0.987   3.178  11.078 -0.4795 -2.0642  0.4860
   97OSM     NF 9612   1.017   3.301  10.841  0.1472  0.6124  0.1153
   97OSM    HNF 9613   0.917   3.301  10.834  0.1587  1.8258 -0.2938
   97OSM    C2S 9614   1.068   3.173  10.883 -0.5639  0.2836  0.6038
   97OSM    H2S 9615   1.169   3.161  10.839 -1.2072  3.0018 -1.9993
   97OSM    C3S 9616   0.976   3.051  10.849 -1.1091  0.3482  0.3272
   97OSM    H3S 9617   0.875   3.071  10.888 -0.2840  1.8733  1.7812
   97OSM     O3 9618   1.028   2.930  10.900  0.2682  0.7704 -0.2256
   97OSM    HO3 9619   1.102   2.960  10.953 -0.9930  3.5906  0.1377
   97OSM    C4S 9620   0.947   3.040  10.696  0.2520 -0.5056 -1.0149
   97OSM    H4S 9621   0.851   3.091  10.680  0.8728  0.8355 -0.5794
   97OSM    C5S 9622   1.021   2.975  10.604  0.6521 -1.0925 -0.1985
   97OSM    H5S 9623   1.105   2.907  10.623  1.0156 -1.1021 -1.7605
   97OSM    C6S 9624   0.978   2.970  10.463  0.4845  0.0815  0.7471
   97OSM    H6S 9625   1.072   2.953  10.406 -0.6200 -0.1132 -1.0942
   97OSM    H6T 9626   0.929   3.065  10.433  0.1316  0.0637  1.2475
   97OSM    C7S 9627   0.883   2.848  10.447 -0.6528  0.7106 -0.0778
   97OSM    H7S 9628   0.795   2.877  10.508  0.1577  1.0667  0.9384
   97OSM    H7T 9629   0.921   2.752  10.488 -1.1481  0.3309 -0.4874
   97OSM    C8S 9630   0.833   2.825  10.305 -0.0405 -0.4558  0.4876
   97OSM    H8S 9631   0.915   2.783  10.243 -0.9451  0.3217 -1.3095
   97OSM    H8T 9632   0.804   2.924  10.264  1.7968 -0.6387 -1.4055
   97OSM    C9S 9633   0.721   2.717  10.309  1.0416 -0.5181 -0.0082
   97OSM    H9S 9634   0.638   2.754  10.372 -1.4155 -1.6431 -2.3710
   97OSM    H9T 9635   0.777   2.624  10.334  2.8049 -0.4612 -3.1158
   97OSM   C10S 9636   0.664   2.705  10.166 -0.3048 -0.4844 -0.2272
   97OSM   H10S 9637   0.627   2.601  10.159  0.8093 -0.8417 -1.1312
   97OSM   H10T 9638   0.749   2.718  10.095  0.8366 -2.6691  0.6465
   97OSM   C11S 9639   0.547   2.808  10.135 -0.0786  0.4901  0.2886
   97OSM   H11S 9640   0.538   2.813  10.024  0.6251  1.7662  0.2714
   97OSM   H11T 9641   0.579   2.911  10.160 -1.6375  0.7012  1.5673
   97OSM   C12S 9642   0.408   2.769  10.195 -0.5109 -0.2618 -0.0852
   97OSM   H12S 9643   0.416   2.739  10.302  0.5641  2.2339  0.6085
   97OSM   H12T 9644   0.369   2.684  10.135  1.1564 -0.8126 -0.4328
   97OSM   C13S 9645   0.307   2.886  10.203 -0.1245  1.1920 -0.4820
   97OSM   H13S 9646   0.346   2.974  10.260 -0.6069  0.4903  0.9685
   97OSM   H13T 9647   0.225   2.853  10.271  0.0220 -0.2786 -1.0097
   97OSM   C14S 9648   0.251   2.914  10.063 -0.5712  0.6778 -0.5275
   97OSM   H14S 9649   0.240   2.812  10.021 -0.4706  0.5344 -0.2081
   97OSM   H14T 9650   0.337   2.962  10.013  2.3421 -1.1156  2.3761
   97OSM   C15S 9651   0.123   2.986  10.051 -0.4959 -0.5825 -0.1839
   97OSM   H15S 9652   0.052   2.941  10.123 -0.0453  0.0262  0.6552
   97OSM   H15T 9653   0.087   2.971   9.947 -1.9433  1.0813  0.0363
   97OSM   C16S 9654   0.114   3.134  10.063  0.1638 -0.4077 -0.7674
   97OSM   H16S 9655   0.028   3.186  10.016  0.3628  1.6636  1.0304
   97OSM   H16T 9656   0.200   3.179  10.008  0.4208  0.6782  0.4665
   97OSM   C17S 9657   0.128   3.181  10.204 -0.2340  0.4890 -0.3246
   97OSM   H17S 9658   0.180   3.279  10.211  0.0501  0.2657  0.8512
   97OSM   H17T 9659   0.193   3.118  10.267  0.4717  1.1495 -0.3822
   97OSM   C18S 9660  -0.015   3.199  10.267  0.3847  0.1435 -0.2650
   97OSM   H18S 9661  -0.002   3.230  10.373 -0.8412 -0.2298  0.0044
   97OSM   H18T 9662  -0.075   3.105  10.266 -1.2044  1.0980 -2.9324
   97OSM   H18U 9663  -0.071   3.280  10.215  0.5098  2.0796  2.4018
   97OSM    C1F 9664   1.084   3.415  10.836 -0.1534  0.2902  0.3778
   97OSM     OF 9665   1.204   3.422  10.852 -0.1070 -0.7520  0.6040
   97OSM    C2F 9666   0.996   3.543  10.813  0.9813  0.5640 -0.4376
   97OSM    H2F 9667   1.065   3.630  10.818  3.2194 -1.1203 -0.5292
   97OSM    H2G 9668   0.918   3.535  10.892  1.0328  0.8727 -0.3543
   97OSM    C3F 9669   0.916   3.531  10.687 -0.3592  0.0003 -0.3163
   97OSM    H3F 9670   0.844   3.447  10.695  0.5905 -0.7610  0.3728
   97OSM    H3G 9671   0.986   3.525  10.600  2.6081 -1.4010  2.0130
   97OSM    C4F 9672   0.828   3.654  10.670 -0.0340  0.9413  0.2839
   97OSM    H4F 9673   0.897   3.738  10.649  2.1028 -1.0055 -1.0443
   97OSM    H4G 9674   0.767   3.675  10.760 -1.1867  0.2994 -0.3203
   97OSM    C5F 9675   0.744   3.646  10.538  0.4290  0.1812 -0.4814
   97OSM    H5F 9676   0.679   3.736  10.544  1.0801  0.6465 -0.2535
   97OSM    H5G 9677   0.683   3.554  10.551 -0.1614  0.4402 -1.3765
   97OSM    C6F 9678   0.825   3.656  10.404  0.2364  0.1436  0.0065
   97OSM    H6F 9679   0.883   3.563  10.387 -1.1870 -0.4190 -2.0824
   97OSM    H6G 9680   0.892   3.744  10.415  0.8003  0.0594 -2.3559
   97OSM    C7F 9681   0.748   3.669  10.278 -0.4590  0.0564 -0.1673
   97OSM    H7F 9682   0.655   3.725  10.300 -0.2370  0.7819 -0.9913
   97OSM    H7G 9683   0.711   3.567  10.255 -2.6581  1.1293 -1.7343
   97OSM    C8F 9684   0.819   3.729  10.156 -0.7312 -0.0663  0.2869
   97OSM    H8F 9685   0.890   3.797  10.209 -0.9655 -0.9553  1.7846
   97OSM    H8G 9686   0.761   3.801  10.095  0.9689 -0.4318 -1.8844
   97OSM    C9F 9687   0.902   3.634  10.075  0.0182  0.4113  0.2274
   97OSM    H9F 9688   1.006   3.613  10.104 -0.2858  1.0679  1.9164
   97OSM   C10F 9689   0.869   3.591   9.952  0.0228 -0.3738 -0.3038
   97OSM   H10F 9690   0.933   3.518   9.900 -1.6581 -2.4111  0.3413
   97OSM   C11F 9691   0.738   3.623   9.875  0.2264  0.1084 -0.0057
   97OSM   H11F 9692   0.686   3.717   9.903  0.6232  0.3240  0.0137
   97OSM   H11G 9693   0.663   3.541   9.881  0.7836 -0.2854  3.3786
   97OSM   C12F 9694   0.753   3.663   9.727  0.2839 -0.1433 -0.6112
   97OSM   H12F 9695   0.823   3.749   9.714 -0.7078  0.3607 -3.1368
   97OSM   H12G 9696   0.657   3.707   9.694  0.2393  0.8366  0.7152
   97OSM   C13F 9697   0.792   3.555   9.638  0.1636  0.4059  0.4062
   97OSM   H13F 9698   0.735   3.469   9.680  0.6796 -1.5077 -2.5013
   97OSM   H13G 9699   0.902   3.536   9.646 -0.0496 -0.8224  0.6370
   97OSM   C14F 9700   0.739   3.574   9.495 -0.1361  0.0280 -0.2764
   97OSM   H14F 9701   0.792   3.653   9.437 -1.0648  0.2441 -0.8448
   97OSM   H14G 9702   0.629   3.590   9.494  0.1907  3.2056  1.4308
   97OSM   C15F 9703   0.779   3.450   9.407 -0.4249  1.2468 -0.2458
   97OSM   H15F 9704   0.730   3.365   9.459  0.2986  0.5315 -0.7036
   97OSM   H15G 9705   0.889   3.435   9.414 -0.4268  0.7020 -1.1894
   97OSM   C16F 9706   0.733   3.449   9.262 -0.0602 -0.1816 -0.0221
   97OSM   H16F 9707   0.626   3.480   9.265 -0.1226 -0.3169 -0.6756
   97OSM   H16G 9708   0.765   3.354   9.215  0.0340 -2.1677  3.7407
   97OSM   C17F 9709   0.785   3.564   9.176 -0.4438  0.4830 -0.1500
   97OSM   H17F 9710   0.896   3.560   9.179 -0.4290 -1.8040 -1.2568
   97OSM   H17G 9711   0.761   3.667   9.207  1.3811  1.3892 -1.5400
   97OSM   C18F 9712   0.731   3.546   9.024  0.1471  0.1859 -0.5428
   97OSM   H18F 9713   0.623   3.576   9.023  0.7953  2.7869 -0.9311
   97OSM   H18G 9714   0.743   3.437   9.008 -4.7105 -0.6289 -0.1896
   97OSM   H18H 9715   0.799   3.607   8.961  1.3728  0.1522  0.7119
   98OSM      N 9716   6.295   3.062  11.205  0.4970 -0.3591 -0.2277
   98OSM    C15 9717   6.164   3.112  11.217  0.2391  0.3530  0.6024
   98OSM   H15A 9718   6.141   3.130  11.321  1.5393 -1.3796  1.2482
   98OSM   H15B 9719   6.088   3.051  11.170  0.6993  1.3804 -1.5684
   98OSM   H15C 9720   6.152   3.206  11.166  0.2361 -0.6708 -1.3919
   98OSM    C14 9721   6.387   3.158  11.282  0.2404  1.0750  0.0074
   98OSM   H14A 9722   6.388   3.151  11.390  0.9910  0.8186 -0.0102
   98OSM   H14B 9723   6.367   3.262  11.258  1.9391  1.6406  0.8838
   98OSM   H14C 9724   6.491   3.134  11.267  0.6989  2.2545  1.0593
   98OSM    C13 9725   6.305   2.925  11.274  0.5657  0.2261 -0.0933
   98OSM   H13A 9726   6.251   2.857  11.210 -0.7869  0.6659  0.5654
   98OSM   H13B 9727   6.261   2.924  11.372  1.7548 -0.9154  0.4683
   98OSM   H13C 9728   6.409   2.893  11.274  0.5733  0.2516  0.5528
   98OSM    C12 9729   6.335   3.054  11.056 -0.4781 -0.1521  0.3638
   98OSM   H12A 9730   6.260   2.993  11.008  0.4130 -1.0935  0.1473
   98OSM   H12B 9731   6.434   3.013  11.045  0.2289  1.5936 -0.1642
   98OSM    C11 9732   6.334   3.188  10.973 -0.3114 -0.4864 -0.1909
   98OSM   H11A 9733   6.371   3.166  10.870 -1.6282 -1.5099 -0.4614
   98OSM   H11B 9734   6.415   3.248  11.021 -1.2105 -1.0968  2.1732
   98OSM      P 9735   6.102   3.231  10.856  0.2836 -0.1054  0.0303
   98OSM    O13 9736   5.977   3.184  10.917 -0.1971  0.0870 -0.1264
   98OSM    O14 9737   6.092   3.354  10.776  0.0534  0.2820 -0.3649
   98OSM    O11 9738   6.143   3.108  10.763  0.3324  0.5966 -0.4167
   98OSM    O12 9739   6.208   3.255  10.963 -0.1826  0.0216  0.1191
   98OSM    C1S 9740   6.063   3.071  10.649  0.0574 -0.3524 -0.1654
   98OSM    H1S 9741   5.953   3.088  10.651 -0.2494 -1.6700 -2.1681
   98OSM    H1T 9742   6.066   2.961  10.636 -0.2907 -0.2769 -0.9510
   98OSM     NF 9743   6.054   3.050  10.400  0.0792  0.2597  0.2914
   98OSM    HNF 9744   6.103   2.968  10.373  0.2516  0.0606  1.1719
   98OSM    C2S 9745   6.115   3.120  10.513 -0.0782  0.2871 -0.0992
   98OSM    H2S 9746   6.085   3.227  10.515  1.0946  0.7165  3.9360
   98OSM    C3S 9747   6.269   3.121  10.494 -0.2825 -0.3064 -0.0485
   98OSM    H3S 9748   6.305   3.017  10.508 -2.1953 -0.7923  1.7826
   98OSM     O3 9749   6.337   3.192  10.597  0.3841 -0.7392  0.7084
   98OSM    HO3 9750   6.293   3.160  10.676 -0.6960  1.1395  0.9067
   98OSM    C4S 9751   6.320   3.171  10.362  0.0418  0.6342  0.3460
   98OSM    H4S 9752   6.292   3.277  10.358  1.0578  0.8720 -1.2138
   98OSM    C5S 9753   6.398   3.116  10.265 -0.0538  0.0011  0.5015
   98OSM    H5S 9754   6.457   3.026  10.289 -1.4069 -1.1864 -0.4981
   98OSM    C6S 9755   6.457   3.203  10.158  0.2409 -0.0949 -0.1800
   98OSM    H6S 9756   6.455   3.138  10.068  0.3511 -2.8795  1.6962
   98OSM    H6T 9757   6.563   3.224  10.184 -0.4191  0.2117  2.5543
   98OSM    C7S 9758   6.379   3.328  10.117 -0.2705  1.4783 -0.1368
   98OSM    H7S 9759   6.374   3.398  10.204  0.0255 -0.1808  1.2616
   98OSM    H7T 9760   6.270   3.313  10.098 -0.5352  1.9725  0.8787
   98OSM    C8S 9761   6.426   3.389   9.987  0.0812  0.1786  0.4523
   98OSM    H8S 9762   6.435   3.308   9.912  1.2216  1.1836 -0.5331
   98OSM    H8T 9763   6.524   3.438  10.006 -1.1567  2.8732  0.4506
   98OSM    C9S 9764   6.337   3.498   9.931 -0.0216  0.3918 -0.2187
   98OSM    H9S 9765   6.341   3.586   9.998  0.6243  0.5484 -0.4589
   98OSM    H9T 9766   6.228   3.477   9.935 -0.1783  1.3345  0.8155
   98OSM   C10S 9767   6.370   3.550   9.791  0.2720  0.1850  0.6200
   98OSM   H10S 9768   6.415   3.467   9.732  2.3393  0.2456  1.9832
   98OSM   H10T 9769   6.444   3.632   9.797 -1.0895  1.5141 -0.0214
   98OSM   C11S 9770   6.252   3.600   9.710 -0.0067  0.0573  0.6613
   98OSM   H11S 9771   6.211   3.690   9.760 -1.2174  2.1929 -3.6738
   98OSM   H11T 9772   6.172   3.523   9.709  0.7911 -0.8114 -1.0797
   98OSM   C12S 9773   6.292   3.623   9.557  0.2488 -0.2008 -0.2276
   98OSM   H12S 9774   6.336   3.527   9.523  2.3015  0.6308 -0.0493
   98OSM   H12T 9775   6.384   3.685   9.551  0.3006 -0.0512  1.5397
   98OSM   C13S 9776   6.180   3.687   9.471  0.1092  0.2193 -1.3054
   98OSM   H13S 9777   6.223   3.777   9.421 -1.3644  0.9036 -1.3884
   98OSM   H13T 9778   6.082   3.702   9.520 -0.2669 -2.1727 -1.2137
   98OSM   C14S 9779   6.150   3.596   9.353  0.0478  1.0986 -0.0698
   98OSM   H14S 9780   6.105   3.498   9.379  0.7463  0.0589 -2.5339
   98OSM   H14T 9781   6.242   3.575   9.296 -0.5219  0.2384 -0.7028
   98OSM   C15S 9782   6.049   3.663   9.254 -0.0945  0.7718  0.4635
   98OSM   H15S 9783   6.088   3.765   9.235 -1.2394  1.1739  0.2231
   98OSM   H15T 9784   5.944   3.672   9.288 -0.8796 -2.3224 -0.8330
   98OSM   C16S 9785   6.030   3.585   9.121  0.2409 -0.4447 -0.7597
   98OSM   H16S 9786   5.964   3.497   9.134  0.3943 -0.4310  0.2461
   98OSM   H16T 9787   6.133   3.548   9.102  1.1140  1.6514 -0.4128
   98OSM   C17S 9788   5.991   3.673   9.002  0.6254  0.1554  0.1098
   98OSM   H17S 9789   6.063   3.757   8.996  0.6255  0.1682  0.2998
   98OSM   H17T 9790   5.890   3.718   9.012  0.3388 -0.0080 -1.6235
   98OSM   C18S 9791   5.991   3.586   8.874 -0.5827  0.1949 -0.4524
   98OSM   H18S 9792   5.914   3.509   8.897 -1.4963  1.5242  1.2141
   98OSM   H18T 9793   6.087   3.534   8.855 -1.3060 -1.0024 -0.9301
   98OSM   H18U 9794   5.964   3.635   8.778 -0.5285 -2.5071 -1.9323
   98OSM    C1F 9795   5.927   3.057  10.371  0.1503  0.4345 -0.0262
   98OSM     OF 9796   5.863   3.149  10.418 -0.2627  0.7519 -0.7743
   98OSM    C2F 9797   5.869   2.962  10.269 -0.4036  0.0176 -0.2439
   98OSM    H2F 9798   5.810   2.881  10.317 -0.1009  0.6713  1.3042
   98OSM    H2G 9799   5.947   2.900  10.222 -0.1243 -0.9048  1.3666
   98OSM    C3F 9800   5.773   3.019  10.163  0.5988  0.0708  0.9478
   98OSM    H3F 9801   5.836   3.085  10.100 -1.3878 -0.3116 -1.6438
   98OSM    H3G 9802   5.688   3.066  10.217  0.8464  1.2237  0.3562
   98OSM    C4F 9803   5.715   2.908  10.072  0.0572  0.7966 -0.2099
   98OSM    H4F 9804   5.667   2.831  10.137 -0.7352 -0.3705 -2.0849
   98OSM    H4G 9805   5.796   2.848  10.025  0.0944  1.5384 -1.1204
   98OSM    C5F 9806   5.621   2.959   9.973 -0.1900  0.2935 -0.2160
   98OSM    H5F 9807   5.554   3.034  10.020 -0.8606 -1.4070  1.6723
   98OSM    H5G 9808   5.558   2.872   9.947  0.6497 -0.2167 -0.5849
   98OSM    C6F 9809   5.685   3.017   9.846  0.5099  0.4616 -0.0385
   98OSM    H6F 9810   5.760   2.945   9.806  2.3999  1.2147  1.9279
   98OSM    H6G 9811   5.737   3.104   9.891 -0.5032 -0.9685  4.4207
   98OSM    C7F 9812   5.578   3.048   9.743  0.3615 -0.7805  0.4133
   98OSM    H7F 9813   5.622   3.128   9.680 -2.6985  0.2621 -0.5922
   98OSM    H7G 9814   5.485   3.096   9.782  1.1278  0.7677  0.4260
   98OSM    C8F 9815   5.552   2.933   9.648  0.6122  0.2598 -0.4768
   98OSM    H8F 9816   5.548   2.843   9.713  3.2255  0.6258  0.3001
   98OSM    H8G 9817   5.650   2.916   9.598  0.5644  0.8457 -0.7773
   98OSM    C9F 9818   5.437   2.963   9.556 -0.2286  0.2000  0.1112
   98OSM    H9F 9819   5.338   2.975   9.602 -0.4817  0.8517 -0.5872
   98OSM   C10F 9820   5.439   2.954   9.418 -0.3210 -0.0999 -0.1406
   98OSM   H10F 9821   5.352   2.978   9.355 -0.7227 -2.1696 -0.4416
   98OSM   C11F 9822   5.565   2.914   9.338  0.0734 -0.5048  0.2391
   98OSM   H11F 9823   5.544   2.844   9.254  0.3027  0.0480 -0.2921
   98OSM   H11G 9824   5.644   2.861   9.395 -0.5563  0.0696  1.6786
   98OSM   C12F 9825   5.625   3.046   9.286 -0.5230 -0.1509  0.2194
   98OSM   H12F 9826   5.684   3.093   9.368 -0.2354 -1.0437  0.5368
   98OSM   H12G 9827   5.543   3.110   9.245  1.1390 -0.1722 -3.5229
   98OSM   C13F 9828   5.725   3.034   9.165  0.8121  0.1978 -0.8102
   98OSM   H13F 9829   5.672   2.979   9.085  0.9059  1.3339 -1.6682
   98OSM   H13G 9830   5.824   2.987   9.186 -0.3614 -1.7010  0.8503
   98OSM   C14F 9831   5.750   3.178   9.114  0.0881  0.4150 -0.5383
   98OSM   H14F 9832   5.779   3.242   9.201 -1.2788 -2.3055  2.1174
   98OSM   H14G 9833   5.651   3.211   9.076 -0.2239 -0.0679 -0.1656
   98OSM   C15F 9834   5.856   3.190   9.004 -0.3658  0.5455 -0.3828
   98OSM   H15F 9835   5.960   3.178   9.041 -0.8098  0.5989  0.9185
   98OSM   H15G 9836   5.858   3.298   8.977  1.2515  0.6998  0.2251
   98OSM   C16F 9837   5.831   3.104   8.881 -0.2753  0.0467  0.4702
   98OSM   H16F 9838   5.725   3.114   8.847  0.0276 -0.0262 -0.5062
   98OSM   H16G 9839   5.838   3.007   8.934 -0.5255  0.6658  1.6779
   98OSM   C17F 9840   5.941   3.113   8.766  0.2785 -0.9294 -0.8560
   98OSM   H17F 9841   6.036   3.091   8.819 -1.1720 -1.3123  1.7626
   98OSM   H17G 9842   5.954   3.218   8.732  2.1848 -0.7903  0.1962
   98OSM   C18F 9843   5.918   3.028   8.633 -0.3606  0.6095 -0.2206
   98OSM   H18F 9844   5.873   2.930   8.661  0.3349  0.0217 -1.0879
   98OSM   H18G 9845   6.015   3.013   8.581  0.0110  2.1603  0.0074
   98OSM   H18H 9846   5.839   3.081   8.575  0.4283  3.6196  1.2961
   99OSM      N 9847   2.122   3.161  10.926  0.3552  0.1224  0.3903
   99OSM    C15 9848   2.258   3.090  10.909  0.1616 -0.1262  0.0450
   99OSM   H15A 9849   2.338   3.145  10.956  1.5251 -0.2299 -2.0381
   99OSM   H15B 9850   2.288   3.084  10.805 -0.4611 -1.5609 -0.0669
   99OSM   H15C 9851   2.258   2.994  10.959  0.5441 -0.2149 -0.1263
   99OSM    C14 9852   2.010   3.072  10.889  0.6488 -0.4066  0.3220
   99OSM   H14A 9853   1.914   3.120  10.902  0.2167 -0.4654 -2.1252
   99OSM   H14B 9854   2.016   2.976  10.938 -0.3476 -0.4349  0.4008
   99OSM   H14C 9855   2.013   3.057  10.782 -0.2229 -0.0348  0.2392
   99OSM    C13 9856   2.105   3.199  11.069  0.1388  0.6247  0.3271
   99OSM   H13A 9857   2.004   3.230  11.092 -0.8596 -0.9091 -1.6817
   99OSM   H13B 9858   2.177   3.275  11.098 -1.7671  1.7421  2.4751
   99OSM   H13C 9859   2.118   3.112  11.132 -0.0689  0.6728  0.4364
   99OSM    C12 9860   2.123   3.287  10.845  0.0858  0.5106  0.0332
   99OSM   H12A 9861   2.208   3.346  10.876 -0.6198  0.3710  2.3956
   99OSM   H12B 9862   2.036   3.344  10.873  0.2851  0.8633 -0.0578
   99OSM    C11 9863   2.132   3.271  10.691 -0.4808  0.0654 -0.0701
   99OSM   H11A 9864   2.084   3.352  10.633 -4.6391 -3.0269 -1.3551
   99OSM   H11B 9865   2.068   3.181  10.675 -0.5982 -0.0880  1.1623
   99OSM      P 9866   2.383   3.340  10.650 -0.2903 -0.3072 -0.0840
   99OSM    O13 9867   2.394   3.379  10.792 -0.2307  0.8911 -0.0043
   99OSM    O14 9868   2.500   3.282  10.582 -0.1046 -0.3091 -0.8465
   99OSM    O11 9869   2.327   3.475  10.582  0.5522  0.1455  0.1372
   99OSM    O12 9870   2.265   3.234  10.651  0.2589  0.0616  0.4406
   99OSM    C1S 9871   2.415   3.544  10.495 -0.0037 -0.0485  0.3474
   99OSM    H1S 9872   2.517   3.504  10.475 -0.8754 -1.7325 -1.0507
   99OSM    H1T 9873   2.440   3.647  10.527  1.0601 -0.5580  1.2385
   99OSM     NF 9874   2.456   3.594  10.257 -0.1301 -0.1586  0.5879
   99OSM    HNF 9875   2.462   3.689  10.228  0.8429 -0.5022 -0.4079
   99OSM    C2S 9876   2.358   3.547  10.349  0.5784  0.1758  0.4545
   99OSM    H2S 9877   2.327   3.445  10.319  0.7786  0.6068 -1.2929
   99OSM    C3S 9878   2.226   3.628  10.338  0.3203 -0.5794  1.1210
   99OSM    H3S 9879   2.238   3.738  10.350 -1.4486 -0.2530  0.2435
   99OSM     O3 9880   2.122   3.592  10.429  0.1213 -0.1357  0.4007
   99OSM    HO3 9881   2.151   3.515  10.478 -0.0509 -0.7730 -0.4730
   99OSM    C4S 9882   2.158   3.604  10.202  0.1470 -0.2962  0.3687
   99OSM    H4S 9883   2.096   3.513  10.200 -1.0880  0.4949 -2.6677
   99OSM    C5S 9884   2.145   3.697  10.104 -0.3622 -0.0274  0.1450
   99OSM    H5S 9885   2.188   3.797  10.116 -0.9098 -0.1186  3.8575
   99OSM    C6S 9886   2.065   3.669   9.986 -0.2418  0.3943  0.3929
   99OSM    H6S 9887   2.003   3.760   9.970 -1.7878 -0.3598  1.7823
   99OSM    H6T 9888   2.002   3.578   9.996 -0.9300  0.9732  1.6364
   99OSM    C7S 9889   2.157   3.646   9.860  0.3649 -0.4738  0.2728
   99OSM    H7S 9890   2.094   3.612   9.775 -1.7269 -0.0186  1.5727
   99OSM    H7T 9891   2.234   3.568   9.875  1.7345  0.9633  1.1131
   99OSM    C8S 9892   2.224   3.774   9.816  0.0576 -0.2045 -0.4299
   99OSM    H8S 9893   2.301   3.812   9.887  0.4871 -0.0958 -0.9518
   99OSM    H8T 9894   2.155   3.861   9.817 -0.4274 -0.5816 -0.6668
   99OSM    C9S 9895   2.281   3.767   9.671  0.8226  0.1531 -0.5157
   99OSM    H9S 9896   2.360   3.690   9.679 -1.5108 -2.2187  2.2570
   99OSM    H9T 9897   2.311   3.869   9.639  0.4778  0.6027  0.5647
   99OSM   C10S 9898   2.180   3.716   9.555  0.6649 -0.7663  0.2436
   99OSM   H10S 9899   2.091   3.781   9.571  0.2140 -1.4020  0.3264
   99OSM   H10T 9900   2.158   3.609   9.572 -0.8904 -0.4501  0.3507
   99OSM   C11S 9901   2.224   3.737   9.408 -0.1907 -0.0023 -0.6694
   99OSM   H11S 9902   2.326   3.694   9.402  1.7339  3.7687  1.1454
   99OSM   H11T 9903   2.236   3.845   9.385 -0.6206  0.0209 -0.8018
   99OSM   C12S 9904   2.130   3.681   9.300 -0.3761  0.1899 -0.3791
   99OSM   H12S 9905   2.116   3.573   9.322  0.6426  0.1396  0.0972
   99OSM   H12T 9906   2.029   3.727   9.307 -1.3742 -2.0886  1.9693
   99OSM   C13S 9907   2.189   3.687   9.162  0.1550 -0.1413 -0.2468
   99OSM   H13S 9908   2.266   3.606   9.163 -0.5918 -0.9202 -1.7715
   99OSM   H13T 9909   2.241   3.785   9.154  2.8009 -0.8927  4.2230
   99OSM   C14S 9910   2.090   3.652   9.052 -0.7323 -0.3823  0.4420
   99OSM   H14S 9911   2.031   3.745   9.040  3.4061  2.5418  0.5676
   99OSM   H14T 9912   2.034   3.565   9.090  1.4879 -2.3004 -0.4023
   99OSM   C15S 9913   2.158   3.608   8.917 -0.3037  0.2128 -0.2588
   99OSM   H15S 9914   2.236   3.535   8.949  1.5673  3.1351  2.5807
   99OSM   H15T 9915   2.208   3.694   8.868 -0.3681  0.4258  0.0417
   99OSM   C16S 9916   2.062   3.558   8.804 -0.2007  0.1270  0.0115
   99OSM   H16S 9917   2.128   3.553   8.715  0.4526  2.3580  0.3194
   99OSM   H16T 9918   1.985   3.638   8.797 -1.6240 -1.2242 -0.3422
   99OSM   C17S 9919   1.988   3.428   8.822  0.6606  0.4433 -0.0162
   99OSM   H17S 9920   1.907   3.435   8.898 -0.2544 -0.9075 -0.8229
   99OSM   H17T 9921   2.062   3.352   8.856  1.1125 -0.0439 -1.9641
   99OSM   C18S 9922   1.922   3.376   8.688 -0.5843 -0.6882 -0.4003
   99OSM   H18S 9923   1.994   3.358   8.605 -2.3806 -0.3487 -2.1023
   99OSM   H18T 9924   1.840   3.442   8.653  1.0274  1.2324 -0.7824
   99OSM   H18U 9925   1.869   3.283   8.717 -2.4316  0.5586  0.4869
   99OSM    C1F 9926   2.558   3.512  10.227  0.3831  0.5604  1.1733
   99OSM     OF 9927   2.558   3.389  10.255 -0.3982 -0.1706  0.0485
   99OSM    C2F 9928   2.664   3.572  10.144  0.1700 -0.1225  0.7668
   99OSM    H2F 9929   2.746   3.613  10.208  1.7932 -2.2509  0.1746
   99OSM    H2G 9930   2.633   3.653  10.075 -0.1789 -0.5285  0.4463
   99OSM    C3F 9931   2.733   3.460  10.053 -0.3955 -0.6380  0.0278
   99OSM    H3F 9932   2.801   3.398  10.116 -1.2017 -2.0784 -0.4572
   99OSM    H3G 9933   2.651   3.398  10.011 -0.2725 -0.2722 -0.7668
   99OSM    C4F 9934   2.818   3.523   9.942  0.2752 -0.3712  0.0914
   99OSM    H4F 9935   2.752   3.580   9.873  3.7717  2.2670 -1.3795
   99OSM    H4G 9936   2.865   3.443   9.880  0.9686  0.3601 -0.3468
   99OSM    C5F 9937   2.918   3.632   9.992  0.0886 -0.6979 -0.7221
   99OSM    H5F 9938   2.962   3.583  10.081  1.4688  1.5707 -0.0657
   99OSM    H5G 9939   2.877   3.728  10.026 -0.0796 -0.1613 -2.3290
   99OSM    C6F 9940   3.041   3.663   9.903 -0.3968  0.7469 -1.0776
   99OSM    H6F 9941   3.010   3.717   9.812 -2.3186 -0.3567 -1.1239
   99OSM    H6G 9942   3.095   3.570   9.873 -1.5947  0.1293 -1.3928
   99OSM    C7F 9943   3.139   3.760   9.968  0.3398 -0.0327  0.7143
   99OSM    H7F 9944   3.150   3.727  10.073  2.7462 -2.5050 -0.1863
   99OSM    H7G 9945   3.094   3.860   9.953  0.8492 -0.1021 -1.6333
   99OSM    C8F 9946   3.284   3.747   9.905  0.0692  0.5998  0.1298
   99OSM    H8F 9947   3.272   3.753   9.795  3.1387 -1.5026 -0.4684
   99OSM    H8G 9948   3.320   3.643   9.919  2.6603  1.4950  0.8093
   99OSM    C9F 9949   3.392   3.847   9.958 -0.2634  0.3759  0.0927
   99OSM    H9F 9950   3.412   3.836  10.066 -2.0908 -2.9060  0.2238
   99OSM   C10F 9951   3.472   3.933   9.886  0.5362 -0.4778 -0.2135
   99OSM   H10F 9952   3.539   4.000   9.943 -0.0688 -1.2350  1.4679
   99OSM   C11F 9953   3.447   3.962   9.739 -0.2106 -0.3894  0.6975
   99OSM   H11F 9954   3.378   4.050   9.737 -0.1871 -0.3798  0.3387
   99OSM   H11G 9955   3.388   3.881   9.691 -1.1509  0.3449  0.5646
   99OSM   C12F 9956   3.578   4.006   9.673 -0.6709  0.2148 -0.8008
   99OSM   H12F 9957   3.638   3.913   9.661 -0.3595  0.1783  0.8674
   99OSM   H12G 9958   3.631   4.088   9.725  0.6078 -0.9439 -0.2001
   99OSM   C13F 9959   3.556   4.055   9.527  0.2334  0.4138  0.0649
   99OSM   H13F 9960   3.623   4.141   9.508 -1.6715  2.5357  2.1648
   99OSM   H13G 9961   3.456   4.104   9.523 -0.7620 -1.3431  1.7098
   99OSM   C14F 9962   3.577   3.953   9.419 -0.0954 -0.1379 -0.5199
   99OSM   H14F 9963   3.496   3.877   9.418 -3.6115  3.2621 -1.5641
   99OSM   H14G 9964   3.673   3.899   9.434 -0.3107  0.3974  3.9960
   99OSM   C15F 9965   3.591   4.030   9.283  0.3207  0.7928 -0.0613
   99OSM   H15F 9966   3.640   4.128   9.305  0.7363  0.0633  2.6137
   99OSM   H15G 9967   3.488   4.044   9.244  1.0491  1.9283 -1.7287
   99OSM   C16F 9968   3.670   3.959   9.174  0.5812 -0.1780 -0.0371
   99OSM   H16F 9969   3.777   3.963   9.204  0.4457  1.1070  0.3618
   99OSM   H16G 9970   3.657   4.019   9.082  0.0303 -0.6286 -0.2543
   99OSM   C17F 9971   3.621   3.816   9.154 -0.0729 -0.1770 -0.7059
   99OSM   H17F 9972   3.628   3.752   9.245  0.4523  2.2758  1.0991
   99OSM   H17G 9973   3.687   3.786   9.070 -0.4277  0.5893 -1.2772
   99OSM   C18F 9974   3.479   3.803   9.097  0.7989 -0.3907  0.1480
   99OSM   H18F 9975   3.443   3.698   9.095  2.3489 -0.9563  0.8284
   99OSM   H18G 9976   3.464   3.856   9.000  0.8499  3.1395  1.9281
   99OSM   H18H 9977   3.407   3.851   9.167 -0.3165  0.9354 -1.8230
  100OSM      N 9978   4.338   4.719  10.796 -0.6315  0.6995 -0.1586
  100OSM    C15 9979   4.435   4.657  10.894  0.2560 -0.0924  0.1591
  100OSM   H15A 9980   4.524   4.718  10.897  2.1748 -2.7122  0.4892
  100OSM   H15B 9981   4.471   4.559  10.866 -0.4275 -0.5038  0.7029
  100OSM   H15C 9982   4.394   4.652  10.994 -0.0359 -1.3998  0.0007
  100OSM    C14 9983   4.201   4.674  10.812 -0.2924  1.0326  0.4313
  100OSM   H14A 9984   4.185   4.570  10.787  0.1771  1.0529  0.0404
  100OSM   H14B 9985   4.137   4.726  10.742 -1.6824 -2.1910 -0.9047
  100OSM   H14C 9986   4.170   4.702  10.911  0.6518 -0.6405  1.2461
  100OSM    C13 9987   4.335   4.864  10.830 -0.2070 -0.1842  0.2369
  100OSM   H13A 9988   4.438   4.898  10.832  0.2982 -1.5455  2.6246
  100OSM   H13B 9989   4.291   4.874  10.928 -1.7113 -2.0905 -0.1867
  100OSM   H13C 9990   4.273   4.920  10.763  0.0162  0.4424  0.5482
  100OSM    C12 9991   4.375   4.705  10.653  0.3627  0.5396  0.4960
  100OSM   H12A 9992   4.481   4.721  10.639  0.8408 -1.7152  1.1947
  100OSM   H12B 9993   4.317   4.773  10.593  2.6032  1.7020 -0.4605
  100OSM    C11 9994   4.341   4.569  10.582 -0.3051 -0.1622 -0.2369
  100OSM   H11A 9995   4.357   4.587  10.473 -1.2278  1.5164 -0.1253
  100OSM   H11B 9996   4.233   4.541  10.587  0.0098 -1.2045  1.0755
  100OSM      P 9997   4.569   4.432  10.611  0.1768  0.4990 -0.2043
  100OSM    O13 9998   4.630   4.562  10.587 -0.1962 -0.3703  0.5290
  100OSM    O14 9999   4.616   4.349  10.723 -0.7372 -1.0963 -0.7273
  100OSM    O1110000   4.572   4.339  10.480  0.0246  0.8624  0.6043
  100OSM    O1210001   4.415   4.458  10.635 -0.1171  0.4096 -0.5250
  100OSM    C1S10002   4.465   4.258  10.429 -0.2909 -0.0681  0.2434
  100OSM    H1S10003   4.365   4.298  10.455 -0.3223  0.1465 -0.1878
  100OSM    H1T10004   4.471   4.158  10.477 -0.2709  0.2057  0.8193
  100OSM     NF10005   4.344   4.176  10.225 -0.8024  0.2546 -0.9383
  100OSM    HNF10006   4.342   4.086  10.182  0.3694 -0.6930  0.8120
  100OSM    C2S10007   4.479   4.239  10.271 -0.5327  0.4963  0.3947
  100OSM    H2S10008   4.493   4.335  10.218  1.8396 -0.5550 -1.0812
  100OSM    C3S10009   4.596   4.146  10.236 -0.7259  0.2509 -0.0994
  100OSM    H3S10010   4.577   4.046  10.280  0.1128  0.8695  1.7813
  100OSM     O310011   4.714   4.186  10.294 -0.2113  0.0216 -0.2451
  100OSM    HO310012   4.686   4.233  10.373  0.6010  0.4576 -0.1963
  100OSM    C4S10013   4.617   4.137  10.089 -0.3809 -0.5814  0.1610
  100OSM    H4S10014   4.654   4.229  10.042  0.4749  0.4423  2.6443
  100OSM    C5S10015   4.602   4.024  10.023 -0.5494  0.4662  0.8117
  100OSM    H5S10016   4.575   3.928  10.070  0.5762 -0.0741  0.4024
  100OSM    C6S10017   4.618   4.005   9.877 -0.1909 -0.2568 -0.0162
  100OSM    H6S10018   4.687   3.922   9.847 -0.8992 -0.8992  0.1188
  100OSM    H6T10019   4.655   4.100   9.834 -2.4098  0.8188  0.3380
  100OSM    C7S10020   4.487   3.970   9.816 -0.3541  0.2164 -0.5886
  100OSM    H7S10021   4.413   4.049   9.842 -0.4414  0.5160 -1.6861
  100OSM    H7T10022   4.450   3.875   9.860 -0.0579  0.4768  0.2347
  100OSM    C8S10023   4.484   3.965   9.660 -0.9906  0.1446  0.3017
  100OSM    H8S10024   4.387   3.920   9.629 -1.9641  0.9052  2.0827
  100OSM    H8T10025   4.569   3.908   9.619  0.2237  0.2404  2.5426
  100OSM    C9S10026   4.490   4.102   9.590  0.6266 -0.0851  0.0982
  100OSM    H9S10027   4.570   4.171   9.625 -0.5040  2.3120 -1.7301
  100OSM    H9T10028   4.390   4.149   9.605  0.3341 -0.4987 -0.5342
  100OSM   C10S10029   4.504   4.078   9.441  0.0908  0.5370  0.3898
  100OSM   H10S10030   4.463   3.977   9.420 -0.4856  0.7978  0.2345
  100OSM   H10T10031   4.611   4.060   9.416 -0.5937 -0.0705 -2.4213
  100OSM   C11S10032   4.451   4.174   9.342  0.4530 -0.8410  0.5408
  100OSM   H11S10033   4.490   4.274   9.369 -1.1684  0.1712 -0.6853
  100OSM   H11T10034   4.340   4.171   9.341  0.4462 -0.6111 -0.1187
  100OSM   C12S10035   4.508   4.151   9.200 -0.6630 -0.4107 -0.0582
  100OSM   H12S10036   4.615   4.124   9.193 -0.8476 -0.8284 -1.4790
  100OSM   H12T10037   4.482   4.239   9.137  0.1655  2.0453  2.7726
  100OSM   C13S10038   4.446   4.039   9.115  0.1166 -0.3278 -0.3624
  100OSM   H13S10039   4.448   3.935   9.156 -1.2134 -0.3026 -0.2099
  100OSM   H13T10040   4.497   4.026   9.017  0.6164 -0.5462 -0.0798
  100OSM   C14S10041   4.297   4.072   9.077 -0.3003  0.8973  0.2568
  100OSM   H14S10042   4.287   4.165   9.017 -1.5440  0.5213 -0.1585
  100OSM   H14T10043   4.229   4.073   9.164 -0.4277 -2.3620  0.3035
  100OSM   C15S10044   4.223   3.973   8.978  0.5818  0.7902  0.0183
  100OSM   H15S10045   4.250   3.874   9.020 -1.1577  1.1182  2.1085
  100OSM   H15T10046   4.257   3.985   8.873 -0.8752 -1.9046 -0.8594
  100OSM   C16S10047   4.076   4.008   8.976 -0.1768  0.0519  0.1293
  100OSM   H16S10048   4.061   4.105   8.924  1.0190 -0.0885 -0.5095
  100OSM   H16T10049   4.025   4.021   9.074 -2.1121  1.1025 -0.9288
  100OSM   C17S10050   4.000   3.905   8.887 -0.4384 -0.4173 -0.2010
  100OSM   H17S10051   3.990   3.811   8.945  0.1811 -1.3273 -1.5251
  100OSM   H17T10052   4.060   3.890   8.795 -0.0600  1.1143 -0.2274
  100OSM   C18S10053   3.858   3.953   8.854  0.6096  0.1724  0.5777
  100OSM   H18S10054   3.791   3.926   8.938  0.7684  1.1122  1.0121
  100OSM   H18T10055   3.817   3.900   8.766 -1.1003 -0.0135  1.4549
  100OSM   H18U10056   3.852   4.059   8.824 -3.8408 -0.2345 -0.6417
  100OSM    C1F10057   4.230   4.242  10.224 -0.0013  1.1383 -0.5103
  100OSM     OF10058   4.235   4.367  10.246  0.6921 -0.0626  0.1865
  100OSM    C2F10059   4.113   4.158  10.179  0.4849 -0.2326  0.0344
  100OSM    H2F10060   4.064   4.098  10.259 -0.1519 -0.9318 -0.8636
  100OSM    H2G10061   4.152   4.091  10.099 -2.8628 -2.0737 -0.2574
  100OSM    C3F10062   4.009   4.237  10.110  0.7453 -0.8045  0.5642
  100OSM    H3F10063   4.059   4.294  10.029  2.9750 -1.8645  1.1164
  100OSM    H3G10064   3.968   4.314  10.180 -0.4688 -2.2251  1.4724
  100OSM    C4F10065   3.900   4.158  10.032 -0.7263 -0.7054 -0.9155
  100OSM    H4F10066   3.832   4.233   9.988 -0.8071 -1.2856 -1.8123
  100OSM    H4G10067   3.839   4.106  10.109 -1.0676  2.9946  1.5501
  100OSM    C5F10068   3.937   4.042   9.931  0.3850  0.4594  0.7572
  100OSM    H5F10069   3.837   4.006   9.900 -0.4575  2.9107  0.3676
  100OSM    H5G10070   3.994   3.967   9.990 -0.1234 -1.4082 -1.0329
  100OSM    C6F10071   4.030   4.064   9.800  0.0488 -0.5255 -0.2036
  100OSM    H6F10072   4.113   4.127   9.839 -1.3361  2.3261 -1.5646
  100OSM    H6G10073   3.965   4.130   9.738 -2.0085 -0.0947  2.2244
  100OSM    C7F10074   4.071   3.922   9.747 -0.9302 -0.2666  0.0348
  100OSM    H7F10075   3.979   3.860   9.750 -0.0700 -1.5380  1.1015
  100OSM    H7G10076   4.152   3.876   9.807  1.1314  3.0046 -0.0209
  100OSM    C8F10077   4.129   3.938   9.603 -0.4379  0.6488 -0.2107
  100OSM    H8F10078   4.185   3.845   9.583 -0.2290  0.8388 -0.5199
  100OSM    H8G10079   4.200   4.023   9.608 -0.6428  0.9930 -2.2013
  100OSM    C9F10080   4.023   3.965   9.501  0.3641  0.3952 -0.5779
  100OSM    H9F10081   3.963   4.055   9.523 -0.9182 -0.3672 -0.8474
  100OSM   C10F10082   4.003   3.902   9.387 -0.0682  0.3394 -0.7119
  100OSM   H10F10083   3.932   3.946   9.315 -0.2081 -0.9112 -1.3837
  100OSM   C11F10084   4.073   3.781   9.327  0.0670 -0.3437  0.3167
  100OSM   H11F10085   4.146   3.730   9.394  1.6236  1.7155  0.2768
  100OSM   H11G10086   4.123   3.824   9.238  0.8105  0.9817  1.3449
  100OSM   C12F10087   3.959   3.689   9.281 -0.4314 -0.1627  0.1677
  100OSM   H12F10088   3.901   3.732   9.197 -0.9699 -0.3886  0.4181
  100OSM   H12G10089   3.892   3.661   9.365 -0.8873 -0.5864 -0.3316
  100OSM   C13F10090   4.009   3.553   9.227  0.3442  0.5585 -0.1849
  100OSM   H13F10091   4.053   3.498   9.313 -0.3808 -1.4615 -1.0437
  100OSM   H13G10092   4.090   3.582   9.157 -0.1047  3.2135  0.2708
  100OSM   C14F10093   3.899   3.466   9.167 -0.6222  1.4543  0.4558
  100OSM   H14F10094   3.817   3.442   9.238 -0.8831 -1.5051 -0.6614
  100OSM   H14G10095   3.936   3.363   9.145 -2.6668  0.9281 -0.8390
  100OSM   C15F10096   3.834   3.516   9.036 -0.7369 -0.1210  0.1776
  100OSM   H15F10097   3.907   3.502   8.954 -1.8466  0.0999 -0.8865
  100OSM   H15G10098   3.807   3.624   9.038  2.8078  1.0769 -3.7019
  100OSM   C16F10099   3.708   3.440   8.991  0.4212  0.8861  0.6307
  100OSM   H16F10100   3.644   3.442   9.082  3.2647 -1.4725  2.9185
  100OSM   H16G10101   3.732   3.331   8.990 -2.7387  0.0804 -1.3136
  100OSM   C17F10102   3.649   3.500   8.872  0.4188 -0.2043  1.2978
  100OSM   H17F10103   3.722   3.496   8.788  1.1881 -0.3274  1.9542
  100OSM   H17G10104   3.625   3.606   8.892  2.2642  0.5190 -0.0924
  100OSM   C18F10105   3.526   3.424   8.826  0.4525 -0.3558  0.4843
  100OSM   H18F10106   3.532   3.315   8.843 -0.1148 -0.4119  0.3637
  100OSM   H18G10107   3.523   3.446   8.717  1.1907 -3.1768 -0.1722
  100OSM   H18H10108   3.431   3.458   8.873  0.3254 -0.0244 -0.0057
  101OSM      N10109   6.219   4.416  11.022  0.0917 -0.2264 -0.5486
  101OSM    C1510110   6.271   4.397  11.160 -0.4176 -0.3005 -0.3706
  101OSM   H15A10111   6.375   4.423  11.168 -0.5960  0.5117 -0.5504
  101OSM   H15B10112   6.255   4.295  11.193  0.4029 -0.4358 -0.3940
  101OSM   H15C10113   6.225   4.466  11.230  0.6419  0.3717 -0.3236
  101OSM    C1410114   6.073   4.400  11.024  0.2998  0.1942  0.0791
  101OSM   H14A10115   6.037   4.392  10.922  0.8161 -0.8025 -0.0423
  101OSM   H14B10116   6.019   4.482  11.068  0.2032 -0.2636  0.8247
  101OSM   H14C10117   6.045   4.307  11.071 -1.2165  0.2615 -0.6310
  101OSM    C1310118   6.244   4.552  10.970 -0.7897  0.2787  0.4519
  101OSM   H13A10119   6.349   4.576  10.968 -0.8877  0.6567 -0.4256
  101OSM   H13B10120   6.201   4.631  11.031  1.3865  2.6737 -0.9042
  101OSM   H13C10121   6.202   4.548  10.871 -0.0093 -1.9685  0.1584
  101OSM    C1210122   6.291   4.314  10.930  0.8869  0.4386 -0.2155
  101OSM   H12A10123   6.254   4.332  10.831 -1.5520 -0.4539  0.4785
  101OSM   H12B10124   6.251   4.215  10.950  1.4369  0.5267  1.5417
  101OSM    C1110125   6.448   4.310  10.927  0.4061 -0.3149  0.4760
  101OSM   H11A10126   6.473   4.233  10.851 -1.6287 -0.3439 -0.2428
  101OSM   H11B10127   6.482   4.282  11.029 -0.7816 -1.9716  0.4539
  101OSM      P10128   6.612   4.466  10.788  0.6395  0.1123  0.4045
  101OSM    O1310129   6.613   4.611  10.772  0.0149 -0.4274  0.3551
  101OSM    O1410130   6.738   4.399  10.827 -0.2373  0.4690  0.0616
  101OSM    O1110131   6.548   4.396  10.661  0.0152  0.0720 -0.1471
  101OSM    O1210132   6.504   4.437  10.898 -0.1031  0.2082  0.1500
  101OSM    C1S10133   6.530   4.475  10.542  0.0653 -0.1655 -0.5854
  101OSM    H1S10134   6.629   4.480  10.492 -0.4347 -0.3434 -1.5994
  101OSM    H1T10135   6.496   4.580  10.554  1.4153  0.6478 -3.1193
  101OSM     NF10136   6.442   4.474  10.310  0.4115 -0.5098 -0.0408
  101OSM    HNF10137   6.372   4.538  10.276  1.3306 -0.1003 -1.2305
  101OSM    C2S10138   6.435   4.411  10.439 -0.4909 -0.1384  0.6049
  101OSM    H2S10139   6.470   4.305  10.438 -1.0166 -0.3702  2.5165
  101OSM    C3S10140   6.292   4.416  10.494 -0.0845  0.1935 -0.0654
  101OSM    H3S10141   6.254   4.520  10.486 -0.1681  0.2128  0.5351
  101OSM     O310142   6.290   4.366  10.628 -0.2831  0.0140  0.1585
  101OSM    HO310143   6.380   4.342  10.653 -1.1228 -0.4672  3.0663
  101OSM    C4S10144   6.202   4.323  10.405  0.2350 -0.0434  0.5612
  101OSM    H4S10145   6.205   4.214  10.417 -0.9855 -0.2932 -0.9509
  101OSM    C5S10146   6.118   4.365  10.306 -0.2847 -0.1427 -1.1729
  101OSM    H5S10147   6.122   4.473  10.289  1.1911 -0.1150 -0.7387
  101OSM    C6S10148   6.036   4.284  10.216  0.2715 -0.1480  0.0403
  101OSM    H6S10149   5.944   4.238  10.256 -0.8303  1.8110 -0.1104
  101OSM    H6T10150   6.105   4.207  10.175 -0.3366 -2.3103  2.7523
  101OSM    C7S10151   5.989   4.351  10.089  0.3640 -0.7648 -0.5395
  101OSM    H7S10152   6.075   4.401  10.039  2.8637 -1.8668  2.3584
  101OSM    H7T10153   5.918   4.428  10.126  0.7759 -1.0594  0.9351
  101OSM    C8S10154   5.914   4.262   9.992 -0.3935  0.1525 -0.2419
  101OSM    H8S10155   5.840   4.193  10.037  1.0358 -1.4640 -0.2934
  101OSM    H8T10156   5.983   4.181   9.962 -2.5106 -1.7836 -0.1600
  101OSM    C9S10157   5.847   4.334   9.871  0.4104  0.3293 -0.8582
  101OSM    H9S10158   5.922   4.398   9.819  1.9585 -1.2450 -0.6696
  101OSM    H9T10159   5.767   4.402   9.906  0.5204  0.2625 -0.4695
  101OSM   C10S10160   5.788   4.241   9.762 -0.6107 -0.0274 -0.3620
  101OSM   H10S10161   5.719   4.167   9.807  1.4802 -0.9429  1.5604
  101OSM   H10T10162   5.878   4.176   9.747 -0.8222 -0.4147  0.0244
  101OSM   C11S10163   5.727   4.310   9.640  0.5318  0.0971  0.0708
  101OSM   H11S10164   5.770   4.410   9.616  0.8919 -0.3253 -1.0709
  101OSM   H11T10165   5.624   4.336   9.672  0.3005 -1.0137  0.2580
  101OSM   C12S10166   5.712   4.222   9.512  0.5684 -0.1276  0.5792
  101OSM   H12S10167   5.608   4.184   9.503  1.1799 -1.7863  0.1654
  101OSM   H12T10168   5.781   4.135   9.523  1.8149  0.8511  0.8115
  101OSM   C13S10169   5.745   4.300   9.382  0.4776  0.0992  1.0539
  101OSM   H13S10170   5.829   4.366   9.413 -0.5193  0.9478  2.0326
  101OSM   H13T10171   5.668   4.374   9.352  0.4739  0.2777  1.5028
  101OSM   C14S10172   5.762   4.223   9.250  0.0929 -0.2114 -0.3985
  101OSM   H14S10173   5.754   4.295   9.166 -0.3425  1.8733  1.3466
  101OSM   H14T10174   5.688   4.140   9.242  0.4790 -1.2339  3.9666
  101OSM   C15S10175   5.906   4.167   9.236  0.5475 -0.6268 -0.0223
  101OSM   H15S10176   5.923   4.084   9.308 -0.7476 -0.3397  0.6558
  101OSM   H15T10177   5.979   4.248   9.257  1.1283 -1.2162  0.2496
  101OSM   C16S10178   5.941   4.129   9.092  0.2535 -0.3427  0.1787
  101OSM   H16S10179   5.971   4.225   9.045  2.0129 -1.5870 -1.4188
  101OSM   H16T10180   5.855   4.090   9.034 -1.2188  0.6453  1.6409
  101OSM   C17S10181   6.055   4.030   9.091 -0.2925 -0.0034 -0.4718
  101OSM   H17S10182   6.101   4.016   8.991  2.0656 -1.9573  0.7705
  101OSM   H17T10183   6.007   3.936   9.126 -1.2922  0.9835  0.8905
  101OSM   C18S10184   6.175   4.060   9.178  0.6436 -0.4091  0.3484
  101OSM   H18S10185   6.246   3.975   9.173  0.9109 -0.1241 -2.1646
  101OSM   H18T10186   6.148   4.059   9.286 -0.0984 -1.7572  0.1637
  101OSM   H18U10187   6.229   4.154   9.150 -0.0188 -0.2203 -0.3292
  101OSM    C1F10188   6.545   4.456  10.230 -0.2820  0.2825  0.7575
  101OSM     OF10189   6.651   4.414  10.277 -0.2263  0.2029 -0.8942
  101OSM    C2F10190   6.514   4.476  10.088 -0.5485  0.3712 -0.6902
  101OSM    H2F10191   6.462   4.572  10.073 -2.4817 -0.3899  0.7229
  101OSM    H2G10192   6.450   4.390  10.059 -0.1802 -0.0095 -0.3955
  101OSM    C3F10193   6.630   4.489   9.985  0.1544 -0.1265  0.2835
  101OSM    H3F10194   6.686   4.394   9.976  1.1139  0.3968  0.6183
  101OSM    H3G10195   6.699   4.570  10.015 -0.4743 -0.2525  2.2589
  101OSM    C4F10196   6.561   4.514   9.847 -0.6418  0.0932 -0.1663
  101OSM    H4F10197   6.515   4.615   9.852  0.4289  0.5935 -0.2341
  101OSM    H4G10198   6.486   4.432   9.837 -2.0682  1.4101 -0.5779
  101OSM    C5F10199   6.656   4.521   9.726 -0.0005  0.1216  0.3457
  101OSM    H5F10200   6.723   4.433   9.720  0.0089  0.1955 -0.9638
  101OSM    H5G10201   6.727   4.605   9.741 -0.4650  0.0763  3.2127
  101OSM    C6F10202   6.581   4.550   9.591  0.0106 -0.1127 -0.5901
  101OSM    H6F10203   6.511   4.466   9.576 -0.0024 -0.4301  1.0308
  101OSM    H6G10204   6.519   4.640   9.613  0.3453  0.0405 -0.2622
  101OSM    C7F10205   6.666   4.557   9.460 -0.9752  0.6311  0.2728
  101OSM    H7F10206   6.713   4.457   9.445 -2.3855  0.1538 -1.2518
  101OSM    H7G10207   6.748   4.630   9.479  0.7361 -0.3202 -2.7080
  101OSM    C8F10208   6.575   4.601   9.348 -0.0193 -0.6955 -0.2365
  101OSM    H8F10209   6.536   4.705   9.357  1.2581  0.0643 -2.6496
  101OSM    H8G10210   6.479   4.546   9.358 -0.1156 -0.5020 -0.0792
  101OSM    C9F10211   6.641   4.585   9.212  0.1172 -0.3356  0.7616
  101OSM    H9F10212   6.715   4.661   9.187  0.1541 -0.2174  1.2145
  101OSM   C10F10213   6.627   4.488   9.125 -0.0702 -0.9962  0.4060
  101OSM   H10F10214   6.674   4.495   9.026 -3.9611  0.5871 -1.5455
  101OSM   C11F10215   6.536   4.364   9.138 -0.4707  0.1363  0.2177
  101OSM   H11F10216   6.514   4.345   9.246 -0.1710  2.0277  0.6441
  101OSM   H11G10217   6.578   4.272   9.092 -1.5792 -1.4353  2.1609
  101OSM   C12F10218   6.396   4.398   9.069  0.4072  0.5801 -0.3294
  101OSM   H12F10219   6.340   4.464   9.139 -0.0384  1.2017 -1.2590
  101OSM   H12G10220   6.345   4.299   9.073  2.3463 -0.4307  1.4142
  101OSM   C13F10221   6.417   4.441   8.927  0.9031  0.4245 -0.2323
  101OSM   H13F10222   6.485   4.365   8.882  0.0815 -0.7934  0.5043
  101OSM   H13G10223   6.468   4.539   8.925  1.3069  0.2082 -1.1393
  101OSM   C14F10224   6.289   4.466   8.854  0.3022  0.5871  0.2885
  101OSM   H14F10225   6.312   4.510   8.755 -0.9466 -0.7720 -0.6458
  101OSM   H14G10226   6.228   4.546   8.903  1.0263  1.1955  0.2200
  101OSM   C15F10227   6.213   4.333   8.829 -0.4076  0.6024  0.1437
  101OSM   H15F10228   6.178   4.296   8.928 -1.9021 -0.2451 -0.6573
  101OSM   H15G10229   6.284   4.264   8.778  0.1147  0.2919  1.2561
  101OSM   C16F10230   6.084   4.348   8.743 -0.3567 -0.1412 -0.3858
  101OSM   H16F10231   6.097   4.405   8.648  2.8268  2.5907  1.4835
  101OSM   H16G10232   6.040   4.423   8.811  1.3575  0.7346 -0.1898
  101OSM   C17F10233   5.996   4.222   8.712  0.2284  0.3432 -0.7661
  101OSM   H17F10234   5.946   4.186   8.805 -0.1462  0.8855 -0.7518
  101OSM   H17G10235   6.071   4.147   8.680  1.0049  0.6565  0.2743
  101OSM   C18F10236   5.891   4.244   8.602  0.4363  0.1638  0.8247
  101OSM   H18F10237   5.793   4.269   8.648  0.2824 -0.7744  1.0331
  101OSM   H18G10238   5.863   4.151   8.547  0.5346 -0.1747  1.3461
  101OSM   H18H10239   5.925   4.329   8.539  1.1358 -1.9835 -1.9056
  102OSM      N10240   1.800   6.701  11.020 -0.3129  0.3145  0.4466
  102OSM    C1510241   1.667   6.642  11.059 -0.0711  0.1989  0.2396
  102OSM   H15A10242   1.616   6.588  10.981 -1.1655  0.4850  0.7333
  102OSM   H15B10243   1.600   6.715  11.103  0.1836 -0.0747  1.0950
  102OSM   H15C10244   1.669   6.564  11.134 -1.6022 -0.6569 -0.5589
  102OSM    C1410245   1.776   6.835  10.955 -0.6437  0.1006 -1.0165
  102OSM   H14A10246   1.867   6.886  10.926 -0.0643 -0.8595 -0.9010
  102OSM   H14B10247   1.725   6.903  11.022 -0.4213  1.2330 -1.9534
  102OSM   H14C10248   1.717   6.830  10.864 -0.5672  0.5960 -1.0999
  102OSM    C1310249   1.886   6.701  11.142 -0.7476  0.2889  0.2074
  102OSM   H13A10250   1.987   6.740  11.131 -0.2826 -0.7163  0.8146
  102OSM   H13B10251   1.906   6.602  11.179 -1.4016  0.6981  1.7362
  102OSM   H13C10252   1.833   6.765  11.210 -1.3820 -1.8766  1.8278
  102OSM    C1210253   1.871   6.623  10.910 -0.8232 -0.7409  0.2713
  102OSM   H12A10254   1.958   6.683  10.891 -0.6679 -0.0473  2.8798
  102OSM   H12B10255   1.827   6.625  10.811  1.4766  2.1401 -0.8069
  102OSM    C1110256   1.911   6.477  10.948  0.5282  0.0555  0.2717
  102OSM   H11A10257   1.815   6.427  10.968  0.8252 -0.8184 -0.4604
  102OSM   H11B10258   1.967   6.479  11.045 -1.7420  0.7077  1.6457
  102OSM      P10259   1.934   6.363  10.717  0.0975 -0.3988 -0.4331
  102OSM    O1310260   2.038   6.320  10.626  0.3958 -0.4709  0.4711
  102OSM    O1410261   1.833   6.259  10.752 -0.4214 -0.0545  1.0123
  102OSM    O1110262   1.861   6.491  10.647 -0.0424  0.2878 -0.8873
  102OSM    O1210263   1.993   6.418  10.850 -0.3014  0.4142  0.1373
  102OSM    C1S10264   1.946   6.591  10.594 -0.1627  0.8337  0.0174
  102OSM    H1S10265   2.050   6.561  10.572  0.2997  3.0993 -1.1555
  102OSM    H1T10266   1.951   6.681  10.659  0.3888  1.8620 -1.3870
  102OSM     NF10267   1.980   6.750  10.414  0.4918  0.1512  0.3691
  102OSM    HNF10268   1.958   6.847  10.416 -0.1444  0.0319 -0.4623
  102OSM    C2S10269   1.886   6.647  10.465 -0.1870 -0.1641  0.1123
  102OSM    H2S10270   1.878   6.564  10.392 -0.3521 -1.0990  1.1785
  102OSM    C3S10271   1.749   6.710  10.480  0.7049 -0.4022 -0.0194
  102OSM    H3S10272   1.748   6.787  10.561 -1.4557  0.0820 -0.4356
  102OSM     O310273   1.660   6.610  10.526 -0.9107 -0.4667  0.4698
  102OSM    HO310274   1.726   6.548  10.558  2.5763  1.6818 -1.8870
  102OSM    C4S10275   1.704   6.767  10.347 -0.2055 -0.1607  0.8661
  102OSM    H4S10276   1.656   6.866  10.346 -0.9101 -0.4747 -1.0127
  102OSM    C5S10277   1.680   6.696  10.229 -0.7281 -0.0842 -0.5263
  102OSM    H5S10278   1.687   6.587  10.220  1.1953  0.1281 -2.2591
  102OSM    C6S10279   1.625   6.752  10.095  0.3699  0.4487  0.1512
  102OSM    H6S10280   1.549   6.684  10.049  2.4253 -1.7998 -0.0988
  102OSM    H6T10281   1.711   6.751  10.024  1.1294 -0.4780  1.0686
  102OSM    C7S10282   1.572   6.899  10.078  0.2455  0.1919 -0.0534
  102OSM    H7S10283   1.627   6.965  10.148 -1.6570  0.5030  1.2207
  102OSM    H7T10284   1.463   6.889  10.095 -0.0048  0.4531 -1.4080
  102OSM    C8S10285   1.593   6.947   9.938 -0.5353  0.8316  0.2878
  102OSM    H8S10286   1.545   6.880   9.864  0.6989 -0.5530  0.6750
  102OSM    H8T10287   1.700   6.935   9.913 -0.2695  2.5497  0.5036
  102OSM    C9S10288   1.565   7.095   9.926 -0.5813 -0.1362 -0.0454
  102OSM    H9S10289   1.625   7.145  10.006  0.7622  0.1122 -1.1712
  102OSM    H9T10290   1.455   7.109   9.921 -0.4933 -0.0071 -2.5606
  102OSM   C10S10291   1.623   7.148   9.789  0.7145 -0.9716 -0.5863
  102OSM   H10S10292   1.732   7.168   9.794  0.9457 -2.2961  0.1570
  102OSM   H10T10293   1.562   7.238   9.767  0.9939 -0.3943  0.8784
  102OSM   C11S10294   1.600   7.056   9.667  0.1451  0.0207  0.2256
  102OSM   H11S10295   1.493   7.024   9.664 -0.6190  2.4051  0.4533
  102OSM   H11T10296   1.656   6.962   9.689  1.0561  0.4969 -0.0585
  102OSM   C12S10297   1.645   7.108   9.527  0.1508 -0.2886 -0.5037
  102OSM   H12S10298   1.754   7.129   9.530 -0.2719  2.0784  0.9335
  102OSM   H12T10299   1.593   7.205   9.510 -0.6948 -0.4424  1.0452
  102OSM   C13S10300   1.628   6.993   9.422  0.6745 -0.3880  0.0471
  102OSM   H13S10301   1.523   6.983   9.386  0.8178 -0.6441 -0.3030
  102OSM   H13T10302   1.652   6.899   9.477  0.5397 -0.0910  0.6289
  102OSM   C14S10303   1.707   6.996   9.289  0.5365  0.3823  0.4715
  102OSM   H14S10304   1.813   6.976   9.315  0.4323 -0.5706  0.2319
  102OSM   H14T10305   1.688   7.102   9.264 -1.4104 -0.4537 -1.9772
  102OSM   C15S10306   1.640   6.901   9.191 -1.0164  0.3676 -0.0362
  102OSM   H15S10307   1.552   6.964   9.164 -0.3492  1.9036  1.2112
  102OSM   H15T10308   1.614   6.799   9.228 -1.6283  1.3630  2.5289
  102OSM   C16S10309   1.726   6.876   9.063  0.1508 -0.1217  0.0467
  102OSM   H16S10310   1.810   6.811   9.096  1.0503  0.7477 -0.4743
  102OSM   H16T10311   1.769   6.969   9.020 -3.3339  1.1248 -1.0836
  102OSM   C17S10312   1.651   6.803   8.958 -0.1369  0.0091 -0.5254
  102OSM   H17S10313   1.565   6.867   8.927  0.2972  0.2274 -1.3079
  102OSM   H17T10314   1.618   6.708   9.005  1.9259 -0.7426 -0.4978
  102OSM   C18S10315   1.736   6.780   8.831  0.4625  0.1268  0.5211
  102OSM   H18S10316   1.832   6.730   8.855 -1.4742 -3.2425  1.9699
  102OSM   H18T10317   1.764   6.876   8.782 -2.5101  2.3027  2.6384
  102OSM   H18U10318   1.680   6.712   8.764 -0.5356  1.5827 -0.1730
  102OSM    C1F10319   2.093   6.707  10.351 -0.1097  0.2166 -0.0197
  102OSM     OF10320   2.129   6.591  10.359  0.2558 -0.0632 -0.0360
  102OSM    C2F10321   2.171   6.806  10.271  0.4530 -0.3525  0.3888
  102OSM    H2F10322   2.266   6.826  10.326 -1.1635 -1.7023  3.9472
  102OSM    H2G10323   2.104   6.894  10.263 -0.9929 -1.5373 -1.1648
  102OSM    C3F10324   2.196   6.754  10.129 -0.1328  0.0546  0.1860
  102OSM    H3F10325   2.249   6.657  10.123 -0.0208  0.1866 -2.5018
  102OSM    H3G10326   2.263   6.830  10.084 -2.5921  1.6653 -1.0272
  102OSM    C4F10327   2.072   6.737  10.042 -0.3896 -0.2769 -0.7761
  102OSM    H4F10328   2.002   6.816  10.078 -0.5909 -0.4991 -0.6798
  102OSM    H4G10329   2.034   6.633  10.051  1.0943 -0.6862  1.7440
  102OSM    C5F10330   2.098   6.768   9.894  0.9271  0.7426 -0.0117
  102OSM    H5F10331   2.016   6.713   9.842  0.4006  2.7280 -1.3926
  102OSM    H5G10332   2.196   6.730   9.859 -0.3544 -0.7057 -2.3404
  102OSM    C6F10333   2.094   6.916   9.845 -0.0015  0.4410 -0.1014
  102OSM    H6F10334   2.161   6.970   9.916  0.4640  0.9743 -0.9246
  102OSM    H6G10335   1.988   6.948   9.850  0.6813  2.7796  2.2193
  102OSM    C7F10336   2.155   6.938   9.705 -0.4195 -0.1705 -0.4711
  102OSM    H7F10337   2.106   6.864   9.639  0.1246 -2.0203  1.1081
  102OSM    H7G10338   2.264   6.922   9.702 -0.3716 -0.1581  0.5842
  102OSM    C8F10339   2.118   7.073   9.636  0.1768 -0.2081 -0.8341
  102OSM    H8F10340   2.114   7.154   9.712 -0.9763 -0.1916 -0.8897
  102OSM    H8G10341   2.013   7.060   9.603 -1.6182  1.5490  3.4286
  102OSM    C9F10342   2.226   7.111   9.540  0.1541 -0.4091 -0.1170
  102OSM    H9F10343   2.316   7.148   9.591  0.9868 -0.3047 -1.6047
  102OSM   C10F10344   2.240   7.083   9.409  1.0485  0.0455  0.1033
  102OSM   H10F10345   2.325   7.122   9.352  0.5260  0.6616 -0.2632
  102OSM   C11F10346   2.134   7.017   9.327  0.3909 -0.0818 -0.6112
  102OSM   H11F10347   2.119   7.054   9.223 -1.8207 -0.1526 -0.3688
  102OSM   H11G10348   2.032   7.046   9.361  1.1470  1.7122  0.3025
  102OSM   C12F10349   2.148   6.865   9.316 -0.2181  0.0256  0.2364
  102OSM   H12F10350   2.052   6.812   9.301 -0.9926  1.2923  0.5325
  102OSM   H12G10351   2.182   6.820   9.412 -0.1439 -3.7741 -1.4068
  102OSM   C13F10352   2.238   6.822   9.202  0.4181  0.0799  0.3077
  102OSM   H13F10353   2.269   6.716   9.212  0.2814 -0.1273 -1.1207
  102OSM   H13G10354   2.334   6.874   9.222 -0.0631  1.1360 -0.0607
  102OSM   C14F10355   2.198   6.847   9.050  0.3702  0.9477 -0.4058
  102OSM   H14F10356   2.297   6.859   9.001  1.2711 -1.7827  0.5531
  102OSM   H14G10357   2.136   6.939   9.058 -4.0796 -1.6900 -0.9512
  102OSM   C15F10358   2.102   6.734   8.996 -0.1994 -0.7056 -0.2450
  102OSM   H15F10359   2.062   6.754   8.894 -0.7006 -1.5991 -0.2319
  102OSM   H15G10360   2.019   6.727   9.069 -0.4423 -0.7169 -0.5186
  102OSM   C16F10361   2.156   6.592   8.975  0.4803 -0.2650  0.1468
  102OSM   H16F10362   2.083   6.538   8.910 -0.2326  0.7657  0.0581
  102OSM   H16G10363   2.176   6.537   9.070  0.3290 -0.4884  0.0510
  102OSM   C17F10364   2.299   6.589   8.914 -0.2771  0.2285 -0.1755
  102OSM   H17F10365   2.335   6.484   8.915 -2.2431 -0.4740  0.8941
  102OSM   H17G10366   2.368   6.648   8.978 -0.6222 -1.2986  1.6915
  102OSM   C18F10367   2.292   6.635   8.765 -0.2653 -0.4231 -0.5468
  102OSM   H18F10368   2.233   6.561   8.706 -2.6994  0.5810  0.4947
  102OSM   H18G10369   2.388   6.641   8.709 -0.2071 -1.5561 -0.6063
  102OSM   H18H10370   2.233   6.729   8.761  0.4012  0.0152 -0.2158
  103OSM      N10371   2.348   4.877  10.613 -0.2626 -0.6984  0.0643
  103OSM    C1510372   2.290   4.820  10.489  0.0264 -0.6798  0.7916
  103OSM   H15A10373   2.278   4.888  10.406 -0.9100 -2.4306 -0.5835
  103OSM   H15B10374   2.198   4.775  10.525  0.5288  0.3397  3.6557
  103OSM   H15C10375   2.351   4.746  10.440  1.0165  1.9188 -2.2025
  103OSM    C1410376   2.492   4.902  10.589  0.0071 -0.2024  0.8050
  103OSM   H14A10377   2.500   4.978  10.513 -0.2089  1.2554  2.1953
  103OSM   H14B10378   2.550   4.823  10.545 -1.3594  0.4248 -2.3593
  103OSM   H14C10379   2.554   4.939  10.669  1.9688 -1.6617  0.0436
  103OSM    C1310380   2.278   5.002  10.646 -0.5883 -0.9057  0.0358
  103OSM   H13A10381   2.345   5.063  10.703 -0.7120 -1.6873  1.0435
  103OSM   H13B10382   2.179   4.989  10.688  0.2864 -1.8078  1.9507
  103OSM   H13C10383   2.267   5.060  10.555 -0.2625  0.0877  0.6157
  103OSM    C1210384   2.337   4.784  10.728 -0.1684  0.1416  0.0548
  103OSM   H12A10385   2.407   4.810  10.805 -0.4062  0.8786  0.0292
  103OSM   H12B10386   2.380   4.692  10.691  3.2160  2.3331 -1.9638
  103OSM    C1110387   2.194   4.745  10.781  0.6065 -0.2833 -0.3572
  103OSM   H11A10388   2.132   4.837  10.795 -2.6661 -2.0085 -2.2960
  103OSM   H11B10389   2.214   4.688  10.874  1.3437  0.3307 -0.1274
  103OSM      P10390   2.164   4.515  10.645 -0.2840 -0.3866  0.5274
  103OSM    O1310391   2.211   4.508  10.505  0.0651 -0.6141 -0.3812
  103OSM    O1410392   2.256   4.467  10.754 -0.0034  0.4692 -0.6807
  103OSM    O1110393   2.034   4.430  10.662  0.1983 -0.2249  0.6095
  103OSM    O1210394   2.119   4.667  10.684 -0.5146  0.2929 -0.3864
  103OSM    C1S10395   1.905   4.457  10.617  0.5375  0.0308  0.1038
  103OSM    H1S10396   1.893   4.568  10.625  2.8433  0.3337  0.1231
  103OSM    H1T10397   1.819   4.416  10.674  0.0091 -0.4314 -1.0034
  103OSM     NF10398   1.753   4.460  10.426  0.6864  0.3370 -0.4601
  103OSM    HNF10399   1.695   4.388  10.388  1.5942 -0.3499 -0.6077
  103OSM    C2S10400   1.877   4.411  10.473 -0.3638  0.0120  0.1356
  103OSM    H2S10401   1.957   4.460  10.414  0.2867  2.9922  3.1555
  103OSM    C3S10402   1.894   4.261  10.454 -1.0923 -0.2897 -0.2558
  103OSM    H3S10403   1.827   4.201  10.518 -1.5594 -1.7622 -2.0281
  103OSM     O310404   2.023   4.217  10.486 -0.0704  0.2522  0.2427
  103OSM    HO310405   2.056   4.288  10.542 -0.1948 -1.3003  2.4211
  103OSM    C4S10406   1.869   4.226  10.308  0.5713 -0.5782 -1.0011
  103OSM    H4S10407   1.934   4.272  10.232 -0.7342  0.3902 -1.5815
  103OSM    C5S10408   1.767   4.149  10.272 -0.1429 -0.1821 -0.5700
  103OSM    H5S10409   1.711   4.099  10.353  0.6458  0.1953  0.2214
  103OSM    C6S10410   1.757   4.106  10.130  0.8581 -0.4311  0.4468
  103OSM    H6S10411   1.844   4.144  10.072  2.0195 -3.2023  0.1989
  103OSM    H6T10412   1.678   4.161  10.076  1.4954  0.6314  0.5733
  103OSM    C7S10413   1.757   3.955  10.113 -0.9292 -0.3649 -0.3906
  103OSM    H7S10414   1.669   3.914  10.166  0.4391 -0.0461  2.3272
  103OSM    H7T10415   1.849   3.916  10.163  0.4624  2.6430 -0.3638
  103OSM    C8S10416   1.758   3.900   9.966  0.6868  0.0669 -0.5579
  103OSM    H8S10417   1.735   3.792   9.984 -2.3240  0.6312 -0.4379
  103OSM    H8T10418   1.849   3.914   9.904  0.6947 -3.2838 -1.4940
  103OSM    C9S10419   1.634   3.944   9.883  0.2536  0.4174 -0.4223
  103OSM    H9S10420   1.643   4.047   9.843  0.3300  0.0810 -1.2798
  103OSM    H9T10421   1.546   3.944   9.950  0.4725  1.3141 -0.1250
  103OSM   C10S10422   1.606   3.853   9.768  0.1770  0.2338 -0.3840
  103OSM   H10S10423   1.519   3.888   9.707 -1.4252 -1.0290  1.0485
  103OSM   H10T10424   1.583   3.750   9.804  0.9829  0.9287  2.3629
  103OSM   C11S10425   1.717   3.843   9.667  0.5389 -0.5646 -0.4199
  103OSM   H11S10426   1.801   3.786   9.711  0.4012  0.2571  0.9425
  103OSM   H11T10427   1.753   3.943   9.635 -1.8777  1.2570  2.0971
  103OSM   C12S10428   1.669   3.761   9.544 -0.9087 -0.2297 -0.7847
  103OSM   H12S10429   1.610   3.828   9.478  1.0436  2.3854 -0.0340
  103OSM   H12T10430   1.616   3.669   9.577  0.9450 -0.2865  2.4872
  103OSM   C13S10431   1.778   3.718   9.449 -0.7717  0.1085 -0.2989
  103OSM   H13S10432   1.846   3.642   9.491  0.7334  1.1874 -0.7013
  103OSM   H13T10433   1.832   3.813   9.429  0.5915 -0.9297 -1.7839
  103OSM   C14S10434   1.742   3.657   9.312 -0.3891  0.3959  0.5223
  103OSM   H14S10435   1.663   3.581   9.333 -1.5490  0.8054 -2.0602
  103OSM   H14T10436   1.829   3.603   9.270  1.8026  0.2513  4.7388
  103OSM   C15S10437   1.697   3.754   9.204 -0.2777  0.6608  0.3174
  103OSM   H15S10438   1.785   3.810   9.166  0.0938  0.8600  1.4472
  103OSM   H15T10439   1.640   3.838   9.250  2.3700  3.0092 -0.4542
  103OSM   C16S10440   1.619   3.699   9.080  0.7345  0.0465 -0.1355
  103OSM   H16S10441   1.635   3.765   8.992 -0.0428 -2.4216 -2.2473
  103OSM   H16T10442   1.512   3.697   9.113  0.7035  4.7598  0.7402
  103OSM   C17S10443   1.664   3.565   9.021  0.3040 -0.5376  0.1352
  103OSM   H17S10444   1.630   3.485   9.090 -0.5249 -0.0669  0.2891
  103OSM   H17T10445   1.775   3.561   9.025  0.2718 -1.5483  0.0856
  103OSM   C18S10446   1.629   3.548   8.877  0.0869  0.3329  1.2151
  103OSM   H18S10447   1.549   3.622   8.855  0.6949  1.5026  2.7613
  103OSM   H18T10448   1.589   3.453   8.837  0.1749  0.8148 -0.0720
  103OSM   H18U10449   1.718   3.565   8.812 -0.0775 -0.2116  0.8406
  103OSM    C1F10450   1.731   4.595  10.398 -0.0832 -0.0051 -0.2097
  103OSM     OF10451   1.809   4.678  10.444 -0.0014 -0.7362  0.0391
  103OSM    C2F10452   1.616   4.640  10.305 -0.1674  0.0748  0.0054
  103OSM    H2F10453   1.655   4.721  10.239  0.0324  1.1587  1.4015
  103OSM    H2G10454   1.545   4.682  10.380 -0.6472 -1.9999  0.7953
  103OSM    C3F10455   1.555   4.526  10.232  0.3810  0.2696 -0.4743
  103OSM    H3F10456   1.492   4.467  10.301 -0.3318 -2.2143 -3.0506
  103OSM    H3G10457   1.636   4.464  10.189  0.5171 -0.1381  0.3618
  103OSM    C4F10458   1.454   4.578  10.121 -0.0615  0.6826 -0.1485
  103OSM    H4F10459   1.517   4.642  10.055 -0.6040 -0.9272 -2.3130
  103OSM    H4G10460   1.371   4.634  10.170 -0.1878 -0.5775  1.1354
  103OSM    C5F10461   1.397   4.465  10.032 -0.3315 -0.6428 -0.5912
  103OSM    H5F10462   1.323   4.400  10.083  2.0136 -2.9722  0.0435
  103OSM    H5G10463   1.482   4.394  10.024 -0.6463 -1.0343 -0.4248
  103OSM    C6F10464   1.333   4.514   9.903  0.0106  0.2535 -0.2413
  103OSM    H6F10465   1.412   4.564   9.843 -0.2963 -1.1719 -1.9599
  103OSM    H6G10466   1.252   4.585   9.931  0.3625  0.6737 -0.2910
  103OSM    C7F10467   1.267   4.395   9.827  0.2491  0.0229  0.4773
  103OSM    H7F10468   1.187   4.373   9.901 -0.2974  0.9110  0.1612
  103OSM    H7G10469   1.348   4.318   9.821 -0.1226 -0.2867 -1.0665
  103OSM    C8F10470   1.232   4.426   9.678 -0.1011  0.5219 -1.2760
  103OSM    H8F10471   1.318   4.465   9.621 -0.0657  2.0764 -0.2075
  103OSM    H8G10472   1.146   4.496   9.676 -1.4607 -0.9602  0.7633
  103OSM    C9F10473   1.184   4.300   9.609  0.1942 -0.0326  0.2769
  103OSM    H9F10474   1.223   4.205   9.646  0.5877 -0.1442 -0.4098
  103OSM   C10F10475   1.100   4.307   9.498 -0.1547  0.2064 -0.7244
  103OSM   H10F10476   1.062   4.208   9.473 -2.4086  0.5267  1.0855
  103OSM   C11F10477   1.049   4.421   9.424  0.4535  0.1196 -0.1912
  103OSM   H11F10478   1.111   4.513   9.433  2.1278 -1.0698  1.0686
  103OSM   H11G10479   0.943   4.445   9.446  0.5661 -0.7116  1.4563
  103OSM   C12F10480   1.060   4.398   9.273  0.1715  0.2195 -0.3259
  103OSM   H12F10481   1.000   4.310   9.241 -0.2696  0.9916 -1.6834
  103OSM   H12G10482   1.164   4.373   9.244  0.0507  0.7472 -1.2670
  103OSM   C13F10483   1.022   4.521   9.188  0.2342  0.5450  0.3911
  103OSM   H13F10484   1.097   4.599   9.213  1.8602 -0.9701  0.3859
  103OSM   H13G10485   0.925   4.568   9.214 -0.6553 -0.3860 -1.1200
  103OSM   C14F10486   1.027   4.501   9.037 -0.1805  0.1308  0.3717
  103OSM   H14F10487   1.112   4.433   9.013 -0.9324 -1.5311  2.2063
  103OSM   H14G10488   1.052   4.594   8.982 -1.8760  0.0614 -0.5713
  103OSM   C15F10489   0.896   4.453   8.976 -0.1721 -0.1029 -0.4818
  103OSM   H15F10490   0.816   4.514   9.023  1.4062  1.2937  0.5466
  103OSM   H15G10491   0.882   4.348   9.008 -0.2693  0.0422 -0.0400
  103OSM   C16F10492   0.881   4.466   8.824  0.3937 -0.6027 -0.4496
  103OSM   H16F10493   0.971   4.429   8.771  0.4708 -1.4155  0.2294
  103OSM   H16G10494   0.869   4.574   8.801  0.9073 -0.7489 -1.4128
  103OSM   C17F10495   0.750   4.403   8.767 -0.2228  0.2848 -0.5507
  103OSM   H17F10496   0.669   4.405   8.843  0.0441 -0.7627 -0.2330
  103OSM   H17G10497   0.772   4.298   8.740 -1.0783 -0.2948  0.9230
  103OSM   C18F10498   0.702   4.472   8.639 -0.7198  0.1193 -0.3176
  103OSM   H18F10499   0.604   4.445   8.595 -0.9513  0.4806 -0.0337
  103OSM   H18G10500   0.776   4.437   8.564 -2.0265 -2.1864 -0.6237
  103OSM   H18H10501   0.694   4.583   8.648 -0.2490  0.3323 -2.0804
  104OSM      N10502   3.143   2.607  11.002  0.1371  0.2636 -0.1283
  104OSM    C1510503   3.273   2.544  11.035 -0.2335  0.1292 -0.7752
  104OSM   H15A10504   3.275   2.512  11.138 -1.8280  0.3275 -0.6578
  104OSM   H15B10505   3.356   2.610  11.014 -0.0394  0.1861  0.1444
  104OSM   H15C10506   3.279   2.457  10.970  0.7876  0.4506 -1.1328
  104OSM    C1410507   3.033   2.504  10.986 -1.0169  0.1989  0.3329
  104OSM   H14A10508   3.057   2.444  10.899  1.9124 -0.3200  1.3792
  104OSM   H14B10509   2.943   2.556  10.957 -0.1649  0.2372 -2.5321
  104OSM   H14C10510   3.026   2.446  11.077  0.9904 -0.3755  0.1846
  104OSM    C1310511   3.096   2.694  11.112 -0.1559 -0.2787  0.5126
  104OSM   H13A10512   3.010   2.757  11.098  2.0472  3.5262  2.4199
  104OSM   H13B10513   3.170   2.767  11.142 -1.4784  0.2271  2.8202
  104OSM   H13C10514   3.083   2.640  11.205  0.1953 -2.6718 -0.7679
  104OSM    C1210515   3.167   2.682  10.875  0.3109  0.3919  0.8140
  104OSM   H12A10516   3.070   2.699  10.830  1.5121 -0.2890 -2.3299
  104OSM   H12B10517   3.217   2.616  10.806  0.9758  0.4386  1.2413
  104OSM    C1110518   3.246   2.812  10.875  0.3675 -0.4451  0.1407
  104OSM   H11A10519   3.184   2.882  10.934 -0.3245 -1.1542  0.2713
  104OSM   H11B10520   3.255   2.850  10.771 -0.8104 -1.9157 -0.5331
  104OSM      P10521   3.516   2.789  10.873  0.1276 -0.2179 -0.4433
  104OSM    O1310522   3.556   2.902  10.787  0.0789 -0.5237 -0.1601
  104OSM    O1410523   3.604   2.765  10.988  0.0774  0.4562 -0.5783
  104OSM    O1110524   3.517   2.657  10.791 -0.1807  0.1185  0.3844
  104OSM    O1210525   3.374   2.807  10.935 -0.1869  0.0145  0.2187
  104OSM    C1S10526   3.507   2.675  10.646  0.1862 -0.1186  0.3444
  104OSM    H1S10527   3.599   2.726  10.610  0.6497 -2.3081 -1.8300
  104OSM    H1T10528   3.416   2.733  10.619  0.0027 -0.7068 -0.3446
  104OSM     NF10529   3.513   2.568  10.427  0.5490 -0.4023  0.2105
  104OSM    HNF10530   3.422   2.585  10.390 -0.1608 -1.0295  1.5958
  104OSM    C2S10531   3.502   2.534  10.569  0.0747  0.0606  0.0862
  104OSM    H2S10532   3.592   2.476  10.599 -1.6160 -2.2486  0.9591
  104OSM    C3S10533   3.374   2.453  10.606 -0.6639 -0.4367 -0.1317
  104OSM    H3S10534   3.291   2.517  10.570  0.0452 -0.3453 -1.6864
  104OSM     O310535   3.353   2.428  10.746 -0.4264 -0.9481  0.3544
  104OSM    HO310536   3.403   2.500  10.786  0.1746 -1.0391 -0.2284
  104OSM    C4S10537   3.376   2.320  10.537 -0.1173 -0.9352 -0.5811
  104OSM    H4S10538   3.427   2.240  10.591 -1.4768 -2.2613 -1.1921
  104OSM    C5S10539   3.312   2.302  10.416  0.5042  0.0679 -0.5431
  104OSM    H5S10540   3.266   2.394  10.378  0.6003  1.5844  2.6702
  104OSM    C6S10541   3.302   2.183  10.323  0.6810  0.1507 -0.2055
  104OSM    H6S10542   3.204   2.130  10.326  0.3305  0.6672 -1.8726
  104OSM    H6T10543   3.379   2.108  10.351 -0.4607 -1.7093 -1.8083
  104OSM    C7S10544   3.319   2.231  10.181  0.0794  0.1114  0.3039
  104OSM    H7S10545   3.422   2.271  10.174 -0.5709  1.7605 -0.2984
  104OSM    H7T10546   3.249   2.310  10.146  0.3155 -0.3887 -1.3817
  104OSM    C8S10547   3.301   2.107  10.092  0.6673  0.1462  0.3953
  104OSM    H8S10548   3.191   2.092  10.092  0.3635  1.9027  2.4343
  104OSM    H8T10549   3.349   2.021  10.144 -2.8155 -2.1310  0.2400
  104OSM    C9S10550   3.359   2.115   9.951 -0.5752 -0.0661 -0.1690
  104OSM    H9S10551   3.380   2.223   9.937 -2.0280  0.4058  1.0680
  104OSM    H9T10552   3.291   2.109   9.864  3.1480  1.0214 -3.4503
  104OSM   C10S10553   3.481   2.020   9.937  0.1620  0.0365  0.4571
  104OSM   H10S10554   3.434   1.920   9.951  2.2684 -1.0400  0.2675
  104OSM   H10T10555   3.553   2.039  10.019 -2.4859  1.1317  2.6979
  104OSM   C11S10556   3.561   2.016   9.805 -0.6268  0.7301 -0.3748
  104OSM   H11S10557   3.497   1.987   9.719 -0.8393 -1.0134  0.3413
  104OSM   H11T10558   3.646   1.945   9.809  0.7678  2.3540 -0.1383
  104OSM   C12S10559   3.615   2.153   9.771  0.3571 -0.4963  0.2537
  104OSM   H12S10560   3.663   2.195   9.862  2.0491 -0.1031 -0.7880
  104OSM   H12T10561   3.522   2.212   9.755  1.5122  1.7424  1.3415
  104OSM   C13S10562   3.716   2.157   9.658  0.4813  0.7280  0.4200
  104OSM   H13S10563   3.781   2.069   9.671  1.4888  1.3760 -0.1391
  104OSM   H13T10564   3.772   2.252   9.670 -1.5047  2.1297 -0.7701
  104OSM   C14S10565   3.649   2.130   9.518 -0.1808 -0.3724  0.2152
  104OSM   H14S10566   3.555   2.188   9.511  0.8898  1.2478 -2.3689
  104OSM   H14T10567   3.619   2.024   9.504 -0.9061 -0.4051  1.8321
  104OSM   C15S10568   3.737   2.173   9.399 -0.6699  0.4957  0.0963
  104OSM   H15S10569   3.835   2.122   9.409 -0.0745  1.0870 -2.1427
  104OSM   H15T10570   3.749   2.283   9.405  0.4111  0.3324  1.2190
  104OSM   C16S10571   3.666   2.127   9.266 -0.5283 -0.4189 -0.5434
  104OSM   H16S10572   3.572   2.187   9.268 -1.0264 -1.1625  1.8619
  104OSM   H16T10573   3.633   2.021   9.273 -1.3370 -0.1301  0.2260
  104OSM   C17S10574   3.766   2.151   9.154 -0.3350  0.3775  0.9929
  104OSM   H17S10575   3.865   2.115   9.186 -0.4849 -0.3816  0.6238
  104OSM   H17T10576   3.777   2.262   9.157 -0.7126  0.4247  0.7934
  104OSM   C18S10577   3.727   2.104   9.013  0.0547  0.5336 -0.1064
  104OSM   H18S10578   3.805   2.132   8.939 -0.7539 -1.3947 -1.7974
  104OSM   H18T10579   3.631   2.153   8.987 -0.7799 -0.0279  1.7905
  104OSM   H18U10580   3.711   1.994   9.015 -2.0373  0.8097  0.4807
  104OSM    C1F10581   3.630   2.599  10.367  0.2792 -0.6028 -0.4706
  104OSM     OF10582   3.726   2.611  10.441  0.0464 -0.5635 -0.2203
  104OSM    C2F10583   3.628   2.618  10.217 -0.0632 -0.4196  0.4063
  104OSM    H2F10584   3.599   2.725  10.210  1.8277  0.2023  1.4244
  104OSM    H2G10585   3.549   2.552  10.174 -0.0782  1.0343 -1.9478
  104OSM    C3F10586   3.768   2.595  10.141  0.4944 -0.7547  0.3599
  104OSM    H3F10587   3.820   2.500  10.165  0.6467 -0.4048  1.5016
  104OSM    H3G10588   3.834   2.679  10.174 -0.6726  0.2780  0.1291
  104OSM    C4F10589   3.755   2.611   9.983 -0.1951 -0.0232 -0.7473
  104OSM    H4F10590   3.862   2.627   9.955  0.4257  0.7056  1.8143
  104OSM    H4G10591   3.695   2.701   9.961  0.9406 -0.0642 -4.8577
  104OSM    C5F10592   3.709   2.488   9.909 -0.0824 -0.5088 -0.9263
  104OSM    H5F10593   3.636   2.439   9.977  0.5886 -1.5316 -0.9112
  104OSM    H5G10594   3.782   2.407   9.884  2.5923  0.8028  1.9454
  104OSM    C6F10595   3.636   2.525   9.779  0.3135 -0.2353 -0.1572
  104OSM    H6F10596   3.560   2.606   9.789  0.8459  0.1198  1.1980
  104OSM    H6G10597   3.590   2.427   9.753  0.8509 -0.7766  0.8710
  104OSM    C7F10598   3.725   2.568   9.660  0.0294  0.1885  0.3384
  104OSM    H7F10599   3.773   2.474   9.627 -0.0887  0.1883  0.1683
  104OSM    H7G10600   3.800   2.640   9.697  0.0694 -1.0654  2.9426
  104OSM    C8F10601   3.643   2.635   9.546 -0.5939  0.3441 -0.1053
  104OSM    H8F10602   3.700   2.699   9.475 -2.7338  1.5606 -0.8322
  104OSM    H8G10603   3.574   2.707   9.594  1.5135 -0.4279  4.5775
  104OSM    C9F10604   3.544   2.541   9.477 -0.3013  0.3855 -0.5221
  104OSM    H9F10605   3.485   2.480   9.546  1.0189  2.1856  2.3845
  104OSM   C10F10606   3.528   2.526   9.343 -0.1613 -0.4411 -0.4016
  104OSM   H10F10607   3.461   2.447   9.308 -1.7178  0.4196  0.5375
  104OSM   C11F10608   3.592   2.605   9.226  0.5617  0.3637  0.8905
  104OSM   H11F10609   3.659   2.684   9.266 -1.6418  3.2925 -0.8177
  104OSM   H11G10610   3.514   2.664   9.173  1.0809 -0.2600 -0.6412
  104OSM   C12F10611   3.655   2.516   9.119  0.1257 -0.3996 -0.0073
  104OSM   H12F10612   3.594   2.426   9.097  0.0814 -0.7005  1.2681
  104OSM   H12G10613   3.746   2.472   9.164 -0.3762 -0.7713  0.6535
  104OSM   C13F10614   3.698   2.592   8.986  0.0236  0.8455  0.1194
  104OSM   H13F10615   3.778   2.664   9.011  0.1548  1.5460 -2.1113
  104OSM   H13G10616   3.603   2.648   8.968 -2.3701 -1.6216  3.7481
  104OSM   C14F10617   3.729   2.495   8.876  0.9898  0.8372 -0.2108
  104OSM   H14F10618   3.670   2.400   8.880  2.0357  0.0701 -1.8601
  104OSM   H14G10619   3.835   2.465   8.890  1.0445  0.9642 -0.3485
  104OSM   C15F10620   3.712   2.563   8.740 -0.4732  0.1779  0.9696
  104OSM   H15F10621   3.753   2.664   8.759 -1.9782  0.8706  0.7014
  104OSM   H15G10622   3.604   2.568   8.714 -0.6374  1.8441  1.8466
  104OSM   C16F10623   3.782   2.494   8.620  0.0741 -0.9532  0.0597
  104OSM   H16F10624   3.747   2.389   8.606  1.4367 -1.5062  0.6190
  104OSM   H16G10625   3.892   2.486   8.638  0.0896 -2.3859 -0.5520
  104OSM   C17F10626   3.746   2.565   8.486  0.7942  0.3068 -0.3355
  104OSM   H17F10627   3.790   2.667   8.494 -0.9233  1.0020  0.7193
  104OSM   H17G10628   3.637   2.585   8.480  0.9804  1.5860  0.1975
  104OSM   C18F10629   3.792   2.481   8.372 -0.0575  0.0180  0.2046
  104OSM   H18F10630   3.787   2.541   8.278  2.6872  1.6966  1.0311
  104OSM   H18G10631   3.740   2.383   8.383 -2.6467  1.5152  2.7168
  104OSM   H18H10632   3.900   2.459   8.384  0.3300  0.7593 -1.5490
  105OSM      N10633   5.817   5.486  10.881 -0.4797 -0.3663  0.3654
  105OSM    C1510634   5.882   5.566  10.774 -0.5502 -0.0584  0.0948
  105OSM   H15A10635   5.840   5.665  10.764 -1.4665 -0.3297  1.0967
  105OSM   H15B10636   5.861   5.526  10.676 -0.2285 -0.1785  0.0728
  105OSM   H15C10637   5.988   5.576  10.791 -0.7166 -0.1584  1.2870
  105OSM    C1410638   5.907   5.369  10.906 -0.4572  0.3734  0.9102
  105OSM   H14A10639   5.997   5.406  10.952  0.4320 -0.0541 -0.4568
  105OSM   H14B10640   5.932   5.318  10.814  1.2160  2.5458  0.0752
  105OSM   H14C10641   5.861   5.297  10.972 -1.9098  0.8452  0.4529
  105OSM    C1310642   5.813   5.571  11.002 -0.2263  0.0181 -0.0474
  105OSM   H13A10643   5.912   5.598  11.037 -0.6013 -0.3934  1.3843
  105OSM   H13B10644   5.751   5.533  11.082 -0.2038  0.7618  0.3331
  105OSM   H13C10645   5.764   5.663  10.974  0.5421  0.7123  0.8193
  105OSM    C1210646   5.672   5.450  10.842  0.3728  0.4996 -0.0535
  105OSM   H12A10647   5.626   5.395  10.923 -0.5320  1.4660  0.1130
  105OSM   H12B10648   5.675   5.386  10.755  1.2031  1.4544 -0.7546
  105OSM    C1110649   5.572   5.562  10.818 -0.9085 -0.1667  0.4490
  105OSM   H11A10650   5.572   5.600  10.714  0.3820 -0.5534  0.2914
  105OSM   H11B10651   5.599   5.653  10.877 -0.8935 -0.0730  0.2977
  105OSM      P10652   5.375   5.393  10.774  0.0786  0.1001 -0.1039
  105OSM    O1310653   5.461   5.275  10.784 -0.1527  0.2362 -0.0292
  105OSM    O1410654   5.230   5.381  10.799  0.3916 -0.3026 -0.3854
  105OSM    O1110655   5.378   5.446  10.629  0.3730  0.1315 -0.4207
  105OSM    O1210656   5.439   5.516  10.858 -0.2743 -0.0297  0.0385
  105OSM    C1S10657   5.304   5.555  10.588  0.4675 -0.0453  0.2211
  105OSM    H1S10658   5.299   5.632  10.667 -0.0787  0.3216 -0.1633
  105OSM    H1T10659   5.202   5.525  10.554  1.3657 -0.0287 -2.8242
  105OSM     NF10660   5.282   5.756  10.437  0.2270  0.1029 -0.0186
  105OSM    HNF10661   5.210   5.759  10.368 -0.1406  3.7159  0.3348
  105OSM    C2S10662   5.360   5.630  10.463 -0.7609 -0.1032  0.1768
  105OSM    H2S10663   5.459   5.663  10.500 -0.1022 -0.3948 -1.2629
  105OSM    C3S10664   5.381   5.537  10.339  0.0122  0.5646 -0.2000
  105OSM    H3S10665   5.281   5.500  10.309  1.0188 -2.3082 -0.3725
  105OSM     O310666   5.436   5.417  10.382 -0.6288 -0.0656  0.0751
  105OSM    HO310667   5.384   5.397  10.459 -1.7724  0.1468 -0.6175
  105OSM    C4S10668   5.457   5.594  10.229  0.0473 -0.1467 -0.3178
  105OSM    H4S10669   5.566   5.587  10.242  0.0805  0.6570 -0.0751
  105OSM    C5S10670   5.408   5.620  10.109  0.2598 -0.1842  0.1277
  105OSM    H5S10671   5.304   5.594  10.084  0.5165 -2.8045  1.4600
  105OSM    C6S10672   5.495   5.668   9.995  0.8457 -0.1799 -1.2668
  105OSM    H6S10673   5.596   5.682  10.037 -0.6316  1.0317  2.2882
  105OSM    H6T10674   5.455   5.765   9.959 -3.7981 -0.8874  1.1965
  105OSM    C7S10675   5.500   5.563   9.884 -0.7052  0.3902  0.0253
  105OSM    H7S10676   5.399   5.537   9.847 -0.5022  0.9085 -0.9105
  105OSM    H7T10677   5.555   5.471   9.915 -0.6848 -0.6317 -2.7778
  105OSM    C8S10678   5.594   5.623   9.771  0.0193 -0.2195 -0.0329
  105OSM    H8S10679   5.614   5.551   9.689  1.3179  0.4757 -0.3492
  105OSM    H8T10680   5.695   5.634   9.816  0.6473  0.5102 -1.5169
  105OSM    C9S10681   5.539   5.747   9.693 -0.3314 -0.2456 -0.7334
  105OSM    H9S10682   5.507   5.827   9.763  0.2097 -0.9151  0.3047
  105OSM    H9T10683   5.450   5.710   9.638 -0.0610  0.6279 -1.7967
  105OSM   C10S10684   5.631   5.798   9.583  0.1422  0.3398  0.1378
  105OSM   H10S10685   5.727   5.743   9.578 -1.1670 -2.0201 -0.4766
  105OSM   H10T10686   5.659   5.903   9.607  3.2846 -0.5836  1.0005
  105OSM   C11S10687   5.565   5.777   9.447  0.0011 -0.0144 -0.1026
  105OSM   H11S10688   5.457   5.804   9.448 -0.4057 -1.1449 -2.7895
  105OSM   H11T10689   5.556   5.671   9.414  0.0224 -0.3664  1.0106
  105OSM   C12S10690   5.644   5.858   9.334 -0.1834  0.7541 -0.5779
  105OSM   H12S10691   5.739   5.806   9.307  1.1329  1.3453  2.4943
  105OSM   H12T10692   5.666   5.957   9.378  2.4273 -0.5592  1.3607
  105OSM   C13S10693   5.554   5.861   9.209 -0.2505  0.8814 -0.0148
  105OSM   H13S10694   5.473   5.934   9.232 -0.2574  0.5890  0.9178
  105OSM   H13T10695   5.500   5.766   9.193 -1.6599  1.0730  2.9360
  105OSM   C14S10696   5.642   5.904   9.088  0.2305 -0.0282 -0.4006
  105OSM   H14S10697   5.714   5.823   9.065  1.0423  0.4680  0.3288
  105OSM   H14T10698   5.703   5.987   9.131  0.5174 -0.0182 -0.8166
  105OSM   C15S10699   5.557   5.945   8.968 -0.4780  0.0499  0.3221
  105OSM   H15S10700   5.498   6.036   8.993 -0.3873  0.0658  0.4820
  105OSM   H15T10701   5.490   5.863   8.935  0.2845 -0.9287  1.1228
  105OSM   C16S10702   5.645   5.987   8.848  0.2591  0.0700 -0.6387
  105OSM   H16S10703   5.713   5.904   8.816 -0.0676 -0.0445 -1.0439
  105OSM   H16T10704   5.712   6.068   8.883 -0.2092  0.2610 -0.1722
  105OSM   C17S10705   5.562   6.050   8.736 -0.3149  0.0672  0.1645
  105OSM   H17S10706   5.637   6.101   8.671  0.8868  1.6483  2.6417
  105OSM   H17T10707   5.495   6.127   8.779 -1.6230  0.0713 -1.7557
  105OSM   C18S10708   5.475   5.948   8.651  0.0316  0.4248 -0.6520
  105OSM   H18S10709   5.453   5.998   8.553  1.5316  0.7483 -0.8461
  105OSM   H18T10710   5.376   5.935   8.699 -0.1222 -1.2315 -1.3502
  105OSM   H18U10711   5.528   5.852   8.636  0.6275  0.9238 -1.9689
  105OSM    C1F10712   5.278   5.868  10.522  0.2292 -0.2903  0.0119
  105OSM     OF10713   5.344   5.875  10.626  0.2474  0.4426 -0.2065
  105OSM    C2F10714   5.182   5.977  10.498  0.6074  0.1145 -0.3876
  105OSM    H2F10715   5.123   5.994  10.590 -0.2190 -0.5297 -0.7855
  105OSM    H2G10716   5.118   5.952  10.410 -0.1454  2.4681 -0.5942
  105OSM    C3F10717   5.257   6.103  10.456  1.1407 -0.0351 -0.1230
  105OSM    H3F10718   5.325   6.081  10.371  2.4698  0.8048  0.6803
  105OSM    H3G10719   5.319   6.144  10.539 -2.5221 -1.0880  3.4625
  105OSM    C4F10720   5.153   6.214  10.409  0.0635 -0.0057  0.4545
  105OSM    H4F10721   5.107   6.261  10.499  0.5610  2.0042 -0.3032
  105OSM    H4G10722   5.088   6.171  10.330  1.0274  2.2189 -1.6807
  105OSM    C5F10723   5.222   6.332  10.329  0.4387  0.9067 -0.0777
  105OSM    H5F10724   5.306   6.366  10.393 -0.8614  1.3233  1.4974
  105OSM    H5G10725   5.147   6.412  10.311 -0.7883 -0.4336 -1.2689
  105OSM    C6F10726   5.268   6.290  10.189  0.0004  0.0163  0.2978
  105OSM    H6F10727   5.185   6.284  10.116  1.3111 -2.6365 -1.1208
  105OSM    H6G10728   5.292   6.184  10.212  1.4623  0.1577 -0.5043
  105OSM    C7F10729   5.368   6.379  10.116 -0.0171 -0.6494  0.8185
  105OSM    H7F10730   5.463   6.387  10.172  0.2014  2.1061  0.2093
  105OSM    H7G10731   5.317   6.478  10.116  1.0251 -0.0903  2.0426
  105OSM    C8F10732   5.403   6.333   9.972 -0.8683 -0.3466 -0.5524
  105OSM    H8F10733   5.457   6.236   9.971  1.2365  0.6545  1.8672
  105OSM    H8G10734   5.472   6.408   9.928 -1.3311  0.7220  0.4763
  105OSM    C9F10735   5.280   6.316   9.897 -0.2843 -0.8013  0.5673
  105OSM    H9F10736   5.212   6.236   9.929 -2.6548  0.8617 -0.0088
  105OSM   C10F10737   5.240   6.400   9.794  0.0657  0.5853  0.0036
  105OSM   H10F10738   5.160   6.374   9.723  0.5268 -2.0066  0.3369
  105OSM   C11F10739   5.312   6.517   9.744  0.3312 -0.8817 -0.4264
  105OSM   H11F10740   5.402   6.535   9.805 -3.1506  2.7492  4.4493
  105OSM   H11G10741   5.255   6.612   9.750 -0.8866 -1.2269 -3.9567
  105OSM   C12F10742   5.343   6.513   9.596 -0.5592  0.1743 -0.0629
  105OSM   H12F10743   5.408   6.427   9.569  0.7465  0.8355  0.8611
  105OSM   H12G10744   5.404   6.604   9.574  0.4444 -0.0105  1.7410
  105OSM   C13F10745   5.227   6.511   9.501  0.3188  0.3133  0.5414
  105OSM   H13F10746   5.140   6.577   9.523 -1.2566 -0.8857 -1.6582
  105OSM   H13G10747   5.184   6.408   9.503  1.4052 -0.1481  0.6618
  105OSM   C14F10748   5.267   6.552   9.358  0.2940 -0.3838  0.3965
  105OSM   H14F10749   5.293   6.461   9.299 -2.6012 -0.2680 -1.2239
  105OSM   H14G10750   5.342   6.633   9.345 -1.9541  1.6699 -0.4987
  105OSM   C15F10751   5.140   6.590   9.283  0.6968  0.5047 -0.3220
  105OSM   H15F10752   5.098   6.685   9.324 -0.4085 -1.2967  3.0401
  105OSM   H15G10753   5.058   6.517   9.296  2.1043 -0.9249  0.8986
  105OSM   C16F10754   5.172   6.600   9.131  0.3232  0.1821 -0.0261
  105OSM   H16F10755   5.195   6.496   9.098 -1.3514 -0.7175  1.4916
  105OSM   H16G10756   5.254   6.673   9.113  1.2020 -0.7548  0.0521
  105OSM   C17F10757   5.048   6.646   9.046 -0.3662  0.5555 -0.4057
  105OSM   H17F10758   5.009   6.742   9.086 -1.1218  0.5744 -1.1467
  105OSM   H17G10759   4.969   6.568   9.045  2.0325 -2.0205 -1.4327
  105OSM   C18F10760   5.087   6.668   8.899 -0.5956 -0.5231  0.0382
  105OSM   H18F10761   5.119   6.574   8.851  2.2140 -0.9114  2.3933
  105OSM   H18G10762   5.170   6.741   8.886  0.7953 -2.1659 -0.6209
  105OSM   H18H10763   4.992   6.705   8.854 -1.0903 -0.8097  0.8217
  106OSM      N10764   3.948   5.316  10.491  0.1197 -0.9816 -0.5901
  106OSM    C1510765   3.811   5.267  10.496 -0.1001 -0.2745  0.5815
  106OSM   H15A10766   3.818   5.162  10.519  0.3402 -0.6723 -1.2286
  106OSM   H15B10767   3.768   5.279  10.397 -1.9950 -1.3946  1.2073
  106OSM   H15C10768   3.743   5.309  10.569 -3.8836 -2.0683 -1.6005
  106OSM    C1410769   4.006   5.290  10.630 -0.1133  0.5114 -0.6409
  106OSM   H14A10770   3.948   5.338  10.707 -2.5346 -0.8669 -1.5151
  106OSM   H14B10771   4.108   5.325  10.636  0.7991 -1.9912 -0.1750
  106OSM   H14C10772   4.004   5.184  10.652 -4.7011  0.6512  0.5072
  106OSM    C1310773   4.020   5.248  10.385 -0.1830 -0.2198  1.0116
  106OSM   H13A10774   3.968   5.256  10.290 -0.4016 -0.1662  1.1343
  106OSM   H13B10775   4.015   5.141  10.397  0.9680 -0.6534 -1.7016
  106OSM   H13C10776   4.127   5.257  10.379  0.1301 -3.4599 -1.1240
  106OSM    C1210777   3.948   5.463  10.465  0.3235 -0.8954  0.0132
  106OSM   H12A10778   3.885   5.504  10.543  1.6657 -1.2782  1.3369
  106OSM   H12B10779   3.893   5.489  10.375 -1.5774  0.3483  1.4451
  106OSM    C1110780   4.092   5.544  10.472  0.4990  0.4745  0.1387
  106OSM   H11A10781   4.080   5.645  10.426  1.6063 -0.1668 -1.6707
  106OSM   H11B10782   4.155   5.499  10.392  2.4292  1.5675  0.9674
  106OSM      P10783   4.180   5.663  10.687  0.0643 -0.3302 -0.5969
  106OSM    O1310784   4.047   5.721  10.708 -0.1006  1.0805 -0.3219
  106OSM    O1410785   4.256   5.630  10.810  0.2594  0.0354  0.2223
  106OSM    O1110786   4.267   5.756  10.598 -0.2757 -0.1656  0.4072
  106OSM    O1210787   4.170   5.531  10.592  0.0138 -0.6072 -0.3865
  106OSM    C1S10788   4.403   5.733  10.567  0.1483  0.5485  0.6013
  106OSM    H1S10789   4.426   5.627  10.592 -0.1028  0.9813  2.8810
  106OSM    H1T10790   4.466   5.802  10.626  0.6298  2.3445 -1.8949
  106OSM     NF10791   4.569   5.725  10.392 -0.7788 -0.5023 -0.2936
  106OSM    HNF10792   4.626   5.807  10.394  0.0970 -1.1005 -0.2141
  106OSM    C2S10793   4.432   5.757  10.420 -0.1763  0.4130  0.4349
  106OSM    H2S10794   4.373   5.693  10.350 -0.8261  0.1527  1.2115
  106OSM    C3S10795   4.391   5.896  10.368  0.0558 -0.7142 -0.4806
  106OSM    H3S10796   4.449   5.970  10.428 -1.2547  1.4467 -1.7607
  106OSM     O310797   4.254   5.933  10.382  0.7048  0.2888 -0.0392
  106OSM    HO310798   4.215   5.859  10.431  1.3169 -0.1435 -0.1903
  106OSM    C4S10799   4.428   5.903  10.225  0.1729  0.0594 -0.6255
  106OSM    H4S10800   4.347   5.886  10.152 -0.3886 -0.4658  0.1043
  106OSM    C5S10801   4.544   5.953  10.182 -0.1774  0.2690  0.5229
  106OSM    H5S10802   4.617   5.985  10.258  0.9340  1.0863 -0.8532
  106OSM    C6S10803   4.594   5.992  10.048  0.4211 -0.6037 -0.0265
  106OSM    H6S10804   4.667   5.915  10.015  0.0127 -0.9175 -0.2025
  106OSM    H6T10805   4.641   6.093  10.053  1.3625 -0.9567 -1.2823
  106OSM    C7S10806   4.482   5.994   9.939  0.0011 -0.2767  0.2116
  106OSM    H7S10807   4.404   6.071   9.956 -0.2814 -0.1513 -1.5503
  106OSM    H7T10808   4.437   5.893   9.949  0.5582 -0.4891  0.6468
  106OSM    C8S10809   4.534   5.991   9.797  0.2771 -0.5129  0.5778
  106OSM    H8S10810   4.641   5.961   9.805  0.8895  0.7047 -2.0361
  106OSM    H8T10811   4.543   6.094   9.757  2.7236 -0.5851  0.8061
  106OSM    C9S10812   4.455   5.905   9.696 -0.6474 -0.1392  0.2709
  106OSM    H9S10813   4.346   5.928   9.693 -0.3936  1.2183  0.7434
  106OSM    H9T10814   4.448   5.798   9.726 -1.4351  0.7241  3.5325
  106OSM   C10S10815   4.511   5.919   9.551  0.0299 -0.4278 -0.6578
  106OSM   H10S10816   4.589   5.840   9.547  0.7925  0.3272 -1.0272
  106OSM   H10T10817   4.562   6.017   9.537  0.5440 -0.4956  0.5890
  106OSM   C11S10818   4.411   5.911   9.434  0.3292  0.1295 -0.0268
  106OSM   H11S10819   4.345   6.001   9.432  0.7414  0.5042  1.6689
  106OSM   H11T10820   4.345   5.825   9.457  2.0001 -1.2101 -0.1166
  106OSM   C12S10821   4.483   5.872   9.304  0.9606 -0.0444  0.0613
  106OSM   H12S10822   4.548   5.783   9.317  0.2991 -0.5807 -0.2970
  106OSM   H12T10823   4.548   5.955   9.270  1.9500 -0.9469 -0.3039
  106OSM   C13S10824   4.382   5.826   9.189 -0.1402 -0.4794  0.5880
  106OSM   H13S10825   4.298   5.899   9.185 -0.3425 -0.6535  1.3465
  106OSM   H13T10826   4.346   5.723   9.210 -0.3380 -0.5766 -0.2250
  106OSM   C14S10827   4.447   5.814   9.054  0.3358  0.7325 -0.6565
  106OSM   H14S10828   4.504   5.721   9.076 -1.8447 -0.1154  1.9961
  106OSM   H14T10829   4.515   5.902   9.050 -0.6792  1.5529 -0.2809
  106OSM   C15S10830   4.367   5.813   8.921 -0.8058  0.3605  0.1992
  106OSM   H15S10831   4.293   5.895   8.909 -1.2493 -0.3366 -2.1531
  106OSM   H15T10832   4.311   5.718   8.914 -0.1157 -0.1438  1.1458
  106OSM   C16S10833   4.451   5.812   8.787  0.5815  0.0087  0.6349
  106OSM   H16S10834   4.518   5.900   8.797  2.5392 -1.4441  0.9576
  106OSM   H16T10835   4.383   5.839   8.704  1.5832 -1.6353 -0.7916
  106OSM   C17S10836   4.507   5.675   8.740  0.1286 -0.1539  0.0496
  106OSM   H17S10837   4.437   5.591   8.761  0.9019 -0.8859 -0.1917
  106OSM   H17T10838   4.601   5.665   8.798  0.5482 -1.4000 -0.7764
  106OSM   C18S10839   4.548   5.676   8.597 -0.0476 -0.1965  0.5299
  106OSM   H18S10840   4.464   5.694   8.528 -0.0309  0.4047  0.6542
  106OSM   H18T10841   4.592   5.577   8.575  0.6621  0.4467 -1.0900
  106OSM   H18U10842   4.624   5.757   8.590  1.6642 -1.2204  4.3984
  106OSM    C1F10843   4.620   5.605  10.406  0.5423 -0.0158  0.1934
  106OSM     OF10844   4.552   5.504  10.426 -0.3360  0.3433 -0.7034
  106OSM    C2F10845   4.767   5.599  10.405 -0.4750  0.2378 -0.8381
  106OSM    H2F10846   4.805   5.600  10.509  0.2702 -0.8461 -1.0794
  106OSM    H2G10847   4.814   5.688  10.359  0.7756 -0.8136 -1.6756
  106OSM    C3F10848   4.821   5.482  10.320  0.6912 -0.3749 -0.0033
  106OSM    H3F10849   4.774   5.485  10.220 -2.0380  0.4999  1.1854
  106OSM    H3G10850   4.794   5.387  10.370 -0.1422  0.9217  2.1904
  106OSM    C4F10851   4.968   5.488  10.294  0.8040  0.5056 -0.6173
  106OSM    H4F10852   5.006   5.463  10.394  1.4644 -0.3941 -1.0856
  106OSM    H4G10853   4.998   5.595  10.283  1.3636  0.4590  0.4172
  106OSM    C5F10854   5.034   5.389  10.193  0.0885  0.1678  0.6940
  106OSM    H5F10855   5.005   5.283  10.210 -0.0674 -0.2711 -1.9214
  106OSM    H5G10856   5.145   5.396  10.196  0.0856  0.4683  0.1379
  106OSM    C6F10857   4.994   5.405  10.045  0.6169 -0.3509 -0.2906
  106OSM    H6F10858   5.007   5.515  10.034  2.7063 -0.6128 -0.9462
  106OSM    H6G10859   4.889   5.377  10.023  0.7410 -0.5697 -0.6166
  106OSM    C7F10860   5.086   5.339   9.947 -0.2409 -0.1285  0.1477
  106OSM    H7F10861   5.058   5.232   9.957  0.5289 -0.2319  1.3021
  106OSM    H7G10862   5.190   5.364   9.977 -0.4463 -0.4258  1.1480
  106OSM    C8F10863   5.053   5.396   9.806  0.4502  0.2213 -0.8992
  106OSM    H8F10864   5.070   5.505   9.791  1.7078  0.2532  0.4969
  106OSM    H8G10865   4.949   5.374   9.776  0.2526 -3.2980  1.8069
  106OSM    C9F10866   5.136   5.324   9.707 -0.4820 -0.2343  0.2122
  106OSM    H9F10867   5.136   5.214   9.712  0.2476 -0.2014  1.3879
  106OSM   C10F10868   5.210   5.383   9.622  0.5734 -0.0492 -0.2472
  106OSM   H10F10869   5.274   5.321   9.557  0.4289 -0.1168 -0.3259
  106OSM   C11F10870   5.246   5.527   9.590  0.9216  0.0152  0.2796
  106OSM   H11F10871   5.355   5.536   9.568  1.2920 -0.2630  1.8328
  106OSM   H11G10872   5.224   5.602   9.669 -1.0601 -0.0742 -0.1283
  106OSM   C12F10873   5.176   5.570   9.461 -0.3201  0.2193  0.3785
  106OSM   H12F10874   5.198   5.676   9.435 -1.1577 -0.4336 -3.8496
  106OSM   H12G10875   5.066   5.572   9.476 -0.8333 -0.4211 -2.5831
  106OSM   C13F10876   5.225   5.495   9.337 -0.0819 -0.0757  0.0708
  106OSM   H13F10877   5.184   5.392   9.336 -1.8878  0.5828  1.3083
  106OSM   H13G10878   5.336   5.504   9.334 -0.1629  0.9561 -0.2447
  106OSM   C14F10879   5.177   5.571   9.211  0.1187 -0.6020 -0.8984
  106OSM   H14F10880   5.185   5.681   9.219  0.2772 -0.7673  4.3789
  106OSM   H14G10881   5.069   5.544   9.202 -0.3821  0.6167  0.9275
  106OSM   C15F10882   5.238   5.517   9.079  0.1463  0.0872 -0.4598
  106OSM   H15F10883   5.228   5.406   9.075 -0.2373  0.1039  0.0049
  106OSM   H15G10884   5.348   5.532   9.088  0.6107 -2.7979 -0.1898
  106OSM   C16F10885   5.190   5.584   8.956 -0.2063  0.0128  0.2452
  106OSM   H16F10886   5.207   5.694   8.961  0.6175 -0.0945 -0.0512
  106OSM   H16G10887   5.082   5.568   8.939 -0.5356  1.8950  0.3559
  106OSM   C17F10888   5.271   5.543   8.830 -0.2678  0.2154  0.5518
  106OSM   H17F10889   5.284   5.433   8.838 -0.7935  0.1642  0.7538
  106OSM   H17G10890   5.372   5.585   8.846  0.5342 -1.3549 -0.1596
  106OSM   C18F10891   5.200   5.583   8.698 -0.6204 -0.6993  0.6735
  106OSM   H18F10892   5.112   5.521   8.671  0.5340 -1.8328 -0.6293
  106OSM   H18G10893   5.283   5.573   8.626 -0.1766 -1.7522  1.3098
  106OSM   H18H10894   5.172   5.690   8.687  2.3550  0.0040 -0.8706
  107OSM      N10895   1.203   1.663  10.988  0.2644  0.4031 -0.0868
  107OSM    C1510896   1.112   1.598  10.897 -0.0109  0.5127  1.2598
  107OSM   H15A10897   1.134   1.493  10.887  1.2879  0.7450  1.4731
  107OSM   H15B10898   1.128   1.635  10.797 -2.2314 -1.0014  0.2527
  107OSM   H15C10899   1.008   1.619  10.916 -0.8229 -0.2196 -1.7996
  107OSM    C1410900   1.179   1.808  10.970 -0.7149  0.0721  0.4640
  107OSM   H14A10901   1.077   1.834  10.996  0.1334  1.7755  2.3260
  107OSM   H14B10902   1.211   1.843  10.874  1.3662  1.5648  1.6208
  107OSM   H14C10903   1.240   1.861  11.041  0.4835 -1.5998  0.7512
  107OSM    C1310904   1.165   1.615  11.133  0.0611 -0.4132  1.1925
  107OSM   H13A10905   1.177   1.508  11.136  0.9871 -0.5111 -2.0839
  107OSM   H13B10906   1.068   1.650  11.166  1.3725  3.1795  1.7037
  107OSM   H13C10907   1.236   1.668  11.196  0.3507  2.1101 -1.0661
  107OSM    C1210908   1.343   1.621  10.949 -0.3720 -0.0664  0.0284
  107OSM   H12A10909   1.342   1.514  10.965 -2.4937  0.0497  0.8978
  107OSM   H12B10910   1.404   1.676  11.019 -1.9435  2.2254 -0.3233
  107OSM    C1110911   1.387   1.659  10.803  0.5636  0.1539  0.1450
  107OSM   H11A10912   1.325   1.608  10.726  0.3668 -0.3594  0.6372
  107OSM   H11B10913   1.491   1.620  10.789  0.6833  0.5083  0.0286
  107OSM      P10914   1.503   1.890  10.834  0.1798  0.3067  0.6324
  107OSM    O1310915   1.454   2.025  10.869  0.1995 -0.3280 -0.0170
  107OSM    O1410916   1.580   1.820  10.943 -0.2283  0.2286  0.6128
  107OSM    O1110917   1.593   1.889  10.712 -0.2036 -0.7249 -0.0367
  107OSM    O1210918   1.384   1.798  10.777 -0.6608  0.6331 -0.6714
  107OSM    C1S10919   1.575   1.969  10.598 -0.0339  0.0369 -0.5007
  107OSM    H1S10920   1.633   2.063  10.611  0.0001 -0.1042  0.4025
  107OSM    H1T10921   1.469   2.002  10.593 -0.1260 -0.2560 -0.4981
  107OSM     NF10922   1.572   1.990  10.349 -0.5877 -0.4548  0.1455
  107OSM    HNF10923   1.495   1.959  10.294  0.3347  0.9687 -2.0967
  107OSM    C2S10924   1.618   1.907  10.455  0.4410  0.2501  0.0805
  107OSM    H2S10925   1.729   1.903  10.455  0.4459  0.2549 -1.0590
  107OSM    C3S10926   1.554   1.761  10.444 -0.5480 -0.2738 -1.1324
  107OSM    H3S10927   1.445   1.759  10.461 -0.2055 -0.8825  1.5678
  107OSM     O310928   1.616   1.677  10.548 -0.5604  0.4826  0.1593
  107OSM    HO310929   1.640   1.738  10.619  3.1345  0.0342 -0.5186
  107OSM    C4S10930   1.578   1.701  10.311  0.3273  0.0394 -0.3229
  107OSM    H4S10931   1.521   1.756  10.234 -0.2542  0.0087  0.0804
  107OSM    C5S10932   1.666   1.600  10.278 -1.3145 -0.3933 -0.5187
  107OSM    H5S10933   1.732   1.561  10.357 -0.8877  0.1583 -0.5947
  107OSM    C6S10934   1.689   1.551  10.138 -0.1519  0.4020 -0.2978
  107OSM    H6S10935   1.654   1.445  10.140 -3.6426  1.3917 -1.5755
  107OSM    H6T10936   1.796   1.556  10.109  0.1240  3.0397  0.8952
  107OSM    C7S10937   1.592   1.614  10.032  0.2176 -0.0256 -0.2423
  107OSM    H7S10938   1.637   1.714  10.015  0.4834  0.3902  2.4155
  107OSM    H7T10939   1.487   1.606  10.068  0.7984 -2.8499  1.0627
  107OSM    C8S10940   1.603   1.534   9.906 -0.2772  0.1289  0.3586
  107OSM    H8S10941   1.510   1.475   9.895 -0.5909  0.7456 -0.3483
  107OSM    H8T10942   1.690   1.465   9.918  1.3324  0.9120 -4.7269
  107OSM    C9S10943   1.612   1.625   9.787  0.3622 -0.4735  0.1035
  107OSM    H9S10944   1.717   1.646   9.758  0.6223 -0.2197  1.2003
  107OSM    H9T10945   1.557   1.717   9.817 -0.4909 -1.4022  1.5488
  107OSM   C10S10946   1.535   1.567   9.666 -0.2059  0.4255 -1.0818
  107OSM   H10S10947   1.434   1.527   9.691 -0.3284 -0.4213 -2.7422
  107OSM   H10T10948   1.596   1.482   9.628  0.2049 -0.2476  0.9692
  107OSM   C11S10949   1.516   1.670   9.556 -0.4762 -0.1959  0.1201
  107OSM   H11S10950   1.602   1.741   9.546 -0.5388 -0.2671 -1.1422
  107OSM   H11T10951   1.432   1.739   9.579  1.0325  1.4982  0.8439
  107OSM   C12S10952   1.480   1.609   9.423  0.3733 -0.3716 -0.3238
  107OSM   H12S10953   1.379   1.566   9.442  1.0575 -1.5489  0.8325
  107OSM   H12T10954   1.561   1.536   9.401  0.3929 -0.0477 -1.3868
  107OSM   C13S10955   1.474   1.720   9.323 -0.3689  0.7781 -0.3135
  107OSM   H13S10956   1.576   1.758   9.302  1.1366 -2.9467 -0.5612
  107OSM   H13T10957   1.408   1.804   9.353 -0.5330  1.1044 -1.5207
  107OSM   C14S10958   1.425   1.679   9.179  0.1359  0.9573 -0.5017
  107OSM   H14S10959   1.321   1.641   9.189  0.9880 -0.9525  2.2698
  107OSM   H14T10960   1.494   1.596   9.153  1.6311  0.2960  4.4172
  107OSM   C15S10961   1.444   1.784   9.072 -0.5264  0.1639  0.1663
  107OSM   H15S10962   1.415   1.887   9.103  1.2261  1.0915 -1.1213
  107OSM   H15T10963   1.367   1.766   8.993  1.2503 -1.1104 -1.3698
  107OSM   C16S10964   1.585   1.776   8.997  0.0238 -0.1052  0.3691
  107OSM   H16S10965   1.604   1.672   8.963 -0.4459 -0.7478  1.9564
  107OSM   H16T10966   1.671   1.808   9.059  0.8076 -1.1798 -0.1422
  107OSM   C17S10967   1.591   1.873   8.869 -0.9400  0.7198 -0.7829
  107OSM   H17S10968   1.576   1.979   8.900 -2.5634  0.3479 -0.2029
  107OSM   H17T10969   1.505   1.860   8.799 -0.5654 -0.9312 -0.9690
  107OSM   C18S10970   1.719   1.856   8.783 -0.5864  0.7069  0.0293
  107OSM   H18S10971   1.727   1.763   8.723  2.1894 -0.5853  2.1568
  107OSM   H18T10972   1.802   1.847   8.856 -1.9609 -1.0479  1.5058
  107OSM   H18U10973   1.728   1.949   8.723  2.1934  0.1372 -0.5527
  107OSM    C1F10974   1.617   2.110  10.326  0.7234 -0.3893 -0.4763
  107OSM     OF10975   1.716   2.154  10.387  0.1598  0.4505 -0.1966
  107OSM    C2F10976   1.522   2.197  10.248  0.4993 -0.5008  0.3897
  107OSM    H2F10977   1.468   2.265  10.317 -0.4636  0.6816 -1.4567
  107OSM    H2G10978   1.450   2.131  10.196  1.2127 -1.5495  0.7026
  107OSM    C3F10979   1.594   2.283  10.138  0.2130  0.5074 -0.1238
  107OSM    H3F10980   1.629   2.212  10.060 -0.2463 -0.2386  0.3260
  107OSM    H3G10981   1.680   2.334  10.186  1.3407 -1.7448  0.4172
  107OSM    C4F10982   1.508   2.374  10.061  0.4515 -0.4643 -0.4688
  107OSM    H4F10983   1.480   2.459  10.128  1.5086  0.9953 -1.8086
  107OSM    H4G10984   1.411   2.333  10.027  0.2205  1.4566 -2.3115
  107OSM    C5F10985   1.568   2.435   9.934  0.6272 -0.3880  0.0840
  107OSM    H5F10986   1.642   2.503   9.980  0.9894 -0.7197 -0.0008
  107OSM    H5G10987   1.496   2.507   9.888 -0.0845 -0.6546  0.7563
  107OSM    C6F10988   1.643   2.349   9.835  0.3783 -0.4849 -0.4768
  107OSM    H6F10989   1.576   2.274   9.787 -1.0630  0.5028 -0.0736
  107OSM    H6G10990   1.723   2.289   9.883  1.7188  0.4942 -1.4064
  107OSM    C7F10991   1.717   2.437   9.730  0.2216  0.2877  0.1553
  107OSM    H7F10992   1.804   2.382   9.689 -0.1904  0.2079 -0.6195
  107OSM    H7G10993   1.753   2.528   9.782  1.6641 -0.7545  1.0295
  107OSM    C8F10994   1.633   2.480   9.604  0.0024 -0.0056 -0.4490
  107OSM    H8F10995   1.562   2.559   9.638  0.6862  0.7674 -0.7958
  107OSM    H8G10996   1.573   2.393   9.569  0.2202  0.3363 -1.7284
  107OSM    C9F10997   1.706   2.550   9.491 -0.0998  0.5342  0.5544
  107OSM    H9F10998   1.792   2.609   9.526  0.4533  1.2147 -1.7554
  107OSM   C10F10999   1.676   2.569   9.360  0.3205  0.3596 -0.0188
  107OSM   H10F11000   1.745   2.631   9.301  0.4256  0.1817 -0.0863
  107OSM   C11F11001   1.556   2.514   9.288  0.1112  0.4504  0.4551
  107OSM   H11F11002   1.514   2.579   9.209  0.7107  0.8943  0.4935
  107OSM   H11G11003   1.475   2.504   9.363  0.4930  1.4430  1.0179
  107OSM   C12F11004   1.568   2.378   9.215  0.4356  0.7651  0.4842
  107OSM   H12F11005   1.590   2.295   9.285 -0.9279  1.0959  1.3579
  107OSM   H12G11006   1.654   2.386   9.145  0.1885  1.2696  0.2291
  107OSM   C13F11007   1.433   2.341   9.147  0.2096  1.0395  0.2911
  107OSM   H13F11008   1.406   2.429   9.084  1.2801  1.1921  0.0422
  107OSM   H13G11009   1.347   2.313   9.212  0.3739 -0.0512  0.0501
  107OSM   C14F11010   1.441   2.207   9.068 -0.4061 -0.2973  0.6326
  107OSM   H14F11011   1.483   2.127   9.133  1.0958 -1.5078 -1.7236
  107OSM   H14G11012   1.510   2.227   8.984 -0.5073  0.3135  0.6917
  107OSM   C15F11013   1.315   2.152   9.004 -0.6232 -0.2537  0.2061
  107OSM   H15F11014   1.243   2.122   9.084 -0.7953 -1.6268 -0.4351
  107OSM   H15G11015   1.348   2.055   8.960  0.6182  0.2614 -0.0286
  107OSM   C16F11016   1.269   2.243   8.893  0.7290  0.0784 -0.1393
  107OSM   H16F11017   1.324   2.227   8.798  0.1253 -0.0334 -0.4751
  107OSM   H16G11018   1.276   2.350   8.923  2.0649  1.0034 -3.3642
  107OSM   C17F11019   1.119   2.234   8.867 -0.5797  0.6819 -0.2767
  107OSM   H17F11020   1.084   2.289   8.956  0.9620  0.5209  0.4645
  107OSM   H17G11021   1.094   2.126   8.864  3.0233 -0.2914 -2.3197
  107OSM   C18F11022   1.070   2.318   8.749 -0.3387 -0.2217 -0.1050
  107OSM   H18F11023   0.959   2.320   8.743 -0.2976  1.4609 -1.0236
  107OSM   H18G11024   1.117   2.267   8.663  2.4134  2.1775 -0.1469
  107OSM   H18H11025   1.110   2.421   8.761 -3.2390  1.0083  0.1001
  108OSM      N11026   5.195   4.953  10.741 -0.0570 -0.1180 -0.0859
  108OSM    C1511027   5.278   5.021  10.848  0.3943 -0.2620 -0.3734
  108OSM   H15A11028   5.344   5.090  10.799  1.7063 -0.8858  0.4530
  108OSM   H15B11029   5.330   4.949  10.910 -0.2247 -2.1554 -1.9471
  108OSM   H15C11030   5.209   5.078  10.909  1.0577  1.6696 -1.3511
  108OSM    C1411031   5.071   4.901  10.800  0.3699  0.6018 -0.1845
  108OSM   H14A11032   5.024   4.979  10.858  1.1850 -0.0944  1.4728
  108OSM   H14B11033   5.109   4.828  10.870  0.5117  2.4331  1.7479
  108OSM   H14C11034   4.999   4.851  10.737 -1.6704  1.1601  1.5776
  108OSM    C1311035   5.158   5.049  10.628 -0.0068  0.3973  0.3038
  108OSM   H13A11036   5.087   4.997  10.565 -0.2407 -1.3735  1.9234
  108OSM   H13B11037   5.247   5.083  10.577  0.5159 -1.5280 -0.1627
  108OSM   H13C11038   5.113   5.139  10.666  0.1125 -0.5352  2.8820
  108OSM    C1211039   5.278   4.837  10.689 -0.1477 -0.3555 -0.2908
  108OSM   H12A11040   5.311   4.780  10.774  0.4892 -0.4474 -0.5967
  108OSM   H12B11041   5.372   4.872  10.650 -0.7033  1.0181 -0.4616
  108OSM    C1111042   5.214   4.735  10.589  0.3159 -0.1934  0.2776
  108OSM   H11A11043   5.295   4.676  10.540  0.9523  0.4524  0.5321
  108OSM   H11B11044   5.167   4.786  10.502  0.2644  2.4760  1.7632
  108OSM      P11045   5.160   4.522  10.727  0.1117  0.1336 -0.2444
  108OSM    O1311046   5.299   4.540  10.781  0.0758  0.3424 -0.1185
  108OSM    O1411047   5.061   4.489  10.830  0.1023  1.0107  0.3474
  108OSM    O1111048   5.148   4.416  10.614  0.2737 -0.0578  0.0504
  108OSM    O1211049   5.117   4.654  10.664  0.7109 -0.2295  0.5828
  108OSM    C1S11050   5.047   4.421  10.517 -0.3739 -0.1657  0.0647
  108OSM    H1S11051   5.052   4.517  10.460  1.3670 -0.7644 -0.8574
  108OSM    H1T11052   4.948   4.417  10.565  0.9166 -0.4880  2.8594
  108OSM     NF11053   4.958   4.315  10.309  0.0719 -0.7969 -0.1029
  108OSM    HNF11054   4.863   4.284  10.310  0.4443 -1.9928  0.9158
  108OSM    C2S11055   5.032   4.291  10.433  0.3384 -0.6009 -0.3367
  108OSM    H2S11056   5.133   4.250  10.413  1.3545  0.4070  2.3063
  108OSM    C3S11057   4.966   4.183  10.522  0.2094  0.9357 -0.3133
  108OSM    H3S11058   4.860   4.211  10.542 -0.1191 -0.1627 -0.4318
  108OSM     O311059   5.028   4.171  10.649 -0.3291 -0.0746  0.2723
  108OSM    HO311060   5.090   4.244  10.650 -0.6658  0.2742  3.0672
  108OSM    C4S11061   4.970   4.048  10.445 -0.0798  0.5941  0.0865
  108OSM    H4S11062   4.896   4.041  10.364  1.9313 -0.2126 -1.8055
  108OSM    C5S11063   5.044   3.931  10.461  0.5194 -0.3490 -0.1188
  108OSM    H5S11064   5.080   3.909  10.563  1.6419  2.8883  0.3174
  108OSM    C6S11065   5.038   3.812  10.367  1.0164 -0.2194 -0.2619
  108OSM    H6S11066   4.973   3.836  10.281  0.1660 -1.8450 -0.1213
  108OSM    H6T11067   4.984   3.737  10.429  0.5967  0.2884 -0.0099
  108OSM    C7S11068   5.169   3.758  10.320  0.4953 -0.1684 -0.2289
  108OSM    H7S11069   5.249   3.742  10.396 -0.9030 -2.9539  0.8093
  108OSM    H7T11070   5.210   3.839  10.257 -1.5392 -0.5128 -2.0918
  108OSM    C8S11071   5.174   3.627  10.243 -0.1230 -0.0848 -0.1595
  108OSM    H8S11072   5.123   3.625  10.144 -1.1778 -0.5880  0.3734
  108OSM    H8T11073   5.125   3.546  10.301  0.2177  0.4789  0.9424
  108OSM    C9S11074   5.315   3.568  10.214  0.0697  0.3967  0.0810
  108OSM    H9S11075   5.376   3.592  10.303  1.5796 -3.3494  0.2365
  108OSM    H9T11076   5.360   3.621  10.127 -0.6879 -0.6356 -0.9760
  108OSM   C10S11077   5.318   3.420  10.182  0.2445  0.2344 -0.0087
  108OSM   H10S11078   5.302   3.361  10.274 -0.7879  0.5056 -0.0087
  108OSM   H10T11079   5.413   3.394  10.130  0.0993  2.5794 -1.5942
  108OSM   C11S11080   5.216   3.368  10.081 -0.3497  0.1124 -0.0417
  108OSM   H11S11081   5.114   3.377  10.124 -0.3166 -2.9170  0.8987
  108OSM   H11T11082   5.236   3.261  10.060 -2.4973 -0.1940 -0.7877
  108OSM   C12S11083   5.219   3.443   9.941  0.2930  0.6089  0.2429
  108OSM   H12S11084   5.328   3.452   9.919  0.4925  0.7463  1.2157
  108OSM   H12T11085   5.172   3.543   9.946 -2.5300 -0.4290 -2.3100
  108OSM   C13S11086   5.153   3.359   9.843  0.8732  0.2434  0.1964
  108OSM   H13S11087   5.165   3.250   9.858  0.2833  0.2424  0.6961
  108OSM   H13T11088   5.183   3.402   9.745 -0.6646 -3.5894 -2.1905
  108OSM   C14S11089   5.003   3.388   9.834 -0.5426  0.1339  1.0102
  108OSM   H14S11090   4.976   3.495   9.829  0.8296  0.4416 -0.7169
  108OSM   H14T11091   4.962   3.365   9.935 -2.4994  1.5838  0.6042
  108OSM   C15S11092   4.928   3.299   9.738 -0.3818  0.6689 -0.3427
  108OSM   H15S11093   4.832   3.257   9.775 -0.2100  0.9156  0.3869
  108OSM   H15T11094   4.987   3.206   9.722 -3.5915 -1.7734  0.9715
  108OSM   C16S11095   4.922   3.373   9.595  0.4195 -0.2565 -0.7073
  108OSM   H16S11096   5.022   3.419   9.591  1.0332 -1.5469 -0.8236
  108OSM   H16T11097   4.849   3.457   9.599 -0.1350 -0.5536 -2.9103
  108OSM   C17S11098   4.882   3.274   9.483  0.7272  0.1713  0.1834
  108OSM   H17S11099   4.782   3.235   9.511  1.0696 -2.1198 -1.4524
  108OSM   H17T11100   4.961   3.196   9.494  2.7017  1.8988 -0.8527
  108OSM   C18S11101   4.864   3.333   9.344 -0.9155 -0.0209  0.0149
  108OSM   H18S11102   4.957   3.324   9.284 -1.4995 -0.0509 -0.9072
  108OSM   H18T11103   4.832   3.439   9.349  0.0021  0.2798 -0.2815
  108OSM   H18U11104   4.795   3.269   9.285  1.8268 -2.7538 -0.4713
  108OSM    C1F11105   5.010   4.385  10.211 -0.1061 -0.4944  1.0349
  108OSM     OF11106   5.128   4.431  10.221  0.3932 -0.0647 -0.3296
  108OSM    C2F11107   4.929   4.398  10.082  0.6067 -0.0427  0.0525
  108OSM    H2F11108   4.829   4.434  10.117  0.1970 -1.2392  0.1467
  108OSM    H2G11109   4.918   4.300  10.033  1.0910  0.2042 -0.5547
  108OSM    C3F11110   5.000   4.489   9.985  0.1937  0.2145 -0.0600
  108OSM    H3F11111   5.095   4.440   9.954  0.2542  0.6753 -0.6344
  108OSM    H3G11112   5.022   4.590  10.027 -0.1891  0.6804 -0.9418
  108OSM    C4F11113   4.927   4.511   9.849 -0.5083 -0.2750 -0.2423
  108OSM    H4F11114   4.990   4.583   9.793  0.2272 -0.9722 -0.3286
  108OSM    H4G11115   4.827   4.553   9.874 -0.2529  0.4383 -0.4077
  108OSM    C5F11116   4.919   4.382   9.762 -0.4393 -1.1155  0.3047
  108OSM    H5F11117   4.836   4.321   9.806 -2.7861  1.8425  0.3210
  108OSM    H5G11118   5.015   4.326   9.765  0.1700 -0.0881  0.3672
  108OSM    C6F11119   4.863   4.428   9.623 -0.3692 -0.3428 -0.5948
  108OSM    H6F11120   4.922   4.509   9.574 -0.0153  0.7424  1.4854
  108OSM    H6G11121   4.762   4.474   9.633  0.2930  0.9195  0.7256
  108OSM    C7F11122   4.844   4.312   9.519 -0.1438 -0.0848 -0.1023
  108OSM    H7F11123   4.764   4.237   9.538  0.0161 -0.6723 -1.6143
  108OSM    H7G11124   4.940   4.256   9.519 -0.3407 -0.4830 -1.7028
  108OSM    C8F11125   4.811   4.372   9.381 -0.1478  0.0382 -0.4356
  108OSM    H8F11126   4.713   4.424   9.389 -0.6418 -0.9218  0.0061
  108OSM    H8G11127   4.780   4.291   9.312 -2.2885  1.0559 -0.7285
  108OSM    C9F11128   4.924   4.450   9.322 -0.6691  1.1811  0.2968
  108OSM    H9F11129   4.942   4.532   9.393 -0.3734  0.2069  1.3745
  108OSM   C10F11130   5.008   4.431   9.212 -0.5221  0.5701 -0.0281
  108OSM   H10F11131   5.081   4.512   9.196 -1.3385  1.9394  2.5299
  108OSM   C11F11132   5.005   4.315   9.119 -0.1414  0.4516 -0.1144
  108OSM   H11F11133   4.919   4.249   9.146  0.1998  0.3096  0.6425
  108OSM   H11G11134   5.092   4.250   9.139 -0.1289  0.6283  0.4230
  108OSM   C12F11135   4.983   4.356   8.970 -0.1242 -0.8975 -0.7041
  108OSM   H12F11136   4.985   4.272   8.897 -0.4037 -0.8984 -0.7104
  108OSM   H12G11137   5.067   4.424   8.947 -0.3222 -0.6632 -0.7323
  108OSM   C13F11138   4.858   4.432   8.952  0.4582 -0.1308  0.5705
  108OSM   H13F11139   4.862   4.530   9.005  0.0890  1.7147 -2.5657
  108OSM   H13G11140   4.769   4.375   8.985  0.3489 -0.8233 -0.8494
  108OSM   C14F11141   4.846   4.461   8.803 -0.3946  0.0572 -0.1302
  108OSM   H14F11142   4.835   4.365   8.749 -0.3614  0.1459 -0.2944
  108OSM   H14G11143   4.945   4.508   8.782  0.4527 -0.5767  2.1898
  108OSM   C15F11144   4.738   4.562   8.774  0.0162 -0.5705 -0.5859
  108OSM   H15F11145   4.769   4.661   8.814 -0.5825 -0.4518 -0.4024
  108OSM   H15G11146   4.639   4.528   8.811  0.4053  0.9928  2.2414
  108OSM   C16F11147   4.721   4.590   8.616  0.1270 -0.4374 -1.3706
  108OSM   H16F11148   4.638   4.656   8.581 -0.1571  0.1452  0.2889
  108OSM   H16G11149   4.699   4.494   8.566  1.5151 -1.1974 -0.5839
  108OSM   C17F11150   4.838   4.674   8.567  0.4238 -0.0159  0.6855
  108OSM   H17F11151   4.935   4.652   8.615  2.1330 -0.2663 -2.5937
  108OSM   H17G11152   4.813   4.780   8.588 -1.8432 -0.4907  0.6622
  108OSM   C18F11153   4.852   4.647   8.418  0.2078  0.0649  0.4331
  108OSM   H18F11154   4.756   4.637   8.362  0.1100  0.2669  0.5623
  108OSM   H18G11155   4.915   4.558   8.398 -1.2613 -0.3916 -2.6883
  108OSM   H18H11156   4.921   4.723   8.376 -1.1700 -0.3757 -2.9378
  109OSM      N11157   2.663   1.738  10.781 -0.4218 -0.4351  0.5617
  109OSM    C1511158   2.601   1.875  10.760 -0.4027  0.1568  0.1591
  109OSM   H15A11159   2.503   1.872  10.714  0.1497  1.8958 -1.2401
  109OSM   H15B11160   2.664   1.945  10.706  1.6654 -0.6497  1.4007
  109OSM   H15C11161   2.581   1.914  10.858  1.9877 -1.3713  1.3454
  109OSM    C1411162   2.567   1.649  10.847 -0.5121 -0.1580 -1.5916
  109OSM   H14A11163   2.535   1.682  10.944  1.3261  0.3515 -1.1313
  109OSM   H14B11164   2.606   1.548  10.853  1.0219  0.4615 -0.8908
  109OSM   H14C11165   2.478   1.647  10.785 -1.6310  1.3007 -0.1071
  109OSM    C1311166   2.684   1.687  10.647  0.5282  0.1187 -0.0639
  109OSM   H13A11167   2.748   1.599  10.649  0.7185  0.0572 -3.3632
  109OSM   H13B11168   2.728   1.756  10.577  0.9256 -0.1966 -0.1358
  109OSM   H13C11169   2.595   1.648  10.600  0.4754  2.1558 -1.7800
  109OSM    C1211170   2.789   1.746  10.861 -0.8432  0.4336  0.2752
  109OSM   H12A11171   2.828   1.652  10.898  2.2673  1.9693  1.2296
  109OSM   H12B11172   2.770   1.783  10.961 -1.2323 -1.0044  0.7536
  109OSM    C1111173   2.903   1.830  10.810  0.0231 -0.8087  0.1139
  109OSM   H11A11174   2.871   1.935  10.790  0.2920 -0.7307  0.0922
  109OSM   H11B11175   2.938   1.787  10.714  0.1091 -0.9879  0.2263
  109OSM      P11176   3.147   1.786  10.893 -0.0668  0.5983  0.5558
  109OSM    O1311177   3.238   1.849  10.996 -0.0058  0.2078 -0.6642
  109OSM    O1411178   3.148   1.639  10.908  0.7687  0.0821 -0.4215
  109OSM    O1111179   3.194   1.836  10.755  0.1458 -0.2724  0.4863
  109OSM    O1211180   3.004   1.837  10.911 -0.4914 -0.0246 -0.5367
  109OSM    C1S11181   3.325   1.793  10.705  0.0846 -0.4357  0.0564
  109OSM    H1S11182   3.385   1.733  10.776  2.0389 -0.0266 -1.1718
  109OSM    H1T11183   3.382   1.884  10.676  2.0527 -1.4470  0.5664
  109OSM     NF11184   3.442   1.654  10.550 -0.1151 -0.0620 -0.1150
  109OSM    HNF11185   3.508   1.697  10.489 -1.1697  0.3735 -1.0072
  109OSM    C2S11186   3.313   1.721  10.576  0.1986  0.2086  0.0121
  109OSM    H2S11187   3.230   1.648  10.593 -0.8643  1.7762  1.9737
  109OSM    C3S11188   3.267   1.818  10.466 -0.2019  0.8105 -0.2215
  109OSM    H3S11189   3.339   1.903  10.464  0.5654  0.2740  2.0301
  109OSM     O311190   3.140   1.873  10.494 -0.0508  0.7699  0.2422
  109OSM    HO311191   3.141   1.894  10.588 -1.8287 -2.8088  1.2331
  109OSM    C4S11192   3.262   1.753  10.330 -0.1149 -0.2173 -0.5906
  109OSM    H4S11193   3.362   1.753  10.283  0.3334 -0.4146  0.3348
  109OSM    C5S11194   3.153   1.711  10.267  0.4073 -0.7116  0.3595
  109OSM    H5S11195   3.052   1.708  10.311 -0.0088 -2.0358 -0.5948
  109OSM    C6S11196   3.142   1.655  10.126  0.3710  0.1208 -0.3494
  109OSM    H6S11197   3.033   1.651  10.104 -0.0888  0.8147  1.6602
  109OSM    H6T11198   3.182   1.552  10.115  0.0758 -0.1411  0.9514
  109OSM    C7S11199   3.214   1.739  10.018  0.4822  0.2212  0.2529
  109OSM    H7S11200   3.318   1.731  10.057  0.1792  2.0019  1.5679
  109OSM    H7T11201   3.185   1.846  10.022 -0.7511 -0.0767 -0.4175
  109OSM    C8S11202   3.206   1.669   9.881  0.7428  0.4613  0.5592
  109OSM    H8S11203   3.098   1.649   9.865  0.6070 -0.8388  2.7426
  109OSM    H8T11204   3.268   1.577   9.883  0.1736  0.0287 -0.6375
  109OSM    C9S11205   3.267   1.754   9.767  0.0392 -0.4599 -0.2858
  109OSM    H9S11206   3.374   1.776   9.786 -0.4955 -0.5513  3.7193
  109OSM    H9T11207   3.214   1.852   9.765 -1.7825 -1.4108 -0.7486
  109OSM   C10S11208   3.252   1.691   9.628 -0.4781 -0.2818  0.1486
  109OSM   H10S11209   3.141   1.685   9.623 -0.4483  0.2122 -2.2341
  109OSM   H10T11210   3.300   1.591   9.642  1.0117  0.6392  2.1082
  109OSM   C11S11211   3.332   1.763   9.513  0.3017 -0.5951 -0.4717
  109OSM   H11S11212   3.437   1.771   9.547  1.1376  0.4461 -3.0464
  109OSM   H11T11213   3.288   1.859   9.480 -0.5837 -1.1827 -1.0441
  109OSM   C12S11214   3.347   1.673   9.384  0.3391 -0.2329 -0.1079
  109OSM   H12S11215   3.251   1.661   9.329 -0.7912 -0.2502  1.7812
  109OSM   H12T11216   3.375   1.569   9.410  0.7024 -0.2132 -0.4096
  109OSM   C13S11217   3.437   1.743   9.276  0.2726 -0.4817  0.5115
  109OSM   H13S11218   3.544   1.731   9.304  0.1761 -2.9956  0.0338
  109OSM   H13T11219   3.405   1.849   9.279  2.7431  0.3135  1.1589
  109OSM   C14S11220   3.427   1.691   9.133  0.7022 -0.4143 -0.2998
  109OSM   H14S11221   3.321   1.681   9.101  0.3678  1.1588  0.2464
  109OSM   H14T11222   3.457   1.584   9.131  1.9317 -0.1026  0.2952
  109OSM   C15S11223   3.508   1.776   9.040 -0.3721  0.0108  0.4445
  109OSM   H15S11224   3.615   1.765   9.070 -0.8526 -2.3480  1.5173
  109OSM   H15T11225   3.489   1.885   9.043 -1.2336  0.0184 -2.2647
  109OSM   C16S11226   3.495   1.743   8.885  0.1230 -0.5543 -0.2889
  109OSM   H16S11227   3.389   1.727   8.854  0.2991  0.6389 -1.6137
  109OSM   H16T11228   3.554   1.648   8.880 -0.4818 -0.9177 -0.7584
  109OSM   C17S11229   3.544   1.849   8.781  0.3284 -0.7850  0.0185
  109OSM   H17S11230   3.494   1.940   8.822  1.2347  0.1171 -0.8364
  109OSM   H17T11231   3.506   1.823   8.679  1.3991  0.5145 -0.7477
  109OSM   C18S11232   3.695   1.872   8.771 -0.2257 -0.5423 -0.1103
  109OSM   H18S11233   3.734   1.782   8.719 -0.1365 -0.2511 -0.5510
  109OSM   H18T11234   3.743   1.880   8.871 -1.9266 -1.4011  0.8180
  109OSM   H18U11235   3.714   1.961   8.707 -0.3588 -0.3771  0.0800
  109OSM    C1F11236   3.474   1.542  10.621  0.0090 -0.0310 -0.1941
  109OSM     OF11237   3.391   1.475  10.683 -0.2907 -0.0846  0.4220
  109OSM    C2F11238   3.613   1.505  10.606 -0.3572  0.3899 -0.1806
  109OSM    H2F11239   3.680   1.523  10.693  0.9292 -2.1996 -0.5391
  109OSM    H2G11240   3.648   1.569  10.521 -0.8650 -1.2455 -1.6794
  109OSM    C3F11241   3.642   1.350  10.572  0.0196 -0.2183  0.5544
  109OSM    H3F11242   3.576   1.311  10.491  1.3154  2.5233 -1.9994
  109OSM    H3G11243   3.622   1.293  10.666 -0.3305  0.1438  0.7075
  109OSM    C4F11244   3.789   1.328  10.525 -0.3320 -0.9271  0.5595
  109OSM    H4F11245   3.843   1.354  10.619  0.1278  0.3342 -0.0149
  109OSM    H4G11246   3.832   1.390  10.442 -0.4922 -2.0993 -0.4185
  109OSM    C5F11247   3.811   1.183  10.498  0.3979 -0.2288 -0.0071
  109OSM    H5F11248   3.749   1.126  10.570 -1.9900  1.9558 -0.2059
  109OSM    H5G11249   3.917   1.150  10.509  0.3649 -0.7205 -1.0459
  109OSM    C6F11250   3.769   1.134  10.354 -0.0466  0.2936  0.5526
  109OSM    H6F11251   3.665   1.166  10.334 -0.7524 -0.2879  3.0168
  109OSM    H6G11252   3.764   1.023  10.357  1.0466  0.2431  2.9063
  109OSM    C7F11253   3.856   1.200  10.242  0.0828  0.2935  0.0261
  109OSM    H7F11254   3.958   1.199  10.285 -0.0543 -0.0635  0.3478
  109OSM    H7G11255   3.836   1.306  10.215 -0.1997 -0.1861 -1.8111
  109OSM    C8F11256   3.856   1.133  10.103  0.9358  0.1818  0.1358
  109OSM    H8F11257   3.922   1.198  10.041  2.3837 -1.8006 -0.4974
  109OSM    H8G11258   3.756   1.141  10.056  0.4255 -2.0440  0.7005
  109OSM    C9F11259   3.889   0.988  10.080 -0.1331 -0.4365  0.1960
  109OSM    H9F11260   3.858   0.920  10.161 -0.8936 -1.3265 -0.8258
  109OSM   C10F11261   3.951   0.941   9.966  0.5929 -0.8071  0.0730
  109OSM   H10F11262   3.961   0.832   9.960 -1.7355 -1.0622  0.1645
  109OSM   C11F11263   4.003   1.026   9.844  0.4076  0.1337  0.0465
  109OSM   H11F11264   4.076   0.962   9.791 -1.3190 -2.4822  0.6404
  109OSM   H11G11265   4.051   1.120   9.879 -0.5635  0.2863  1.0346
  109OSM   C12F11266   3.905   1.052   9.735  0.1955 -0.2674  0.1291
  109OSM   H12F11267   3.822   1.113   9.777 -0.4249 -0.4886 -0.7396
  109OSM   H12G11268   3.860   0.953   9.709 -0.1474 -0.3420  0.9909
  109OSM   C13F11269   3.951   1.106   9.601  0.0847 -0.4516  0.2194
  109OSM   H13F11270   4.041   1.045   9.577 -0.3541 -0.0189 -2.9212
  109OSM   H13G11271   3.980   1.213   9.607  0.1007 -0.4457  0.0598
  109OSM   C14F11272   3.844   1.090   9.496  0.9327  0.0509  0.0534
  109OSM   H14F11273   3.769   1.171   9.499  0.4560 -0.4009  0.5223
  109OSM   H14G11274   3.803   0.987   9.500  2.3626 -0.5165  0.9463
  109OSM   C15F11275   3.915   1.086   9.361 -0.0367  0.4223 -0.0750
  109OSM   H15F11276   3.975   0.992   9.371 -0.5408  0.0280 -0.6592
  109OSM   H15G11277   3.974   1.177   9.339 -0.6810  0.9659  0.4234
  109OSM   C16F11278   3.826   1.067   9.239  0.2627 -0.1614 -0.2298
  109OSM   H16F11279   3.751   0.985   9.249 -1.0083  0.9436 -0.4491
  109OSM   H16G11280   3.884   1.058   9.144  2.8890 -1.6109  1.3870
  109OSM   C17F11281   3.736   1.186   9.217 -0.4081  0.2005 -0.1316
  109OSM   H17F11282   3.799   1.277   9.200 -0.6936  0.4807  0.2915
  109OSM   H17G11283   3.677   1.205   9.309 -2.0145 -1.9781 -0.6489
  109OSM   C18F11284   3.631   1.172   9.107 -0.2524  0.3036 -0.5338
  109OSM   H18F11285   3.585   1.273   9.103  1.4532  1.0797 -1.1909
  109OSM   H18G11286   3.551   1.096   9.127 -0.3538  0.0701 -1.7521
  109OSM   H18H11287   3.666   1.133   9.009  0.9033 -1.7125  0.6032
  110OSM      N11288   4.796   0.007  10.750  0.3692 -0.1800  0.6549
  110OSM    C1511289   4.839  -0.140  10.730 -0.2551  0.6117  0.0602
  110OSM   H15A11290   4.781  -0.214  10.783  1.6866 -0.3571  0.9716
  110OSM   H15B11291   4.937  -0.166  10.769 -1.1393 -1.0267  1.3393
  110OSM   H15C11292   4.828  -0.170  10.627  1.0259 -0.1474  0.1109
  110OSM    C1411293   4.872   0.102  10.655  0.3070  0.1753  0.5735
  110OSM   H14A11294   4.833   0.202  10.665  0.4176  0.3920 -0.8530
  110OSM   H14B11295   4.875   0.072  10.551  0.4028 -0.7058  0.8143
  110OSM   H14C11296   4.975   0.114  10.684  0.6552 -0.1376 -0.4529
  110OSM    C1311297   4.655   0.016  10.716 -0.0744  0.3347  1.0696
  110OSM   H13A11298   4.637  -0.000  10.611  1.8552  1.2606  0.5436
  110OSM   H13B11299   4.617   0.115  10.738 -0.9111  0.4320 -0.6731
  110OSM   H13C11300   4.605  -0.051  10.784 -3.1299  2.1214  0.7735
  110OSM    C1211301   4.814   0.060  10.893 -0.0634 -0.1723  0.4273
  110OSM   H12A11302   4.752   0.007  10.964  0.7225 -1.4615  0.1697
  110OSM   H12B11303   4.780   0.163  10.897  0.9607  0.2302 -0.6556
  110OSM    C1111304   4.959   0.065  10.947 -0.2477  0.5501  0.1536
  110OSM   H11A11305   5.005  -0.034  10.928 -3.8349 -1.2868  0.0806
  110OSM   H11B11306   4.958   0.095  11.054 -1.8522  2.5810 -0.3676
  110OSM      P11307   5.013   0.323  10.895  0.2405  0.0621  0.1335
  110OSM    O1311308   4.867   0.331  10.922  0.5528  0.2265  0.1745
  110OSM    O1411309   5.099   0.389  10.996 -0.5389  0.4067  0.5169
  110OSM    O1111310   5.042   0.360  10.753  0.2769 -0.6622  0.3387
  110OSM    O1211311   5.042   0.168  10.882  0.5503 -0.4215 -0.2151
  110OSM    C1S11312   5.168   0.369  10.680 -0.7472  0.3218 -0.2077
  110OSM    H1S11313   5.223   0.272  10.683 -0.2015  0.6403  0.0690
  110OSM    H1T11314   5.229   0.441  10.737  0.9125 -0.9345 -0.3402
  110OSM     NF11315   5.275   0.436  10.454 -0.0070  0.3800 -0.0309
  110OSM    HNF11316   5.291   0.524  10.411 -0.9189 -0.2594 -1.7783
  110OSM    C2S11317   5.147   0.412  10.527 -0.3043 -0.6805 -0.4407
  110OSM    H2S11318   5.094   0.328  10.478  1.3742 -2.2964  0.4003
  110OSM    C3S11319   5.053   0.542  10.517  0.0533  0.4723 -0.2027
  110OSM    H3S11320   5.111   0.621  10.568  0.2625  1.1573 -1.4528
  110OSM     O311321   4.922   0.531  10.582 -0.2285 -0.8295  0.1066
  110OSM    HO311322   4.934   0.454  10.639  0.8084  0.3080  1.4712
  110OSM    C4S11323   5.039   0.574  10.370 -0.4012  0.7966  0.7259
  110OSM    H4S11324   5.121   0.637  10.333  0.5720 -1.3139 -0.9330
  110OSM    C5S11325   4.952   0.542  10.279 -0.2227  0.4164 -0.2003
  110OSM    H5S11326   4.861   0.494  10.318  0.2632 -1.1333 -0.9148
  110OSM    C6S11327   4.942   0.571  10.134 -0.6891 -0.6865  0.5909
  110OSM    H6S11328   4.847   0.627  10.119 -1.1511 -1.4905  0.4782
  110OSM    H6T11329   4.933   0.483  10.067 -1.2347 -0.3620  0.2326
  110OSM    C7S11330   5.058   0.643  10.058  0.8088 -0.2464 -0.2245
  110OSM    H7S11331   5.135   0.564  10.048  0.3716 -0.6244 -0.6805
  110OSM    H7T11332   5.104   0.723  10.119  0.2332 -0.0225 -0.0795
  110OSM    C8S11333   5.025   0.679   9.913 -0.9132 -0.0239  0.0771
  110OSM    H8S11334   4.970   0.775   9.906  2.1049  1.8222  0.0683
  110OSM    H8T11335   4.989   0.587   9.861 -0.3315 -0.4628  0.4414
  110OSM    C9S11336   5.159   0.699   9.835  0.4001 -0.0091 -0.2092
  110OSM    H9S11337   5.221   0.607   9.839  1.2373  0.5739  3.0886
  110OSM    H9T11338   5.214   0.779   9.889 -1.9271  2.2694 -0.9865
  110OSM   C10S11339   5.137   0.754   9.689  0.3188 -0.2824 -0.3808
  110OSM   H10S11340   5.069   0.682   9.637  1.3549 -0.0136 -2.1816
  110OSM   H10T11341   5.233   0.754   9.634  0.6406 -1.2645  0.1702
  110OSM   C11S11342   5.071   0.891   9.661 -0.4223 -0.1382  0.1148
  110OSM   H11S11343   5.129   0.966   9.717 -0.2794 -0.4707  0.4194
  110OSM   H11T11344   4.966   0.883   9.699 -0.1698  0.1480  0.8817
  110OSM   C12S11345   5.060   0.928   9.518 -0.2832 -0.1423  1.2621
  110OSM   H12S11346   4.993   0.850   9.475  0.2248 -1.2515  2.4259
  110OSM   H12T11347   5.157   0.903   9.470 -0.3825 -0.4179  1.1992
  110OSM   C13S11348   5.016   1.076   9.492  0.1953 -0.0667  0.7980
  110OSM   H13S11349   5.096   1.144   9.528  0.4829  0.4534 -0.7445
  110OSM   H13T11350   4.917   1.086   9.541 -0.4935  1.0597 -0.7513
  110OSM   C14S11351   4.988   1.106   9.341  0.2117  0.0578 -0.4235
  110OSM   H14S11352   4.907   1.038   9.307 -2.4446  2.3907  0.8782
  110OSM   H14T11353   5.081   1.087   9.283  0.9946 -0.1465  0.8454
  110OSM   C15S11354   4.948   1.251   9.315 -0.1928  0.2823  0.6417
  110OSM   H15S11355   4.946   1.253   9.204 -3.1384  0.9952  0.6188
  110OSM   H15T11356   5.023   1.323   9.354 -1.1542  1.7825 -0.1917
  110OSM   C16S11357   4.805   1.286   9.367 -0.6330  0.6803 -0.0149
  110OSM   H16S11358   4.809   1.252   9.473 -0.4408 -1.9254 -0.7875
  110OSM   H16T11359   4.728   1.224   9.317 -0.3200 -1.1438  1.6384
  110OSM   C17S11360   4.788   1.442   9.359  0.3451  0.4298  0.1249
  110OSM   H17S11361   4.681   1.464   9.380  0.2214 -0.8725  1.0121
  110OSM   H17T11362   4.798   1.472   9.252  0.2987  1.3679  0.3755
  110OSM   C18S11363   4.880   1.531   9.441 -0.1862  0.1626  0.2712
  110OSM   H18S11364   4.986   1.532   9.410  0.2423  2.9825  1.4677
  110OSM   H18T11365   4.875   1.505   9.549  1.9331  4.4174  1.6488
  110OSM   H18U11366   4.835   1.631   9.421 -0.5244  0.3381  1.7782
  110OSM    C1F11367   5.360   0.336  10.444 -0.2499  0.5540 -0.2772
  110OSM     OF11368   5.338   0.224  10.487 -0.0541 -0.2283  0.1730
  110OSM    C2F11369   5.492   0.369  10.390  1.3579 -0.0866  0.6274
  110OSM    H2F11370   5.568   0.331  10.461  0.8044  1.1718  1.9736
  110OSM    H2G11371   5.512   0.478  10.378 -1.1720  0.3730  0.0130
  110OSM    C3F11372   5.531   0.311  10.253  0.2543 -0.1872  0.1934
  110OSM    H3F11373   5.519   0.202  10.273 -0.4729 -0.2023 -0.3005
  110OSM    H3G11374   5.641   0.325  10.253 -0.0425  2.6670  0.5719
  110OSM    C4F11375   5.462   0.359  10.127  0.1045 -0.0527  0.0008
  110OSM    H4F11376   5.444   0.469  10.126 -2.7272 -0.4170  1.3614
  110OSM    H4G11377   5.360   0.315  10.117 -0.5161  1.5016 -0.8810
  110OSM    C5F11378   5.545   0.325  10.004 -0.1526  0.0562  0.1530
  110OSM    H5F11379   5.545   0.214   9.999 -1.8817  0.0200  0.2837
  110OSM    H5G11380   5.651   0.354  10.019  0.2443 -1.4835  0.5079
  110OSM    C6F11381   5.501   0.379   9.867  0.3643 -0.1273 -0.5652
  110OSM    H6F11382   5.396   0.357   9.838 -0.3743  0.3042  1.5692
  110OSM    H6G11383   5.553   0.317   9.791 -1.0410 -0.9279 -0.9157
  110OSM    C7F11384   5.540   0.522   9.848 -0.2381  0.4151 -0.3496
  110OSM    H7F11385   5.650   0.520   9.835 -0.4143 -0.3656 -2.0344
  110OSM    H7G11386   5.503   0.580   9.935 -1.3682 -1.2098  0.3172
  110OSM    C8F11387   5.480   0.589   9.719 -0.4013 -0.5813  0.3528
  110OSM    H8F11388   5.492   0.699   9.727  0.0796 -0.7228  2.2501
  110OSM    H8G11389   5.371   0.568   9.712 -0.4937 -0.8027  2.0362
  110OSM    C9F11390   5.534   0.537   9.583 -0.3412 -0.4640  0.1239
  110OSM    H9F11391   5.548   0.429   9.579 -3.0196 -0.8512 -3.2949
  110OSM   C10F11392   5.553   0.604   9.466  0.0408  0.3492 -0.0672
  110OSM   H10F11393   5.597   0.559   9.376 -0.9752  2.3823 -1.6702
  110OSM   C11F11394   5.533   0.757   9.440 -0.6300 -0.1809 -0.8706
  110OSM   H11F11395   5.626   0.818   9.447  1.0528 -2.7234  0.8638
  110OSM   H11G11396   5.458   0.795   9.512 -0.5651 -0.9096 -0.4109
  110OSM   C12F11397   5.460   0.768   9.305 -0.3869 -0.5418 -0.5304
  110OSM   H12F11398   5.524   0.744   9.218 -0.5120 -2.5708 -0.1080
  110OSM   H12G11399   5.432   0.874   9.286  0.8863  0.0900  0.8835
  110OSM   C13F11400   5.335   0.682   9.289  0.0148 -0.3026  0.0598
  110OSM   H13F11401   5.266   0.719   9.368  1.3489 -1.7592  2.0118
  110OSM   H13G11402   5.346   0.572   9.300 -1.4262 -0.5544 -0.7726
  110OSM   C14F11403   5.263   0.706   9.148 -0.3101 -0.2867 -0.5478
  110OSM   H14F11404   5.171   0.644   9.139 -1.1688  0.8561  0.0720
  110OSM   H14G11405   5.333   0.680   9.066 -1.2820 -1.1325 -1.1318
  110OSM   C15F11406   5.213   0.852   9.123 -0.1028 -0.0630  0.7198
  110OSM   H15F11407   5.302   0.915   9.147  2.2182 -2.3858 -1.1590
  110OSM   H15G11408   5.134   0.870   9.199 -1.1797  1.2813 -0.6482
  110OSM   C16F11409   5.155   0.867   8.975 -0.8816  0.9460 -0.9127
  110OSM   H16F11410   5.081   0.790   8.945  0.8150 -0.9571 -0.4018
  110OSM   H16G11411   5.246   0.849   8.914 -0.1186 -1.8718  0.8834
  110OSM   C17F11412   5.098   1.007   8.959 -0.3448 -0.4284 -0.2532
  110OSM   H17F11413   5.176   1.086   8.961 -0.3786 -0.3978 -0.1292
  110OSM   H17G11414   5.012   1.029   9.027 -1.7721 -1.5257 -1.6212
  110OSM   C18F11415   5.040   1.016   8.817 -0.2047 -0.0939 -0.2475
  110OSM   H18F11416   4.976   0.929   8.793 -0.3124 -0.2796  0.6963
  110OSM   H18G11417   5.113   1.005   8.733  0.8291 -0.6515  0.6923
  110OSM   H18H11418   4.986   1.112   8.800 -0.8908 -0.5317 -0.5659
  111OSM      N11419   5.088   5.809  10.920 -0.2068 -0.5465  1.1108
  111OSM    C1511420   5.073   5.749  10.782  0.3562  0.2103  1.2654
  111OSM   H15A11421   5.165   5.711  10.741  0.4170 -0.4888  2.0255
  111OSM   H15B11422   5.022   5.812  10.710  1.3029  0.3788  0.7277
  111OSM   H15C11423   5.000   5.669  10.788 -0.3133  0.5535 -1.1941
  111OSM    C1411424   5.118   5.701  11.020 -0.1927 -0.4339  0.2210
  111OSM   H14A11425   5.159   5.741  11.112 -1.0666  0.1119  0.3768
  111OSM   H14B11426   5.194   5.631  10.988 -0.3265 -0.6888  0.4533
  111OSM   H14C11427   5.034   5.637  11.045  0.1127 -1.1241 -0.4795
  111OSM    C1311428   5.209   5.899  10.908 -0.3277  0.0095 -0.2227
  111OSM   H13A11429   5.218   5.951  11.002 -2.0257 -0.1687  0.0674
  111OSM   H13B11430   5.199   5.972  10.830  2.4930  0.5141 -0.2052
  111OSM   H13C11431   5.301   5.845  10.889 -0.5314 -0.9660  1.3932
  111OSM    C1211432   4.963   5.881  10.960  0.0518 -0.1839 -0.6799
  111OSM   H12A11433   4.974   5.910  11.064 -2.4310  1.4027 -0.7971
  111OSM   H12B11434   4.880   5.813  10.953 -0.0532 -0.0006 -1.2332
  111OSM    C1111435   4.912   5.987  10.866  0.2391 -0.0659 -0.0484
  111OSM   H11A11436   4.998   6.054  10.847 -0.0793  0.7096  1.1149
  111OSM   H11B11437   4.837   6.056  10.909  3.0576  3.0354  0.2884
  111OSM      P11438   4.756   5.948  10.653  0.3372  0.1692 -0.4247
  111OSM    O1311439   4.776   5.903  10.515 -0.4900 -0.2921 -0.2898
  111OSM    O1411440   4.654   5.879  10.732 -0.5793  0.3639  0.2552
  111OSM    O1111441   4.725   6.103  10.649 -0.1499  0.4362 -0.4915
  111OSM    O1211442   4.891   5.934  10.734  0.4201 -0.2284  0.2230
  111OSM    C1S11443   4.758   6.193  10.551 -0.3041 -0.8074 -0.1417
  111OSM    H1S11444   4.829   6.155  10.474 -0.7970  2.4682 -2.4397
  111OSM    H1T11445   4.809   6.283  10.593 -1.3326 -0.8756  1.3371
  111OSM     NF11446   4.690   6.326  10.365 -0.4268  0.4053 -0.0434
  111OSM    HNF11447   4.688   6.423  10.389 -0.1322  0.1411  1.0781
  111OSM    C2S11448   4.639   6.231  10.465 -1.1707 -0.9801  0.6001
  111OSM    H2S11449   4.614   6.140  10.406 -0.5387 -0.8889  0.1789
  111OSM    C3S11450   4.516   6.279  10.552  0.0396 -0.4593  0.2826
  111OSM    H3S11451   4.552   6.361  10.617 -1.4176  1.3521 -1.0685
  111OSM     O311452   4.458   6.181  10.640 -0.0099  0.8113 -0.2057
  111OSM    HO311453   4.524   6.114  10.660 -1.5493 -0.4102  1.0359
  111OSM    C4S11454   4.416   6.319  10.451  0.2143  0.2429  0.1001
  111OSM    H4S11455   4.379   6.227  10.402  0.9727 -0.6422  1.1458
  111OSM    C5S11456   4.364   6.438  10.415 -0.6904  0.2016 -0.0386
  111OSM    H5S11457   4.415   6.528  10.451 -0.1940  0.7299 -1.9666
  111OSM    C6S11458   4.255   6.461  10.316  0.2121 -0.0479  0.2324
  111OSM    H6S11459   4.213   6.563  10.326 -0.4739 -0.2340 -0.6685
  111OSM    H6T11460   4.176   6.386  10.336  2.7871 -3.5406 -1.5289
  111OSM    C7S11461   4.300   6.421  10.176  0.5150  0.0048 -0.0544
  111OSM    H7S11462   4.323   6.312  10.176 -0.0243 -0.1138 -0.3320
  111OSM    H7T11463   4.390   6.481  10.149 -0.0505  0.6604 -0.5270
  111OSM    C8S11464   4.198   6.448  10.061 -0.6514  0.3799 -0.0065
  111OSM    H8S11465   4.193   6.558  10.047  0.6550  0.4913  0.2568
  111OSM    H8T11466   4.093   6.425  10.088 -0.3860  0.0275  0.7716
  111OSM    C9S11467   4.257   6.384   9.938 -0.4141 -1.0271 -0.7468
  111OSM    H9S11468   4.241   6.274   9.938 -0.7609 -0.9798 -0.3692
  111OSM    H9T11469   4.366   6.407   9.942 -0.5636 -0.4502  1.6223
  111OSM   C10S11470   4.200   6.439   9.811  0.0461 -0.3392  0.3944
  111OSM   H10S11471   4.190   6.547   9.831  0.8672 -0.3018  0.6525
  111OSM   H10T11472   4.095   6.405   9.804  0.1108 -0.4266 -0.2542
  111OSM   C11S11473   4.269   6.385   9.683 -0.6033 -0.3253  0.5373
  111OSM   H11S11474   4.280   6.274   9.684  1.8614 -0.1400  0.5026
  111OSM   H11T11475   4.372   6.427   9.686 -0.0117 -1.7620  2.0648
  111OSM   C12S11476   4.199   6.417   9.549 -0.5452  0.1308 -0.1043
  111OSM   H12S11477   4.182   6.526   9.536  2.5390  0.5671 -1.2323
  111OSM   H12T11478   4.097   6.373   9.554 -0.7294 -0.2132 -3.7574
  111OSM   C13S11479   4.288   6.368   9.430  0.1536 -0.2278  0.9469
  111OSM   H13S11480   4.308   6.259   9.437 -1.3256 -0.7107 -1.2147
  111OSM   H13T11481   4.376   6.434   9.417  0.0611 -0.2508  0.1650
  111OSM   C14S11482   4.205   6.369   9.298 -0.3351 -0.4406  0.1593
  111OSM   H14S11483   4.193   6.474   9.262  1.5093 -0.1323  0.3403
  111OSM   H14T11484   4.102   6.331   9.307 -1.3450  1.4758 -2.0727
  111OSM   C15S11485   4.272   6.298   9.175  0.4171  0.4970 -0.3258
  111OSM   H15S11486   4.218   6.330   9.083 -0.1684 -3.0354 -1.3653
  111OSM   H15T11487   4.239   6.194   9.193 -1.8724  0.8834 -1.9041
  111OSM   C16S11488   4.430   6.291   9.161  0.0838 -0.6497  0.2059
  111OSM   H16S11489   4.459   6.192   9.202  0.4897 -0.0157  1.5229
  111OSM   H16T11490   4.486   6.366   9.221  0.9469 -1.7006  0.7754
  111OSM   C17S11491   4.471   6.299   9.017 -0.5523  0.0365  0.1963
  111OSM   H17S11492   4.578   6.268   9.018 -0.5177 -0.3253  4.6014
  111OSM   H17T11493   4.464   6.401   8.974 -0.4691  1.0140  2.3841
  111OSM   C18S11494   4.412   6.201   8.919  0.1701  0.3989  0.5907
  111OSM   H18S11495   4.466   6.199   8.822 -1.5670  0.5541 -0.4249
  111OSM   H18T11496   4.311   6.240   8.891  0.5532  1.4119  0.5838
  111OSM   H18U11497   4.401   6.098   8.960 -0.6076  0.1192 -0.2600
  111OSM    C1F11498   4.765   6.302  10.262  0.6062 -0.3706 -1.1435
  111OSM     OF11499   4.813   6.194  10.241  0.1794 -0.4120  0.0030
  111OSM    C2F11500   4.795   6.417  10.172 -0.0020 -0.2096  0.2890
  111OSM    H2F11501   4.878   6.477  10.215  0.0517 -1.5504  2.1360
  111OSM    H2G11502   4.701   6.477  10.179  1.6053  2.6914 -0.9874
  111OSM    C3F11503   4.828   6.379  10.026 -0.7935 -0.9005 -0.1261
  111OSM    H3F11504   4.735   6.326   9.995 -1.8640  0.5571  0.5097
  111OSM    H3G11505   4.910   6.305  10.038 -1.4804 -1.3743  2.1875
  111OSM    C4F11506   4.863   6.500   9.933 -0.0227  0.2267 -1.3195
  111OSM    H4F11507   4.956   6.538   9.980 -2.2360  2.1206  1.9797
  111OSM    H4G11508   4.781   6.574   9.942  0.5461  0.7453 -0.1200
  111OSM    C5F11509   4.887   6.456   9.790 -0.6387 -0.8753 -0.3594
  111OSM    H5F11510   4.815   6.371   9.783 -2.2437  0.3854  0.0913
  111OSM    H5G11511   4.984   6.404   9.776  0.6598  1.2140  0.4070
  111OSM    C6F11512   4.857   6.565   9.683 -0.1091  0.3833  0.1598
  111OSM    H6F11513   4.931   6.647   9.677 -0.0585  0.3376  0.1566
  111OSM    H6G11514   4.755   6.605   9.699 -0.1191  0.6707 -0.5788
  111OSM    C7F11515   4.850   6.503   9.537  0.0681 -0.2297  0.0127
  111OSM    H7F11516   4.795   6.407   9.542 -2.9766  1.3667 -0.8550
  111OSM    H7G11517   4.953   6.479   9.503  0.6523  1.9357  0.0908
  111OSM    C8F11518   4.768   6.602   9.444 -0.2823 -0.6350 -0.8289
  111OSM    H8F11519   4.813   6.703   9.435 -0.1457 -0.7486 -1.5142
  111OSM    H8G11520   4.662   6.610   9.477 -0.1562  2.4495 -0.8405
  111OSM    C9F11521   4.776   6.549   9.300  0.1608  0.1893 -0.7757
  111OSM    H9F11522   4.848   6.468   9.279 -0.8206 -1.0934  0.5606
  111OSM   C10F11523   4.695   6.576   9.195  0.1973  0.0309 -0.3913
  111OSM   H10F11524   4.718   6.528   9.099  0.1787  2.5408 -1.7376
  111OSM   C11F11525   4.568   6.663   9.189  0.3400  0.5166  0.7328
  111OSM   H11F11526   4.561   6.700   9.294  2.9893  1.6828  0.5981
  111OSM   H11G11527   4.472   6.609   9.175  1.2588 -0.5473 -2.2245
  111OSM   C12F11528   4.567   6.783   9.095  0.7398 -0.0347  0.4188
  111OSM   H12F11529   4.669   6.828   9.095  1.1058 -0.7267 -1.7723
  111OSM   H12G11530   4.498   6.864   9.127  2.2601  1.5884 -0.2010
  111OSM   C13F11531   4.536   6.749   8.947 -0.0893 -0.3143 -0.1881
  111OSM   H13F11532   4.462   6.821   8.906  0.6447 -0.8404 -2.5772
  111OSM   H13G11533   4.494   6.647   8.951  1.3913 -0.9079  2.4964
  111OSM   C14F11534   4.659   6.743   8.853  0.2098  0.4524  0.3819
  111OSM   H14F11535   4.626   6.700   8.756  3.5304 -0.5133 -0.4347
  111OSM   H14G11536   4.736   6.674   8.894 -0.8019 -0.5893  0.5868
  111OSM   C15F11537   4.724   6.877   8.814  0.0540  0.0114 -0.6653
  111OSM   H15F11538   4.829   6.858   8.781  0.6763  1.6871  0.2081
  111OSM   H15G11539   4.725   6.927   8.913  0.1473 -0.8831 -0.2045
  111OSM   C16F11540   4.652   6.962   8.711 -0.5981 -0.7164 -0.5681
  111OSM   H16F11541   4.549   6.989   8.743 -0.1820 -1.8888  2.0820
  111OSM   H16G11542   4.640   6.896   8.622 -1.2939 -0.3370 -0.7593
  111OSM   C17F11543   4.726   7.091   8.686  0.1798  0.3298  0.3084
  111OSM   H17F11544   4.837   7.084   8.681  0.0805 -1.2502 -0.3395
  111OSM   H17G11545   4.700   7.159   8.770  0.5028 -1.3867  1.8836
  111OSM   C18F11546   4.686   7.153   8.551  0.2411  0.5405  0.2023
  111OSM   H18F11547   4.702   7.069   8.480  3.6037  1.5661 -0.4261
  111OSM   H18G11548   4.751   7.240   8.529  0.0454  0.2446 -1.7164
  111OSM   H18H11549   4.579   7.180   8.538 -0.4253 -2.0431 -0.2885
  112OSM      N11550   4.296   3.958  10.987 -0.8561 -0.1681  0.0526
  112OSM    C1511551   4.218   3.841  11.051  0.6670  0.3214 -0.2961
  112OSM   H15A11552   4.133   3.815  10.991 -0.4711 -1.3655  1.9240
  112OSM   H15B11553   4.177   3.881  11.143 -1.0289  0.5073 -1.0953
  112OSM   H15C11554   4.270   3.750  11.074  1.8985  0.7834 -1.1147
  112OSM    C1411555   4.192   4.070  10.947 -0.4805  0.3803 -0.5465
  112OSM   H14A11556   4.262   4.142  10.906  0.5751 -0.4592 -0.2889
  112OSM   H14B11557   4.135   4.100  11.034  0.5767  0.4488  0.1512
  112OSM   H14C11558   4.124   4.035  10.872 -3.7515 -1.5011  2.9744
  112OSM    C1311559   4.403   4.005  11.084  0.7885 -0.6428  0.4618
  112OSM   H13A11560   4.455   4.093  11.048 -1.5204  0.0906 -1.3143
  112OSM   H13B11561   4.463   3.923  11.120  0.8312  0.2301  2.5050
  112OSM   H13C11562   4.355   4.043  11.173  0.6556  1.7119 -0.5477
  112OSM    C1211563   4.368   3.901  10.864 -0.1358 -0.1644  0.1309
  112OSM   H12A11564   4.441   3.826  10.891 -2.4867 -2.8769 -0.4845
  112OSM   H12B11565   4.420   3.976  10.806  1.0617 -0.3313  0.9478
  112OSM    C1111566   4.286   3.820  10.760  0.3834  0.1252  0.0124
  112OSM   H11A11567   4.226   3.749  10.821  0.9089  0.1014  0.5145
  112OSM   H11B11568   4.346   3.760  10.689  2.9335  0.7684  1.4843
  112OSM      P11569   4.232   4.020  10.603 -0.1074 -0.0593 -0.0350
  112OSM    O1311570   4.105   4.062  10.545 -0.2233 -0.3079 -0.1947
  112OSM    O1411571   4.318   4.114  10.680  0.3129  0.2493 -0.8026
  112OSM    O1111572   4.325   3.952  10.495 -0.3086 -0.2707  0.1303
  112OSM    O1211573   4.191   3.910  10.698 -0.3718 -0.2289 -0.0596
  112OSM    C1S11574   4.274   3.839  10.425  0.5220  0.5173 -0.1784
  112OSM    H1S11575   4.193   3.870  10.355 -1.1553 -0.6243  1.1355
  112OSM    H1T11576   4.236   3.763  10.497  0.8847  2.2614  1.9442
  112OSM     NF11577   4.329   3.684  10.234 -0.2241  0.1659 -0.1597
  112OSM    HNF11578   4.368   3.593  10.221  1.6153  1.1783 -2.6554
  112OSM    C2S11579   4.382   3.779  10.329  1.2426 -0.4640  0.0790
  112OSM    H2S11580   4.429   3.862  10.271  0.5265 -0.4083 -0.4389
  112OSM    C3S11581   4.499   3.713  10.421  0.7662 -0.6589  0.2275
  112OSM    H3S11582   4.448   3.643  10.490  0.4314 -0.3797  0.2634
  112OSM     O311583   4.553   3.798  10.520  0.0527 -0.4286 -0.1324
  112OSM    HO311584   4.491   3.871  10.520  1.5522  0.9297 -0.7595
  112OSM    C4S11585   4.610   3.648  10.335  0.1462  0.2984  0.4152
  112OSM    H4S11586   4.609   3.538  10.342 -1.3763  0.3641  1.6195
  112OSM    C5S11587   4.699   3.713  10.259 -0.0918 -0.2247 -0.0762
  112OSM    H5S11588   4.703   3.823  10.268  1.7655 -0.0317 -2.1722
  112OSM    C6S11589   4.813   3.650  10.179  0.1566  0.0382  0.0482
  112OSM    H6S11590   4.891   3.614  10.249  1.7063  2.1781 -0.4578
  112OSM    H6T11591   4.853   3.728  10.111 -2.3794  1.5339  0.1507
  112OSM    C7S11592   4.772   3.548  10.079 -0.5626  0.7819  0.3927
  112OSM    H7S11593   4.722   3.460  10.126 -0.0767  1.1843  1.6954
  112OSM    H7T11594   4.855   3.516  10.012 -1.3049 -0.0192 -0.1791
  112OSM    C8S11595   4.665   3.598   9.979 -0.3109  0.8038 -0.3269
  112OSM    H8S11596   4.690   3.703   9.950  2.2869  0.9068  1.8858
  112OSM    H8T11597   4.568   3.603  10.032 -0.4449  1.8357 -0.6505
  112OSM    C9S11598   4.651   3.504   9.857 -1.0406 -0.2892  1.0506
  112OSM    H9S11599   4.601   3.411   9.889 -1.4004 -1.3054 -2.1584
  112OSM    H9T11600   4.748   3.471   9.814 -0.7826  2.1623 -0.4593
  112OSM   C10S11601   4.570   3.561   9.743  0.2893 -0.3395  0.6497
  112OSM   H10S11602   4.634   3.646   9.710  1.7891 -2.1147 -1.2930
  112OSM   H10T11603   4.482   3.605   9.793  2.2494  3.0743  1.4191
  112OSM   C11S11604   4.537   3.468   9.625 -0.0036 -0.1150  1.1359
  112OSM   H11S11605   4.454   3.405   9.664 -2.7414  0.4818 -3.0667
  112OSM   H11T11606   4.626   3.414   9.588  0.1234  2.5456 -3.0866
  112OSM   C12S11607   4.490   3.559   9.506  0.4944  0.4473  0.6276
  112OSM   H12S11608   4.553   3.650   9.500 -1.2178  1.6029 -0.8389
  112OSM   H12T11609   4.385   3.584   9.533  0.4203  0.1729  0.6000
  112OSM   C13S11610   4.494   3.470   9.378  0.4316 -0.5965  0.4277
  112OSM   H13S11611   4.443   3.373   9.394 -0.6667  0.0671  1.1467
  112OSM   H13T11612   4.598   3.443   9.353 -0.2679  0.6128 -5.0150
  112OSM   C14S11613   4.429   3.537   9.257 -0.4213  0.4078  0.2185
  112OSM   H14S11614   4.472   3.639   9.254  0.3773  0.0671 -2.0184
  112OSM   H14T11615   4.320   3.555   9.265 -0.6479 -0.7399 -0.1241
  112OSM   C15S11616   4.469   3.464   9.128  0.0380 -0.4266  0.7984
  112OSM   H15S11617   4.430   3.360   9.132 -0.2305 -0.4116 -0.7971
  112OSM   H15T11618   4.578   3.443   9.127 -0.4189 -3.3872  2.7946
  112OSM   C16S11619   4.409   3.523   9.006  0.4137  0.3554  0.7599
  112OSM   H16S11620   4.475   3.491   8.923 -2.0475 -1.7895 -0.4927
  112OSM   H16T11621   4.410   3.634   9.008  0.1837  0.4022 -0.5612
  112OSM   C17S11622   4.269   3.466   8.958 -0.5917 -0.1823  0.0614
  112OSM   H17S11623   4.192   3.442   9.035  0.0845  0.5360  0.9783
  112OSM   H17T11624   4.293   3.362   8.927 -0.4988  0.0480 -0.6459
  112OSM   C18S11625   4.213   3.550   8.846  0.0844 -0.6452 -0.0366
  112OSM   H18S11626   4.193   3.651   8.889  0.8899 -0.6962  0.4705
  112OSM   H18T11627   4.117   3.513   8.803 -0.3775 -1.0372  1.2849
  112OSM   H18U11628   4.294   3.562   8.771 -0.2180 -0.7795 -0.3858
  112OSM    C1F11629   4.243   3.711  10.142 -0.5274 -0.1544  0.7374
  112OSM     OF11630   4.222   3.825  10.105 -0.1251  0.9619  0.0404
  112OSM    C2F11631   4.177   3.589  10.086 -0.4025  0.3752  0.5605
  112OSM    H2F11632   4.072   3.590  10.123 -1.2864  0.2922 -1.8095
  112OSM    H2G11633   4.224   3.498  10.129 -1.1045  0.4398  1.4886
  112OSM    C3F11634   4.180   3.594   9.929 -0.3075 -0.0584 -0.0734
  112OSM    H3F11635   4.282   3.599   9.884 -1.0194 -0.2482 -1.7518
  112OSM    H3G11636   4.116   3.674   9.888 -0.2529  0.3196  0.5582
  112OSM    C4F11637   4.119   3.462   9.864 -0.6614  0.4793 -0.4925
  112OSM    H4F11638   4.011   3.456   9.889 -0.5573  1.6717  0.3407
  112OSM    H4G11639   4.173   3.374   9.904  2.3467  1.2745 -2.3980
  112OSM    C5F11640   4.135   3.450   9.714 -0.0518 -0.4885 -0.2094
  112OSM    H5F11641   4.239   3.487   9.698  0.0154 -0.6975 -0.2659
  112OSM    H5G11642   4.060   3.521   9.675 -0.6461 -0.7612  0.4340
  112OSM    C6F11643   4.124   3.311   9.657  0.1783 -0.7058 -0.1147
  112OSM    H6F11644   4.024   3.276   9.692 -1.6747  3.6368 -0.4780
  112OSM    H6G11645   4.202   3.247   9.702  2.0101  0.1957 -1.8988
  112OSM    C7F11646   4.119   3.302   9.502  0.3847  0.4833 -0.2178
  112OSM    H7F11647   4.156   3.398   9.460 -0.3997 -0.7788 -4.3023
  112OSM    H7G11648   4.014   3.304   9.468 -0.1317  1.0269  1.3482
  112OSM    C8F11649   4.198   3.193   9.435 -0.0525 -0.6889 -0.5887
  112OSM    H8F11650   4.301   3.188   9.476  0.1688  1.2911 -0.8073
  112OSM    H8G11651   4.208   3.232   9.331 -2.7197 -1.3077 -1.1496
  112OSM    C9F11652   4.132   3.061   9.443 -0.4620 -0.0967 -0.5444
  112OSM    H9F11653   4.098   3.039   9.545  0.0710  2.5373  0.2818
  112OSM   C10F11654   4.106   2.974   9.349  0.1100 -0.2574  0.0103
  112OSM   H10F11655   4.066   2.877   9.384 -1.2622  0.2578 -0.0927
  112OSM   C11F11656   4.128   2.998   9.202  0.0618 -0.2317 -0.3563
  112OSM   H11F11657   4.161   2.903   9.155  1.2526  0.7261 -1.5217
  112OSM   H11G11658   4.220   3.060   9.197  0.2088 -0.3064  0.9361
  112OSM   C12F11659   4.000   3.056   9.142  0.5068 -0.0184 -0.7732
  112OSM   H12F11660   3.958   3.133   9.210  2.5087  0.0291  0.4879
  112OSM   H12G11661   3.924   2.974   9.140  2.1623 -1.6087 -0.6255
  112OSM   C13F11662   4.019   3.119   9.004  0.0531  0.4691 -0.0002
  112OSM   H13F11663   4.100   3.193   9.020 -0.0998  0.7202 -0.3609
  112OSM   H13G11664   3.924   3.168   8.974 -1.1576 -1.0254  1.2562
  112OSM   C14F11665   4.060   3.022   8.893 -0.4249  0.5468 -0.2516
  112OSM   H14F11666   3.987   2.939   8.890  0.4075 -0.1936 -0.6098
  112OSM   H14G11667   4.151   2.969   8.931 -1.2287 -1.3347 -0.8246
  112OSM   C15F11668   4.095   3.075   8.753 -0.1437 -0.4228  0.1637
  112OSM   H15F11669   4.176   3.150   8.759 -1.5168  1.1126  0.5145
  112OSM   H15G11670   4.013   3.145   8.725 -1.2390 -0.7041  2.3619
  112OSM   C16F11671   4.121   2.959   8.657  0.3780  0.7045 -0.2581
  112OSM   H16F11672   4.057   2.870   8.677  2.1706 -0.4487  0.5606
  112OSM   H16G11673   4.225   2.923   8.669 -0.1584 -0.5508  0.9252
  112OSM   C17F11674   4.126   3.001   8.508 -0.2774 -0.8507 -0.2940
  112OSM   H17F11675   4.201   3.082   8.502 -0.3582 -0.7564 -0.0303
  112OSM   H17G11676   4.028   3.043   8.476 -0.7334 -1.3252  0.4476
  112OSM   C18F11677   4.154   2.886   8.414 -0.0310  0.0423  0.5254
  112OSM   H18F11678   4.257   2.847   8.419 -0.1900 -0.2633  1.7029
  112OSM   H18G11679   4.129   2.921   8.312 -0.2771  0.7571  0.8289
  112OSM   H18H11680   4.082   2.808   8.449  1.1176 -0.8962  0.8784
  113OSM      N11681   5.581   4.384  10.621  0.2670 -0.1527  0.4747
  113OSM    C1511682   5.668   4.310  10.525  0.7970  0.5494 -0.1601
  113OSM   H15A11683   5.678   4.211  10.566  4.3020  0.2471 -1.4588
  113OSM   H15B11684   5.767   4.350  10.506  1.7225 -2.9322 -4.1804
  113OSM   H15C11685   5.629   4.292  10.426  0.4156  1.0885 -0.1121
  113OSM    C1411686   5.641   4.390  10.751 -0.3683  0.3749 -0.3769
  113OSM   H14A11687   5.649   4.291  10.793  1.4271 -0.2657 -2.0845
  113OSM   H14B11688   5.580   4.448  10.819  1.7076  0.6531  1.3643
  113OSM   H14C11689   5.736   4.440  10.751  0.1153 -0.4812  1.0321
  113OSM    C1311690   5.578   4.525  10.583 -0.2070 -0.1148 -0.5411
  113OSM   H13A11691   5.533   4.530  10.484  1.8195 -0.3793 -1.5178
  113OSM   H13B11692   5.672   4.574  10.563 -0.2057  0.8685  1.5715
  113OSM   H13C11693   5.517   4.586  10.648 -0.8481 -0.7864 -0.4968
  113OSM    C1211694   5.432   4.326  10.627 -0.8119 -0.4221 -0.1745
  113OSM   H12A11695   5.383   4.366  10.539  1.6242  0.3277 -1.2702
  113OSM   H12B11696   5.389   4.379  10.710  0.1039 -0.5589  0.3977
  113OSM    C1111697   5.424   4.172  10.646  0.0630 -0.5403 -0.3929
  113OSM   H11A11698   5.465   4.133  10.550 -0.0661 -0.6556 -0.4002
  113OSM   H11B11699   5.316   4.146  10.644  0.0548 -0.4965 -0.6845
  113OSM      P11700   5.597   4.005  10.762  0.0300 -0.2317  0.3424
  113OSM    O1311701   5.732   4.072  10.766 -0.0746  0.1258 -0.3763
  113OSM    O1411702   5.567   3.913  10.868  0.4157  0.3081 -0.2266
  113OSM    O1111703   5.579   3.927  10.617  0.2383 -0.4762  0.5537
  113OSM    O1211704   5.491   4.123  10.759  0.2454  0.6128 -0.2085
  113OSM    C1S11705   5.638   3.798  10.600 -0.3989  0.3069 -0.0972
  113OSM    H1S11706   5.577   3.725  10.658  0.2119  0.5745  0.9197
  113OSM    H1T11707   5.743   3.791  10.637  0.3213 -2.3702 -2.3380
  113OSM     NF11708   5.662   3.614  10.423  0.2492  0.3703 -0.2059
  113OSM    HNF11709   5.754   3.583  10.400 -0.7221 -3.4482  0.3937
  113OSM    C2S11710   5.636   3.755  10.451  1.1662 -0.5261  0.0149
  113OSM    H2S11711   5.535   3.778  10.411  1.8902 -0.6984 -2.0141
  113OSM    C3S11712   5.730   3.842  10.362 -0.1480  0.5730 -0.4761
  113OSM    H3S11713   5.837   3.827  10.384 -0.2553 -0.4110 -0.6105
  113OSM     O311714   5.703   3.984  10.375  0.7562  0.4041 -0.0594
  113OSM    HO311715   5.650   3.987  10.455  0.3210  0.6293 -0.3507
  113OSM    C4S11716   5.713   3.809  10.216  0.1191  0.6054 -0.1716
  113OSM    H4S11717   5.608   3.806  10.182 -0.4437 -2.4241  1.5185
  113OSM    C5S11718   5.809   3.778  10.131  0.0754  0.0257  0.1205
  113OSM    H5S11719   5.917   3.772  10.153  0.3060 -1.9677 -1.1854
  113OSM    C6S11720   5.787   3.744   9.985  0.6725 -0.3215 -0.3751
  113OSM    H6S11721   5.680   3.724   9.964  0.7291  0.1427 -1.1632
  113OSM    H6T11722   5.837   3.649   9.956  1.6104 -0.9056  2.8306
  113OSM    C7S11723   5.857   3.839   9.894 -0.1065  0.1288 -0.4534
  113OSM    H7S11724   5.965   3.834   9.917 -0.1717 -0.7369 -0.3083
  113OSM    H7T11725   5.833   3.944   9.921 -0.2476 -0.7041  3.2138
  113OSM    C8S11726   5.861   3.813   9.743 -0.9083 -0.2321  0.1684
  113OSM    H8S11727   5.916   3.721   9.714 -1.5269  0.4121 -3.5207
  113OSM    H8T11728   5.922   3.898   9.706 -1.1028 -0.1083  0.1324
  113OSM    C9S11729   5.733   3.817   9.674  0.1839  0.1027  0.5235
  113OSM    H9S11730   5.691   3.918   9.693 -1.2011 -0.3925  0.1477
  113OSM    H9T11731   5.659   3.750   9.722  1.0698 -0.4467  1.1707
  113OSM   C10S11732   5.749   3.794   9.527 -0.4093  0.2977 -0.0673
  113OSM   H10S11733   5.781   3.688   9.516  0.8814  0.8022 -1.5336
  113OSM   H10T11734   5.836   3.853   9.492 -0.0934 -0.2516 -0.2254
  113OSM   C11S11735   5.620   3.813   9.441  0.0374 -0.0178  0.1388
  113OSM   H11S11736   5.600   3.923   9.445 -0.1933  0.0602 -2.1776
  113OSM   H11T11737   5.533   3.759   9.484  1.8997 -3.0079  0.4155
  113OSM   C12S11738   5.642   3.784   9.291 -0.1032 -0.2123 -0.4894
  113OSM   H12S11739   5.675   3.680   9.270 -1.3005 -1.0476  1.4935
  113OSM   H12T11740   5.726   3.852   9.264 -0.4066  0.4326  0.1363
  113OSM   C13S11741   5.531   3.825   9.202  0.9998  0.5456  0.3086
  113OSM   H13S11742   5.499   3.929   9.225  0.7691  0.7504 -0.9044
  113OSM   H13T11743   5.456   3.748   9.231  2.1016 -0.3029  0.9382
  113OSM   C14S11744   5.564   3.798   9.058 -0.1747  0.0006 -0.0547
  113OSM   H14S11745   5.588   3.691   9.046  2.9615  0.5646  0.4467
  113OSM   H14T11746   5.653   3.856   9.026  0.7841 -0.3014  1.9396
  113OSM   C15S11747   5.448   3.836   8.963  0.8353  0.2836 -0.1306
  113OSM   H15S11748   5.346   3.815   9.003 -0.3769  1.0597 -2.5972
  113OSM   H15T11749   5.445   3.780   8.867  0.4990  0.1055 -0.0171
  113OSM   C16S11750   5.448   3.985   8.926 -0.7699 -0.1826 -0.0608
  113OSM   H16S11751   5.549   4.016   8.891 -0.0080 -1.1397  1.2023
  113OSM   H16T11752   5.442   4.045   9.019 -2.4043 -1.2357  0.5498
  113OSM   C17S11753   5.335   4.019   8.826  0.0779 -0.4851  0.3911
  113OSM   H17S11754   5.318   3.945   8.745  0.3894  2.4589 -2.5734
  113OSM   H17T11755   5.363   4.114   8.775  0.3937  0.5758  2.3970
  113OSM   C18S11756   5.202   4.049   8.899  0.2746  0.1937 -0.5180
  113OSM   H18S11757   5.221   4.112   8.989  2.4779 -1.3971  0.1998
  113OSM   H18T11758   5.153   3.956   8.935  3.5996 -1.9866 -1.2025
  113OSM   H18U11759   5.129   4.099   8.831 -1.1524 -0.5086  0.4384
  113OSM    C1F11760   5.572   3.524  10.457  0.8083  1.1283  0.0014
  113OSM     OF11761   5.470   3.541  10.524 -0.6127  0.1673  0.1853
  113OSM    C2F11762   5.597   3.380  10.405 -0.1660  0.0120  0.2266
  113OSM    H2F11763   5.702   3.353  10.432  0.3235  1.8427  0.3008
  113OSM    H2G11764   5.580   3.387  10.295 -2.1609 -1.6171  0.3666
  113OSM    C3F11765   5.506   3.282  10.481 -0.5724  1.0899  0.2195
  113OSM    H3F11766   5.398   3.309  10.478 -1.8191 -3.1194  0.8482
  113OSM    H3G11767   5.543   3.272  10.585 -1.9953 -0.4490  0.6292
  113OSM    C4F11768   5.499   3.138  10.428 -0.0227  0.3584  0.2552
  113OSM    H4F11769   5.597   3.093  10.452 -0.4904  0.8781  3.7279
  113OSM    H4G11770   5.486   3.145  10.318 -1.7637  0.1611  0.4064
  113OSM    C5F11771   5.380   3.051  10.479  0.1579  0.4231 -0.7583
  113OSM    H5F11772   5.287   3.111  10.481  0.0134  0.2027 -0.8068
  113OSM    H5G11773   5.406   3.032  10.585  0.6993 -0.3117 -1.0056
  113OSM    C6F11774   5.354   2.926  10.394 -0.6579  0.7302 -0.6160
  113OSM    H6F11775   5.297   2.854  10.458  0.7106  0.3853  0.2555
  113OSM    H6G11776   5.452   2.874  10.391 -1.3875 -0.8137  0.4474
  113OSM    C7F11777   5.297   2.952  10.251 -0.7164 -0.4877 -0.2143
  113OSM    H7F11778   5.339   3.044  10.205  0.8951 -0.4007  1.2921
  113OSM    H7G11779   5.187   2.962  10.258 -0.7835 -0.3467 -1.3368
  113OSM    C8F11780   5.319   2.830  10.161  0.1248  0.8208 -0.7069
  113OSM    H8F11781   5.289   2.734  10.208 -0.3742  1.0873 -0.4746
  113OSM    H8G11782   5.430   2.817  10.154 -0.2032 -2.3395 -1.5493
  113OSM    C9F11783   5.268   2.833  10.021  0.2705  0.3452 -0.3972
  113OSM    H9F11784   5.195   2.912  10.000  0.0936  0.2331 -0.2074
  113OSM   C10F11785   5.302   2.743   9.928 -0.2243  0.1171  1.3045
  113OSM   H10F11786   5.245   2.760   9.836  0.1077 -0.6174  0.9570
  113OSM   C11F11787   5.389   2.615   9.950  0.1971 -0.0766 -0.4035
  113OSM   H11F11788   5.434   2.617  10.052 -1.3483 -0.5379  0.3241
  113OSM   H11G11789   5.465   2.606   9.870 -2.0496 -0.1698 -2.6353
  113OSM   C12F11790   5.310   2.483   9.951  0.8984  0.0262  0.2268
  113OSM   H12F11791   5.242   2.484   9.863 -0.0305 -0.7103  0.9029
  113OSM   H12G11792   5.238   2.474  10.036 -1.3891  0.9537 -1.5107
  113OSM   C13F11793   5.387   2.355   9.931 -0.2991 -0.0748 -0.9891
  113OSM   H13F11794   5.427   2.363   9.828  1.0625  1.0786 -0.4058
  113OSM   H13G11795   5.335   2.257   9.938 -0.5759 -0.0807 -2.7430
  113OSM   C14F11796   5.498   2.335  10.036 -0.5514 -0.3948  0.0079
  113OSM   H14F11797   5.572   2.417  10.030 -1.9568  0.8551 -1.1982
  113OSM   H14G11798   5.542   2.236  10.012  0.8298  0.1943 -0.0055
  113OSM   C15F11799   5.445   2.339  10.181  0.0271  0.4079  0.1388
  113OSM   H15F11800   5.408   2.439  10.214  1.8614  0.7412  1.3560
  113OSM   H15G11801   5.544   2.329  10.232  0.4806  0.5445 -0.7009
  113OSM   C16F11802   5.368   2.215  10.220  0.1538 -0.3974 -0.2359
  113OSM   H16F11803   5.420   2.126  10.178  0.7771  0.0003 -0.3216
  113OSM   H16G11804   5.270   2.219  10.168  0.1730  2.1342 -0.2053
  113OSM   C17F11805   5.360   2.189  10.375  0.1456  0.3950 -0.5229
  113OSM   H17F11806   5.466   2.162  10.391 -0.4474 -2.3342 -0.5643
  113OSM   H17G11807   5.300   2.096  10.388  0.5062  0.2309 -0.0296
  113OSM   C18F11808   5.311   2.297  10.466  0.2354 -0.6044 -0.3686
  113OSM   H18F11809   5.349   2.396  10.433  2.1762 -0.2511  2.5982
  113OSM   H18G11810   5.339   2.276  10.572 -0.1932 -0.9229 -0.3136
  113OSM   H18H11811   5.200   2.307  10.469  0.1792 -1.3607  0.6221
  114OSM      N11812   6.366   1.728  11.602 -0.7673  0.1285 -0.1744
  114OSM    C1511813   6.374   1.741  11.754 -0.1831  0.7447  0.3637
  114OSM   H15A11814   6.380   1.842  11.791  2.3937 -0.1727  2.9119
  114OSM   H15B11815   6.458   1.686  11.794  0.1242  0.4435 -0.6625
  114OSM   H15C11816   6.293   1.680  11.793  0.6697  0.3249  1.5506
  114OSM    C1411817   6.468   1.822  11.543  0.0127  0.4103 -1.0045
  114OSM   H14A11818   6.472   1.810  11.436  0.6456 -1.1638 -0.8238
  114OSM   H14B11819   6.564   1.814  11.591 -1.2509  1.3996  1.9189
  114OSM   H14C11820   6.439   1.925  11.557 -0.2858  0.0443  1.6400
  114OSM    C1311821   6.403   1.594  11.553  0.2221  0.2731  0.1502
  114OSM   H13A11822   6.415   1.590  11.446  0.6017  0.6687  0.1737
  114OSM   H13B11823   6.334   1.515  11.577  1.4121 -1.3923 -1.5828
  114OSM   H13C11824   6.501   1.567  11.590  0.4619 -0.5672 -1.0200
  114OSM    C1211825   6.235   1.776  11.534 -0.3195  0.1751 -0.0520
  114OSM   H12A11826   6.239   1.746  11.430  0.3047  1.0938 -0.3025
  114OSM   H12B11827   6.222   1.883  11.526 -2.3113 -0.0740 -0.7913
  114OSM    C1111828   6.101   1.722  11.584  0.4863  0.5878 -0.2709
  114OSM   H11A11829   6.018   1.781  11.539 -0.7130 -1.2065 -0.4931
  114OSM   H11B11830   6.109   1.745  11.692  0.9983  0.3057 -0.2468
  114OSM      P11831   6.008   1.512  11.457 -0.3804 -0.1641 -0.1465
  114OSM    O1311832   6.079   1.396  11.401 -0.2102  0.7948  0.9434
  114OSM    O1411833   5.875   1.483  11.523  0.6128  0.2359  0.2028
  114OSM    O1111834   5.987   1.630  11.347  0.4172  0.0137  0.6529
  114OSM    O1211835   6.100   1.582  11.563  0.1335 -0.6944 -0.0676
  114OSM    C1S11836   6.097   1.648  11.255  0.4648  0.2723 -0.8119
  114OSM    H1S11837   6.178   1.574  11.271  0.9804  0.8668 -0.6204
  114OSM    H1T11838   6.138   1.750  11.267  3.1982 -0.7347 -0.9812
  114OSM     NF11839   6.153   1.624  11.024  1.1286 -0.2795 -0.2485
  114OSM    HNF11840   6.173   1.714  10.985 -1.3828  0.8633  0.8447
  114OSM    C2S11841   6.037   1.624  11.111 -0.3713  0.0398  0.0980
  114OSM    H2S11842   5.995   1.522  11.100 -0.0632  0.0935 -2.1143
  114OSM    C3S11843   5.927   1.734  11.089  0.0919  0.2517 -0.3177
  114OSM    H3S11844   5.967   1.836  11.106  0.3466  0.4968 -2.2264
  114OSM     O311845   5.814   1.730  11.175 -0.1697  0.2852 -0.1672
  114OSM    HO311846   5.851   1.683  11.250 -0.0952  1.4234  0.5311
  114OSM    C4S11847   5.893   1.732  10.939 -0.0295  0.8450  0.1877
  114OSM    H4S11848   5.854   1.633  10.912 -0.9802  1.2355  0.1118
  114OSM    C5S11849   5.905   1.832  10.850  0.5387 -0.3032 -0.3228
  114OSM    H5S11850   5.942   1.927  10.892 -0.7594 -0.1560  0.5354
  114OSM    C6S11851   5.869   1.830  10.704 -0.0983 -0.4126 -0.3422
  114OSM    H6S11852   5.960   1.855  10.646 -0.6591  3.8580  0.3242
  114OSM    H6T11853   5.802   1.914  10.678  0.4970  0.7701  1.7229
  114OSM    C7S11854   5.832   1.696  10.639  0.0294 -0.0301  0.8431
  114OSM    H7S11855   5.731   1.669  10.676  0.3064  0.8534  2.3096
  114OSM    H7T11856   5.897   1.609  10.666  1.3679  0.1771 -1.4270
  114OSM    C8S11857   5.838   1.701  10.488  0.0346  0.1814 -0.8289
  114OSM    H8S11858   5.799   1.801  10.461 -0.2254 -0.0457 -1.3079
  114OSM    H8T11859   5.769   1.622  10.453 -0.1936  0.1269 -0.2716
  114OSM    C9S11860   5.969   1.663  10.412 -0.1347  0.5850  0.4196
  114OSM    H9S11861   5.989   1.555  10.429 -0.6155  0.4590  0.2004
  114OSM    H9T11862   6.046   1.727  10.460 -2.0190  1.8191  1.9772
  114OSM   C10S11863   5.963   1.696  10.265 -0.4259 -0.6407 -0.9753
  114OSM   H10S11864   5.966   1.807  10.253  0.7915 -0.3019  1.7289
  114OSM   H10T11865   5.873   1.639  10.236 -1.1711 -0.3669  0.7129
  114OSM   C11S11866   6.080   1.639  10.196 -0.2173  0.1981 -0.2706
  114OSM   H11S11867   6.076   1.528  10.198 -0.0701  0.1747 -1.0254
  114OSM   H11T11868   6.171   1.670  10.251 -2.5504  2.1974  2.8504
  114OSM   C12S11869   6.084   1.682  10.052  0.0959 -0.9424  0.4007
  114OSM   H12S11870   6.101   1.791  10.052  1.8399 -1.1511 -1.4487
  114OSM   H12T11871   5.992   1.660   9.993 -0.2763 -2.6900  1.5263
  114OSM   C13S11872   6.199   1.615   9.976 -0.1049 -0.2530  0.1898
  114OSM   H13S11873   6.191   1.504   9.988  2.8676 -0.7987 -1.8964
  114OSM   H13T11874   6.298   1.645  10.015 -0.4504 -1.3887  2.0556
  114OSM   C14S11875   6.193   1.629   9.825 -0.1670 -0.1247  0.7392
  114OSM   H14S11876   6.093   1.611   9.781 -0.7460  1.2333  1.4150
  114OSM   H14T11877   6.266   1.554   9.787 -0.9045 -0.8071  0.6602
  114OSM   C15S11878   6.232   1.777   9.787  0.1034  0.9402 -0.7695
  114OSM   H15S11879   6.338   1.784   9.819  0.5098  2.2028 -2.2783
  114OSM   H15T11880   6.174   1.836   9.861 -0.8453 -0.3374 -0.4404
  114OSM   C16S11881   6.216   1.811   9.647 -0.4622 -0.1857  0.2973
  114OSM   H16S11882   6.232   1.920   9.639 -0.4394 -0.1160  1.1905
  114OSM   H16T11883   6.107   1.806   9.623 -0.6148  2.1729  0.2597
  114OSM   C17S11884   6.294   1.731   9.548  0.5265  0.3419 -0.2351
  114OSM   H17S11885   6.272   1.622   9.558  2.6963  0.0659  3.1850
  114OSM   H17T11886   6.402   1.734   9.571  1.1925  0.0187 -3.0269
  114OSM   C18S11887   6.266   1.779   9.407 -0.1714  0.4212  0.3013
  114OSM   H18S11888   6.243   1.888   9.404 -2.0122  0.0575 -0.2438
  114OSM   H18T11889   6.178   1.724   9.368  1.3635 -0.6838 -1.8250
  114OSM   H18U11890   6.347   1.755   9.335 -0.7663  1.2480 -0.6801
  114OSM    C1F11891   6.233   1.521  11.016  0.6544 -0.6254 -0.0349
  114OSM     OF11892   6.209   1.415  11.067 -0.5438  0.0043  0.3316
  114OSM    C2F11893   6.358   1.539  10.930 -0.6752  0.2540 -0.9286
  114OSM    H2F11894   6.450   1.528  10.992 -0.7604 -2.2989 -1.1383
  114OSM    H2G11895   6.367   1.635  10.876 -0.8557 -0.0718 -1.5433
  114OSM    C3F11896   6.387   1.431  10.824 -0.9267  0.2277  0.0038
  114OSM    H3F11897   6.391   1.329  10.868  1.2309 -0.2626 -1.1698
  114OSM    H3G11898   6.491   1.450  10.790 -0.3408 -1.4741  0.7093
  114OSM    C4F11899   6.278   1.435  10.711  0.5056 -0.1416 -0.0667
  114OSM    H4F11900   6.287   1.537  10.667  0.0058 -0.0655  0.0017
  114OSM    H4G11901   6.176   1.414  10.750  0.5227  0.1977  0.1705
  114OSM    C5F11902   6.294   1.333  10.600  0.0649 -0.0812  0.4572
  114OSM    H5F11903   6.201   1.324  10.540  0.4029 -3.4276  0.2833
  114OSM    H5G11904   6.305   1.230  10.639 -1.0441 -0.7645 -0.9734
  114OSM    C6F11905   6.418   1.369  10.510  0.3379  0.2430  0.1408
  114OSM    H6F11906   6.503   1.347  10.578 -0.9741  0.8043  2.0547
  114OSM    H6G11907   6.405   1.473  10.473 -2.0382 -0.9765 -2.9274
  114OSM    C7F11908   6.427   1.272  10.392  0.7257  0.3558 -0.5454
  114OSM    H7F11909   6.326   1.270  10.345  0.9742  0.3261 -1.0929
  114OSM    H7G11910   6.443   1.164  10.412  1.7148  0.6504  0.3238
  114OSM    C8F11911   6.531   1.324  10.289 -0.3926 -0.2435 -0.5487
  114OSM    H8F11912   6.625   1.342  10.345 -0.3881  0.8149 -0.8645
  114OSM    H8G11913   6.503   1.428  10.261  0.1782  0.3740  1.0340
  114OSM    C9F11914   6.565   1.228  10.178  0.4315  0.4146  0.4114
  114OSM    H9F11915   6.614   1.133  10.202 -1.8569 -0.5855  1.3868
  114OSM   C10F11916   6.532   1.244  10.048 -0.5889 -0.3523  0.3585
  114OSM   H10F11917   6.573   1.170   9.978 -0.2412 -0.5139  0.7236
  114OSM   C11F11918   6.445   1.351   9.982 -0.6397  0.7302  0.4015
  114OSM   H11F11919   6.467   1.447  10.032  0.8712  0.2258  0.7487
  114OSM   H11G11920   6.337   1.324   9.987 -0.3772 -0.3441  0.7142
  114OSM   C12F11921   6.476   1.372   9.828 -0.4404  0.3944 -1.0514
  114OSM   H12F11922   6.585   1.355   9.816 -0.2706 -1.3002  1.8480
  114OSM   H12G11923   6.473   1.482   9.810 -0.9537  0.6133  0.2211
  114OSM   C13F11924   6.400   1.284   9.729  0.1645  0.3285  0.3320
  114OSM   H13F11925   6.292   1.309   9.740  0.3441  2.0670 -1.2167
  114OSM   H13G11926   6.405   1.175   9.748 -0.4475 -0.0628 -1.4766
  114OSM   C14F11927   6.429   1.330   9.589  0.4377  0.1894  0.2946
  114OSM   H14F11928   6.529   1.309   9.546  0.6442  2.1474 -0.3153
  114OSM   H14G11929   6.421   1.441   9.584 -1.4366  0.3381  3.6131
  114OSM   C15F11930   6.321   1.276   9.490  0.3590  0.4093  0.1314
  114OSM   H15F11931   6.223   1.300   9.537  0.5237  0.9255  0.2273
  114OSM   H15G11932   6.333   1.166   9.480 -0.8095  0.2335  0.5266
  114OSM   C16F11933   6.342   1.349   9.355 -0.2178 -0.2462  0.3275
  114OSM   H16F11934   6.442   1.323   9.316 -0.1345 -1.0887  1.0732
  114OSM   H16G11935   6.335   1.460   9.364  0.7509 -0.0658 -0.8759
  114OSM   C17F11936   6.234   1.326   9.254  0.2247  0.1839  0.0974
  114OSM   H17F11937   6.250   1.393   9.166  0.4884 -1.1135 -0.8650
  114OSM   H17G11938   6.140   1.357   9.305  0.8619  1.0125  0.8051
  114OSM   C18F11939   6.230   1.183   9.198  0.1945 -0.5080  0.1337
  114OSM   H18F11940   6.324   1.163   9.142 -1.1817 -2.0826 -1.7607
  114OSM   H18G11941   6.148   1.167   9.124  0.1447 -2.1181  0.4998
  114OSM   H18H11942   6.214   1.113   9.282 -0.7952  1.0517  1.3159
  115OSM      N11943   1.825   3.233   6.119  0.6421 -0.1789  0.6740
  115OSM    C1511944   1.861   3.124   6.030 -0.3193  0.1087  0.2203
  115OSM   H15A11945   1.932   3.058   6.076 -1.0396 -0.2452  0.8297
  115OSM   H15B11946   1.921   3.152   5.944  1.7792 -3.0898  0.5021
  115OSM   H15C11947   1.769   3.075   6.001 -2.1194  2.0471  2.2348
  115OSM    C1411948   1.720   3.326   6.062 -0.1083 -0.4361 -0.3097
  115OSM   H14A11949   1.692   3.408   6.127 -0.8655 -0.8071 -0.1621
  115OSM   H14B11950   1.630   3.268   6.050 -1.3790  1.5416 -0.9393
  115OSM   H14C11951   1.757   3.373   5.972 -0.0792  0.2475  0.0527
  115OSM    C1311952   1.758   3.168   6.234 -0.2491  0.2661  0.6403
  115OSM   H13A11953   1.680   3.107   6.191  0.8987 -0.7270 -0.1324
  115OSM   H13B11954   1.729   3.228   6.319 -3.4471  0.7325 -0.6462
  115OSM   H13C11955   1.830   3.098   6.274 -0.1755 -0.4031 -0.6159
  115OSM    C1211956   1.945   3.311   6.169  0.2659 -0.2274 -0.5557
  115OSM   H12A11957   2.011   3.236   6.210  1.9439  0.9039 -1.0866
  115OSM   H12B11958   1.909   3.377   6.246 -1.8733  1.3222 -2.7356
  115OSM    C1111959   2.033   3.402   6.087  0.1701 -0.3285  0.2967
  115OSM   H11A11960   2.067   3.351   5.994 -1.4058  0.4665 -0.7717
  115OSM   H11B11961   2.133   3.431   6.128  1.1246  1.3424 -2.8663
  115OSM      P11962   1.949   3.640   6.155 -0.1357  0.0098  0.5354
  115OSM    O1311963   2.027   3.761   6.113 -0.0373  0.2986  0.2973
  115OSM    O1411964   1.808   3.666   6.169  0.4151 -0.2676  0.0199
  115OSM    O1111965   2.000   3.581   6.297  0.2024 -0.1418 -0.3152
  115OSM    O1211966   1.982   3.529   6.051 -0.1094 -0.0141 -0.2586
  115OSM    C1S11967   2.112   3.653   6.359  0.0947 -0.8760 -0.5376
  115OSM    H1S11968   2.117   3.760   6.327  1.2908 -0.6262  0.4068
  115OSM    H1T11969   2.209   3.601   6.347  2.2104  2.3669  0.8876
  115OSM     NF11970   2.207   3.728   6.575 -0.2795 -0.0744 -0.0348
  115OSM    HNF11971   2.282   3.668   6.599  0.9335  0.8416 -1.3238
  115OSM    C2S11972   2.096   3.657   6.509  0.4881  0.4453 -0.4395
  115OSM    H2S11973   1.995   3.697   6.530  0.0369 -0.3851 -0.9783
  115OSM    C3S11974   2.089   3.513   6.571  0.4009  0.1978 -0.1863
  115OSM    H3S11975   2.195   3.480   6.578  0.7327  1.1527 -0.6785
  115OSM     O311976   2.047   3.409   6.485  0.8435  0.6207  0.0607
  115OSM    HO311977   2.031   3.453   6.401 -0.9582 -1.4815 -0.8029
  115OSM    C4S11978   2.008   3.509   6.702 -0.4573 -0.0438  0.3394
  115OSM    H4S11979   2.078   3.533   6.784  0.3272  4.1900 -1.2866
  115OSM    C5S11980   1.878   3.482   6.715 -0.2877  0.5835  0.3552
  115OSM    H5S11981   1.819   3.460   6.625  2.7098  2.3992 -2.2354
  115OSM    C6S11982   1.811   3.487   6.853 -0.7010 -0.1130 -0.3631
  115OSM    H6S11983   1.892   3.469   6.927 -0.8138  0.4292 -0.0978
  115OSM    H6T11984   1.745   3.398   6.855 -1.1601  0.1669 -1.8195
  115OSM    C7S11985   1.729   3.618   6.868 -0.2104  0.5285  0.3284
  115OSM    H7S11986   1.674   3.613   6.964  0.5171 -3.1998  0.7158
  115OSM    H7T11987   1.646   3.613   6.794  1.2211  1.5673 -1.4325
  115OSM    C8S11988   1.811   3.747   6.859  0.6325 -1.2619  0.6965
  115OSM    H8S11989   1.734   3.825   6.873  1.2351 -0.3642 -0.6775
  115OSM    H8T11990   1.853   3.760   6.757  0.6538 -1.8021  0.6336
  115OSM    C9S11991   1.906   3.780   6.970  0.2248  0.1383 -0.1284
  115OSM    H9S11992   2.001   3.743   6.926 -0.3468  1.4387 -2.6449
  115OSM    H9T11993   1.871   3.735   7.066 -0.3779  0.7102 -0.0652
  115OSM   C10S11994   1.947   3.926   6.986 -0.5572  0.1084  0.4189
  115OSM   H10S11995   1.986   3.969   6.891  0.1433 -1.5569 -0.0770
  115OSM   H10T11996   2.016   3.933   7.073 -1.4038  2.7866  0.9711
  115OSM   C11S11997   1.837   4.016   7.051 -0.1779 -0.3802  0.4724
  115OSM   H11S11998   1.763   4.028   6.969 -0.1960 -1.4274  0.3186
  115OSM   H11T11999   1.874   4.117   7.078  2.5442 -1.8593  2.6967
  115OSM   C12S12000   1.786   3.961   7.180 -0.5184 -0.0635 -0.5122
  115OSM   H12S12001   1.869   3.946   7.251  1.4013  0.4108 -2.5418
  115OSM   H12T12002   1.728   3.870   7.154 -0.5752 -0.2064  0.1118
  115OSM   C13S12003   1.673   4.040   7.242 -0.2054 -0.3698 -0.1034
  115OSM   H13S12004   1.589   4.037   7.169  0.2838  2.0339 -0.8469
  115OSM   H13T12005   1.701   4.146   7.256 -1.8102  1.0277 -5.1489
  115OSM   C14S12006   1.616   3.976   7.368 -0.3456  0.8885  0.1207
  115OSM   H14S12007   1.700   3.957   7.439  0.6245  0.3759 -1.1356
  115OSM   H14T12008   1.579   3.878   7.332 -0.7986  1.3470 -0.6625
  115OSM   C15S12009   1.509   4.064   7.446 -0.3090  0.2949 -1.1845
  115OSM   H15S12010   1.437   4.113   7.376 -1.8207  0.4335  0.3926
  115OSM   H15T12011   1.563   4.142   7.503 -1.3541 -0.8253  1.4726
  115OSM   C16S12012   1.423   3.976   7.539  0.3400 -0.2512 -0.1897
  115OSM   H16S12013   1.352   3.921   7.474 -0.6331  1.7160 -0.8926
  115OSM   H16T12014   1.359   4.045   7.600  0.9854 -0.7271  1.0670
  115OSM   C17S12015   1.502   3.889   7.632 -0.2368 -0.4761  0.1744
  115OSM   H17S12016   1.575   3.943   7.697 -0.7993 -1.1861  1.4310
  115OSM   H17T12017   1.563   3.809   7.586  1.3696  1.1769 -0.6966
  115OSM   C18S12018   1.414   3.810   7.735  0.3943  0.3511 -0.4355
  115OSM   H18S12019   1.360   3.883   7.799  1.2785  0.5857  0.0716
  115OSM   H18T12020   1.481   3.754   7.804  1.6448  2.0601 -0.1950
  115OSM   H18U12021   1.349   3.737   7.682 -0.3492 -0.9416  2.1149
  115OSM    C1F12022   2.222   3.860   6.579 -0.3311 -0.0606  0.4680
  115OSM     OF12023   2.130   3.929   6.532 -0.2989 -0.4599  0.2936
  115OSM    C2F12024   2.347   3.928   6.626 -0.2760  0.3943  0.6079
  115OSM    H2F12025   2.417   3.941   6.540 -1.2071 -0.4110 -0.2986
  115OSM    H2G12026   2.386   3.852   6.696 -1.2516 -0.5506  0.1454
  115OSM    C3F12027   2.302   4.067   6.676 -0.1549 -0.7863  0.1027
  115OSM    H3F12028   2.231   4.049   6.760 -0.0576 -3.6100 -0.3266
  115OSM    H3G12029   2.259   4.135   6.599  2.8044 -0.4239 -1.3605
  115OSM    C4F12030   2.421   4.128   6.743 -0.6113  0.1990 -0.2804
  115OSM    H4F12031   2.490   4.154   6.661  0.2438 -1.4269 -0.1098
  115OSM    H4G12032   2.485   4.061   6.804 -1.0778 -0.7777 -0.8458
  115OSM    C5F12033   2.387   4.263   6.812 -0.3993 -1.0459  0.7472
  115OSM    H5F12034   2.323   4.240   6.900 -0.8717 -0.6800  0.5044
  115OSM    H5G12035   2.332   4.318   6.732  2.0208  0.4700  0.0303
  115OSM    C6F12036   2.505   4.352   6.845  0.1764  0.1485 -0.2836
  115OSM    H6F12037   2.478   4.457   6.870  1.9443  0.2909  1.1986
  115OSM    H6G12038   2.577   4.364   6.761  1.1807 -0.1925  0.5025
  115OSM    C7F12039   2.579   4.305   6.968 -0.4988  0.4939 -0.6219
  115OSM    H7F12040   2.646   4.387   7.003  0.8800 -0.2370 -1.4785
  115OSM    H7G12041   2.640   4.217   6.940  0.4525  0.9664 -0.0907
  115OSM    C8F12042   2.506   4.248   7.091 -0.4314  0.1040  0.0818
  115OSM    H8F12043   2.582   4.237   7.171 -0.9856 -0.2658  0.5608
  115OSM    H8G12044   2.469   4.147   7.065 -0.7627 -0.2749  1.8960
  115OSM    C9F12045   2.387   4.331   7.139 -0.8475  0.4850  0.4781
  115OSM    H9F12046   2.409   4.436   7.161  1.0555  0.2905 -0.2523
  115OSM   C10F12047   2.263   4.290   7.162 -0.2370 -0.5439  0.7655
  115OSM   H10F12048   2.192   4.358   7.212  0.4859 -1.3052  2.9458
  115OSM   C11F12049   2.200   4.155   7.148  0.0417 -0.7411  0.1153
  115OSM   H11F12050   2.250   4.096   7.068 -0.0006  0.5786 -0.9220
  115OSM   H11G12051   2.102   4.179   7.103 -0.3563  2.5251  2.4388
  115OSM   C12F12052   2.175   4.084   7.276  0.1964  0.0763 -0.3567
  115OSM   H12F12053   2.271   4.061   7.326 -0.8658 -0.8559  1.3255
  115OSM   H12G12054   2.125   3.987   7.260  1.0145 -0.8392  2.1281
  115OSM   C13F12055   2.097   4.165   7.380  0.6520  0.4239 -0.0403
  115OSM   H13F12056   2.000   4.200   7.336  0.1159 -1.3426 -0.3665
  115OSM   H13G12057   2.147   4.262   7.399  2.0820  0.0899 -1.8542
  115OSM   C14F12058   2.068   4.082   7.501 -0.2764 -0.2661  0.3787
  115OSM   H14F12059   2.159   4.070   7.563  1.3826 -5.1830 -2.4138
  115OSM   H14G12060   2.043   3.976   7.476 -0.5807 -0.0698 -0.1614
  115OSM   C15F12061   1.970   4.148   7.588 -0.3208  0.3199  0.3180
  115OSM   H15F12062   1.874   4.137   7.533 -1.9956  1.4349  2.8220
  115OSM   H15G12063   1.989   4.255   7.612 -2.6057  0.9276 -0.3476
  115OSM   C16F12064   1.956   4.085   7.729 -0.6009  0.2555  0.1171
  115OSM   H16F12065   1.870   4.138   7.776 -1.6733 -0.5532 -0.8585
  115OSM   H16G12066   2.044   4.111   7.792  1.2222 -0.1697 -2.1369
  115OSM   C17F12067   1.922   3.931   7.729 -0.5014  0.0322 -0.2781
  115OSM   H17F12068   1.998   3.865   7.682  0.3237  1.3233 -0.8152
  115OSM   H17G12069   1.839   3.924   7.655  0.2837 -0.8360 -1.1105
  115OSM   C18F12070   1.871   3.882   7.861  0.4783  0.2531  0.7571
  115OSM   H18F12071   1.803   3.954   7.911  0.3077 -0.9558  2.3656
  115OSM   H18G12072   1.957   3.859   7.926  0.9076 -0.0791  0.0864
  115OSM   H18H12073   1.819   3.786   7.838  0.3822  0.7411 -1.3012
  116OSM      N12074   1.058   1.130   5.926  0.1578 -0.1124 -0.1613
  116OSM    C1512075   1.039   1.193   5.788  0.0607 -0.0136 -0.8849
  116OSM   H15A12076   1.130   1.245   5.762  0.2508 -0.3972 -0.9830
  116OSM   H15B12077   0.962   1.269   5.800 -2.4352 -2.4953 -0.1818
  116OSM   H15C12078   1.020   1.119   5.712 -0.5098 -2.3881  1.4341
  116OSM    C1412079   0.943   1.038   5.956 -0.4395  0.2672 -0.5890
  116OSM   H14A12080   0.954   0.998   6.055  2.7284 -0.5225 -1.1460
  116OSM   H14B12081   0.947   0.955   5.887 -1.3737  0.7218 -1.2146
  116OSM   H14C12082   0.851   1.095   5.960 -0.1600  0.6599  2.0004
  116OSM    C1312083   1.181   1.049   5.922 -0.6960 -0.3414  0.0476
  116OSM   H13A12084   1.263   1.118   5.911 -1.3348  0.4058 -0.1443
  116OSM   H13B12085   1.179   0.981   5.838 -4.2347 -1.3152  0.7720
  116OSM   H13C12086   1.201   0.997   6.015  0.2777  0.3578  0.2435
  116OSM    C1212087   1.065   1.234   6.032 -0.5156 -0.2596 -0.0802
  116OSM   H12A12088   1.152   1.294   6.010 -1.3697  0.7907 -0.6796
  116OSM   H12B12089   1.101   1.189   6.123  0.2249 -0.1758 -0.3263
  116OSM    C1112090   0.947   1.326   6.060  0.4134  0.1428  0.4832
  116OSM   H11A12091   0.932   1.373   5.960 -1.5344  0.6149  0.9479
  116OSM   H11B12092   0.971   1.418   6.117 -0.9064  0.7638  0.0906
  116OSM      P12093   0.817   1.197   6.235  0.0126  0.3358  0.4314
  116OSM    O1312094   0.728   1.086   6.205 -0.7152  0.3520  0.3011
  116OSM    O1412095   0.954   1.164   6.277 -0.0042 -0.8300 -0.2126
  116OSM    O1112096   0.756   1.287   6.344  0.3510  0.5569  0.3253
  116OSM    O1212097   0.818   1.281   6.099 -0.7675  0.0862  0.7553
  116OSM    C1S12098   0.696   1.230   6.463 -0.0507  0.2980  0.5281
  116OSM    H1S12099   0.676   1.122   6.447  2.5571  0.1912 -3.4304
  116OSM    H1T12100   0.598   1.280   6.474 -1.3397 -2.0412  0.4586
  116OSM     NF12101   0.732   1.168   6.688  0.1910  0.3082  0.2853
  116OSM    HNF12102   0.654   1.202   6.741 -0.7992 -0.4126 -0.6491
  116OSM    C2S12103   0.784   1.251   6.586  0.2572 -0.7452  0.1866
  116OSM    H2S12104   0.892   1.238   6.564 -0.2653  0.5354 -4.0806
  116OSM    C3S12105   0.775   1.404   6.616 -0.3955  0.2241 -0.6091
  116OSM    H3S12106   0.668   1.414   6.644 -0.0266 -0.5079  1.1653
  116OSM     O312107   0.804   1.490   6.509 -0.3485  0.1671  0.1086
  116OSM    HO312108   0.793   1.435   6.431 -3.7169 -0.4867  0.9028
  116OSM    C4S12109   0.859   1.442   6.735 -0.4271  1.2778 -0.0146
  116OSM    H4S12110   0.807   1.430   6.832  0.0701  1.4398  0.2784
  116OSM    C5S12111   0.992   1.471   6.738 -0.4483  0.5793 -0.1813
  116OSM    H5S12112   1.050   1.445   6.648  0.9461 -0.6587  1.0082
  116OSM    C6S12113   1.074   1.513   6.851  0.0136  0.3993 -0.9194
  116OSM    H6S12114   1.017   1.581   6.919 -0.4171  0.7321 -1.5977
  116OSM    H6T12115   1.164   1.566   6.815 -0.5383  1.7298 -0.4233
  116OSM    C7S12116   1.128   1.395   6.942  0.3626 -0.2456  0.0425
  116OSM    H7S12117   1.202   1.443   7.009  1.0889  1.9491 -2.1513
  116OSM    H7T12118   1.194   1.329   6.881 -0.2353  2.0868 -3.3953
  116OSM    C8S12119   1.021   1.317   7.013  0.9090 -0.2203 -0.1701
  116OSM    H8S12120   0.968   1.251   6.941  0.6491  0.4619 -0.6128
  116OSM    H8T12121   0.947   1.389   7.055 -1.3647 -2.6353  0.2679
  116OSM    C9S12122   1.093   1.221   7.113 -0.2782  0.3283  0.4772
  116OSM    H9S12123   1.175   1.277   7.162  1.5753 -1.0275 -0.9401
  116OSM    H9T12124   1.147   1.151   7.046  0.8233 -0.8528  2.4853
  116OSM   C10S12125   0.989   1.154   7.208  0.3499 -0.5659  0.8950
  116OSM   H10S12126   1.040   1.085   7.278  1.1037 -1.6127 -0.6413
  116OSM   H10T12127   0.926   1.083   7.151  1.3119 -0.3466 -0.5016
  116OSM   C11S12128   0.900   1.253   7.289 -1.1654 -0.3052 -0.4240
  116OSM   H11S12129   0.837   1.194   7.359 -1.8577  1.0131  0.0998
  116OSM   H11T12130   0.836   1.305   7.216  0.1845  3.9015  1.0867
  116OSM   C12S12131   0.981   1.360   7.360 -0.3433 -0.3020 -0.8883
  116OSM   H12S12132   0.918   1.442   7.401  0.1215  0.1685 -1.1106
  116OSM   H12T12133   1.036   1.401   7.273 -0.0765 -1.6626 -1.3902
  116OSM   C13S12134   1.077   1.306   7.474 -0.3520  0.0347  0.9098
  116OSM   H13S12135   1.129   1.398   7.507  4.0985 -0.6205 -3.1902
  116OSM   H13T12136   1.151   1.233   7.436 -0.5720 -0.0740  0.6910
  116OSM   C14S12137   0.994   1.236   7.581  0.0708  0.6527 -0.8623
  116OSM   H14S12138   0.980   1.129   7.555 -0.2377  0.2393  0.9281
  116OSM   H14T12139   0.890   1.277   7.583  0.1373  0.7850  0.4824
  116OSM   C15S12140   1.054   1.248   7.718 -0.1464  0.2002 -0.3446
  116OSM   H15S12141   1.076   1.356   7.734  0.2580  0.1080 -0.2519
  116OSM   H15T12142   1.157   1.206   7.727 -0.1766  0.2862  0.5051
  116OSM   C16S12143   0.970   1.190   7.836  0.0834 -1.3990  0.6556
  116OSM   H16S12144   0.985   1.080   7.829 -0.7882 -1.4321 -1.6980
  116OSM   H16T12145   0.863   1.219   7.825  1.0667  1.7335 -2.0396
  116OSM   C17S12146   1.026   1.237   7.967  0.5590  0.1202 -0.1702
  116OSM   H17S12147   1.022   1.347   7.979 -0.9906 -0.0063  0.6954
  116OSM   H17T12148   1.128   1.193   7.977 -0.1153 -1.8323 -1.2968
  116OSM   C18S12149   0.943   1.175   8.087  0.1301  0.1693 -0.5051
  116OSM   H18S12150   0.939   1.064   8.085 -1.5032  0.2005 -0.5481
  116OSM   H18T12151   0.835   1.201   8.082 -0.3365 -1.7422 -1.1893
  116OSM   H18U12152   0.979   1.206   8.187 -0.9392 -1.4809  0.4315
  116OSM    C1F12153   0.765   1.039   6.697 -0.0887  0.6993  0.1622
  116OSM     OF12154   0.830   0.981   6.613  0.0452  0.0459 -0.0644
  116OSM    C2F12155   0.717   0.958   6.805  0.1813 -0.2053  0.2315
  116OSM    H2F12156   0.631   0.896   6.771  0.4727 -0.1712 -0.5760
  116OSM    H2G12157   0.678   1.032   6.878  0.2022 -0.8598  0.9212
  116OSM    C3F12158   0.824   0.854   6.869  0.6506 -0.0199  0.1842
  116OSM    H3F12159   0.925   0.899   6.870  2.2160 -3.1208 -2.0315
  116OSM    H3G12160   0.827   0.773   6.793 -1.5175 -2.0366  2.0992
  116OSM    C4F12161   0.780   0.776   6.991 -0.0141 -0.0189 -0.3667
  116OSM    H4F12162   0.818   0.672   7.001  2.2505  0.9202  2.3681
  116OSM    H4G12163   0.671   0.765   6.976 -0.4042  1.4677  1.1189
  116OSM    C5F12164   0.811   0.845   7.125  0.1562  0.2223 -0.1957
  116OSM    H5F12165   0.756   0.941   7.133 -1.0499 -0.5981  2.8651
  116OSM    H5G12166   0.918   0.874   7.117  0.4167 -0.3346  0.9294
  116OSM    C6F12167   0.776   0.765   7.251 -0.0247  0.2554  0.2889
  116OSM    H6F12168   0.830   0.668   7.262 -2.0574 -0.9678 -0.0744
  116OSM    H6G12169   0.667   0.745   7.251  0.0463 -0.4368  2.4924
  116OSM    C7F12170   0.818   0.839   7.374 -0.5975 -0.3663 -0.5735
  116OSM    H7F12171   0.765   0.935   7.388  0.1854 -0.1292  0.9729
  116OSM    H7G12172   0.925   0.865   7.368 -0.7569  0.3666 -0.2581
  116OSM    C8F12173   0.805   0.753   7.499 -0.1575 -0.2049 -0.3071
  116OSM    H8F12174   0.867   0.663   7.477  0.2886 -0.6449  2.3243
  116OSM    H8G12175   0.701   0.715   7.504 -0.6299  0.9873 -0.7347
  116OSM    C9F12176   0.852   0.831   7.615  0.3016 -0.4657  0.9144
  116OSM    H9F12177   0.915   0.917   7.592 -0.5674  0.5311  2.1361
  116OSM   C10F12178   0.805   0.819   7.733 -0.1958 -0.6462  0.0365
  116OSM   H10F12179   0.842   0.885   7.812 -2.8690  1.9264 -0.6890
  116OSM   C11F12180   0.698   0.720   7.780 -0.4795 -1.2508 -0.3289
  116OSM   H11F12181   0.749   0.622   7.796  0.2973 -1.0294 -1.3968
  116OSM   H11G12182   0.618   0.707   7.704 -0.8791  0.4139 -0.2304
  116OSM   C12F12183   0.627   0.755   7.914  0.6001 -0.3398  0.5032
  116OSM   H12F12184   0.541   0.689   7.939  1.0370 -0.5601  1.4799
  116OSM   H12G12185   0.584   0.856   7.897  2.9958  1.0179  1.8809
  116OSM   C13F12186   0.717   0.766   8.037 -0.0689  0.2445  0.3048
  116OSM   H13F12187   0.809   0.824   8.012  0.1045 -0.1100  0.1066
  116OSM   H13G12188   0.755   0.668   8.074  0.4488  0.2385 -0.2196
  116OSM   C14F12189   0.651   0.845   8.152 -0.2288  0.0070  0.8462
  116OSM   H14F12190   0.543   0.822   8.161  0.1201 -2.0315  0.3782
  116OSM   H14G12191   0.660   0.952   8.126 -0.0239  0.3054  2.0819
  116OSM   C15F12192   0.732   0.825   8.275  0.1812  0.4280  0.4815
  116OSM   H15F12193   0.837   0.856   8.256  0.2546  1.6503  2.5391
  116OSM   H15G12194   0.728   0.723   8.320  0.0111  0.4285  0.4693
  116OSM   C16F12195   0.681   0.915   8.393  0.1418 -0.2811  0.0392
  116OSM   H16F12196   0.572   0.892   8.393  0.1307 -0.4360 -2.1157
  116OSM   H16G12197   0.697   1.021   8.365  0.3396 -0.0850  0.8939
  116OSM   C17F12198   0.714   0.872   8.533 -0.2799 -0.6121 -0.4502
  116OSM   H17F12199   0.823   0.878   8.556  0.0705 -1.6750 -1.6602
  116OSM   H17G12200   0.687   0.764   8.542 -2.3275 -0.5590 -4.0532
  116OSM   C18F12201   0.638   0.964   8.635 -0.5102 -0.0166  0.5725
  116OSM   H18F12202   0.529   0.962   8.614 -0.2612  2.0188 -1.2519
  116OSM   H18G12203   0.677   1.068   8.622 -0.1300 -0.1795  0.3867
  116OSM   H18H12204   0.653   0.929   8.740 -1.2986 -1.9874  0.0667
  117OSM      N12205   5.300   5.289   6.133 -0.0806 -0.4144 -0.2372
  117OSM    C1512206   5.211   5.171   6.087 -0.0878 -0.6716  0.1907
  117OSM   H15A12207   5.273   5.093   6.046  0.1469 -0.8906  0.9491
  117OSM   H15B12208   5.141   5.198   6.009 -0.0904 -2.5177 -0.4944
  117OSM   H15C12209   5.149   5.133   6.167 -0.9050  2.2853  1.0953
  117OSM    C1412210   5.366   5.338   6.006  0.8369 -0.2317  0.3570
  117OSM   H14A12211   5.302   5.350   5.920  1.1571  1.1955  0.2853
  117OSM   H14B12212   5.435   5.262   5.973  0.7370 -0.6440  1.0983
  117OSM   H14C12213   5.415   5.434   6.013 -1.4527  1.0573 -0.3495
  117OSM    C1312214   5.207   5.400   6.177  0.3515 -0.0899 -0.6496
  117OSM   H13A12215   5.177   5.382   6.279  3.6929  1.7662  0.8496
  117OSM   H13B12216   5.126   5.423   6.110  0.7231  1.2494 -0.6730
  117OSM   H13C12217   5.267   5.491   6.181 -1.1877  0.9265  0.2763
  117OSM    C1212218   5.413   5.249   6.235  0.1702  0.2271 -1.5198
  117OSM   H12A12219   5.485   5.327   6.254  0.9436 -1.0558  1.1584
  117OSM   H12B12220   5.478   5.177   6.188  0.8374  0.0262 -0.3138
  117OSM    C1112221   5.360   5.200   6.375 -0.1550 -0.0238  1.1207
  117OSM   H11A12222   5.316   5.293   6.416  1.6255  1.5028 -0.2486
  117OSM   H11B12223   5.449   5.187   6.441  1.8402  0.0607 -1.3731
  117OSM      P12224   5.316   4.947   6.358  0.4012  0.2438  0.2698
  117OSM    O1312225   5.198   4.859   6.340  0.6175  0.0459  0.6645
  117OSM    O1412226   5.439   4.939   6.276 -0.5477  0.4720  0.6371
  117OSM    O1112227   5.374   4.942   6.505  0.2530  0.2974  0.6489
  117OSM    O1212228   5.267   5.095   6.361  0.2753 -0.2748 -0.2930
  117OSM    C1S12229   5.292   4.957   6.623  0.0599 -0.0108  0.2271
  117OSM    H1S12230   5.205   4.888   6.625  0.8181 -0.9795  2.6899
  117OSM    H1T12231   5.269   5.063   6.646  0.7096  1.2007 -3.8610
  117OSM     NF12232   5.296   4.963   6.875  0.2767 -0.1173  0.0996
  117OSM    HNF12233   5.316   5.047   6.924  1.8794 -1.3053  1.6631
  117OSM    C2S12234   5.371   4.926   6.757  0.0124 -0.6299 -0.0200
  117OSM    H2S12235   5.394   4.817   6.761  1.6246 -0.3118  0.0386
  117OSM    C3S12236   5.511   4.996   6.757 -0.8322  0.3529 -0.4461
  117OSM    H3S12237   5.491   5.105   6.772  4.8148  1.4183  1.5716
  117OSM     O312238   5.579   4.991   6.640 -0.4800  0.3894  0.2083
  117OSM    HO312239   5.515   4.971   6.571  0.6219  0.5423 -0.9012
  117OSM    C4S12240   5.601   4.948   6.868 -0.4806 -0.2439  0.5645
  117OSM    H4S12241   5.652   4.852   6.848  0.5428  0.3062  0.4669
  117OSM    C5S12242   5.608   5.003   6.989 -0.6073 -0.5770 -0.3497
  117OSM    H5S12243   5.536   5.084   7.011 -0.8955 -1.2238  1.2693
  117OSM    C6S12244   5.687   4.946   7.101 -0.7836 -0.1837 -0.2072
  117OSM    H6S12245   5.761   5.020   7.137  0.5035 -0.7560 -1.5336
  117OSM    H6T12246   5.750   4.863   7.061 -2.1119 -0.8005 -1.0906
  117OSM    C7S12247   5.591   4.906   7.218 -0.1957  0.1229  0.0849
  117OSM    H7S12248   5.525   4.990   7.247  1.6477  2.5033 -2.1624
  117OSM    H7T12249   5.664   4.892   7.301  0.0524 -0.4223 -0.2183
  117OSM    C8S12250   5.518   4.770   7.198  0.6240 -0.1375 -0.0831
  117OSM    H8S12251   5.565   4.677   7.160 -0.9078 -0.7251 -0.6302
  117OSM    H8T12252   5.439   4.794   7.124 -0.0783 -0.5487  0.5197
  117OSM    C9S12253   5.449   4.714   7.325  0.6603 -0.1118 -0.4161
  117OSM    H9S12254   5.368   4.788   7.344  2.1332  1.5495 -0.3777
  117OSM    H9T12255   5.521   4.717   7.409  0.4516  2.0613 -0.2418
  117OSM   C10S12256   5.374   4.581   7.312 -0.7321 -0.1933  0.2363
  117OSM   H10S12257   5.424   4.505   7.247  1.1396 -0.8804  2.3262
  117OSM   H10T12258   5.289   4.610   7.247  0.3042  1.6053 -0.3686
  117OSM   C11S12259   5.326   4.519   7.445  0.2734  0.6051 -0.1870
  117OSM   H11S12260   5.418   4.486   7.497 -0.1929 -1.6895 -0.7056
  117OSM   H11T12261   5.272   4.424   7.425  1.2164  0.5934 -3.2817
  117OSM   C12S12262   5.239   4.599   7.548 -0.3927 -0.2919  0.2462
  117OSM   H12S12263   5.145   4.621   7.491 -0.7406  0.5919  1.1240
  117OSM   H12T12264   5.287   4.697   7.570  0.0232 -0.1214 -1.3294
  117OSM   C13S12265   5.199   4.509   7.668 -0.3737  0.1281 -0.0202
  117OSM   H13S12266   5.188   4.405   7.632  1.9205  0.0666 -0.7171
  117OSM   H13T12267   5.106   4.549   7.713 -0.0923 -1.8267  2.4880
  117OSM   C14S12268   5.307   4.513   7.776 -0.5891 -0.8869  0.2709
  117OSM   H14S12269   5.347   4.615   7.793  2.0866 -1.8535  0.3714
  117OSM   H14T12270   5.401   4.462   7.747  0.2828  1.2795 -0.9306
  117OSM   C15S12271   5.247   4.464   7.908  0.0411  1.1430 -0.6893
  117OSM   H15S12272   5.228   4.355   7.897 -0.8552  1.3374 -1.2446
  117OSM   H15T12273   5.149   4.515   7.924 -0.7568 -0.5292 -0.1003
  117OSM   C16S12274   5.327   4.485   8.040 -0.0324 -0.0727  0.2540
  117OSM   H16S12275   5.434   4.468   8.016  0.4176 -0.4519  2.3032
  117OSM   H16T12276   5.306   4.405   8.114  0.9679  0.8833  1.6224
  117OSM   C17S12277   5.311   4.634   8.081 -0.4682 -0.8392  0.1516
  117OSM   H17S12278   5.204   4.664   8.087 -0.4393  0.1639 -2.7570
  117OSM   H17T12279   5.348   4.698   7.999 -1.1280 -0.9862 -0.2677
  117OSM   C18S12280   5.392   4.664   8.211  1.1555  0.0136  0.3783
  117OSM   H18S12281   5.330   4.614   8.288 -1.1856 -1.7174 -2.4176
  117OSM   H18T12282   5.391   4.774   8.226 -1.5162  0.1650 -0.3642
  117OSM   H18U12283   5.499   4.634   8.216  1.1053 -0.1580  0.4511
  117OSM    C1F12284   5.184   4.901   6.912  0.0188 -0.0347 -0.3134
  117OSM     OF12285   5.147   4.797   6.853 -0.4661  0.3017  0.0432
  117OSM    C2F12286   5.102   4.965   7.019  0.7973 -0.3122 -0.5032
  117OSM    H2F12287   4.997   4.951   6.987  0.1488  2.3107  0.1885
  117OSM    H2G12288   5.133   5.071   7.036 -0.0432 -0.0003 -0.8840
  117OSM    C3F12289   5.124   4.889   7.159  0.3373  0.2376 -0.0909
  117OSM    H3F12290   5.232   4.886   7.185  0.6237 -1.1568 -1.3096
  117OSM    H3G12291   5.097   4.781   7.149 -0.2161  0.3828 -0.2031
  117OSM    C4F12292   5.042   4.953   7.271  0.3349 -0.0164 -0.2377
  117OSM    H4F12293   4.932   4.944   7.269  0.1642  1.8664 -0.9848
  117OSM    H4G12294   5.064   5.062   7.276  1.3965 -0.2541  1.0903
  117OSM    C5F12295   5.079   4.888   7.405 -0.0833 -0.4597  0.2928
  117OSM    H5F12296   5.188   4.868   7.410 -0.5851 -3.9982 -0.3553
  117OSM    H5G12297   5.025   4.793   7.422  1.5580 -0.9797  3.2958
  117OSM    C6F12298   5.033   4.977   7.516 -0.3150 -0.0825 -0.5911
  117OSM    H6F12299   4.922   4.983   7.524 -0.1924  0.1485  2.0344
  117OSM    H6G12300   5.075   5.079   7.505 -0.6351  0.1450  0.2381
  117OSM    C7F12301   5.063   4.924   7.659 -0.0974  0.4901  0.4219
  117OSM    H7F12302   5.170   4.895   7.668 -0.8463 -3.3915 -1.1814
  117OSM    H7G12303   5.017   4.823   7.673  0.3719  0.2662  0.3794
  117OSM    C8F12304   5.012   5.012   7.782 -0.0645 -0.3561 -0.2863
  117OSM    H8F12305   4.914   5.061   7.761  0.1742  1.3051  2.0532
  117OSM    H8G12306   5.073   5.104   7.774 -0.7260  0.1682  0.5294
  117OSM    C9F12307   5.024   4.956   7.920 -0.2189 -0.9340 -0.4416
  117OSM    H9F12308   5.119   4.985   7.967 -0.8455  0.5417 -0.0160
  117OSM   C10F12309   4.936   4.881   7.991 -0.6612 -0.0145 -0.0249
  117OSM   H10F12310   4.964   4.840   8.089  1.5892 -1.1793 -1.1013
  117OSM   C11F12311   4.805   4.834   7.934 -0.0812  0.2780  0.0054
  117OSM   H11F12312   4.770   4.736   7.974 -0.5029 -0.1228 -1.3084
  117OSM   H11G12313   4.806   4.820   7.824 -0.1258 -1.5082  0.2034
  117OSM   C12F12314   4.685   4.932   7.955 -0.7633 -0.3418 -0.1687
  117OSM   H12F12315   4.600   4.899   7.892 -0.5066  0.2204 -0.8192
  117OSM   H12G12316   4.719   5.027   7.909 -1.2104 -0.2160 -0.2485
  117OSM   C13F12317   4.640   4.947   8.100 -0.1849 -0.4781 -0.2113
  117OSM   H13F12318   4.700   5.027   8.150  0.2938 -1.9974  1.8113
  117OSM   H13G12319   4.652   4.853   8.157 -1.3254 -1.0238 -0.8443
  117OSM   C14F12320   4.486   4.986   8.109  0.0912 -0.2511 -0.3672
  117OSM   H14F12321   4.466   5.062   8.030 -0.8630 -1.0311 -0.8970
  117OSM   H14G12322   4.465   5.035   8.206  1.2424  0.6975 -0.5712
  117OSM   C15F12323   4.395   4.868   8.090 -0.2855 -0.4666  0.6879
  117OSM   H15F12324   4.404   4.798   8.176  0.1495  0.4723  1.4245
  117OSM   H15G12325   4.403   4.815   7.993 -2.3467 -2.6029  1.5860
  117OSM   C16F12326   4.246   4.914   8.088 -0.4484  0.3770  0.4586
  117OSM   H16F12327   4.238   5.003   8.021 -0.7963  1.4840  1.9334
  117OSM   H16G12328   4.229   4.948   8.192  0.7697 -1.0322  1.1683
  117OSM   C17F12329   4.139   4.818   8.035  0.4557  0.4775 -0.1826
  117OSM   H17F12330   4.170   4.784   7.934 -0.0001 -0.2228 -0.0948
  117OSM   H17G12331   4.131   4.723   8.092  0.6644  0.2177 -0.5773
  117OSM   C18F12332   4.002   4.887   8.050 -0.1125 -0.9412 -0.0177
  117OSM   H18F12333   4.003   4.984   7.998 -0.4720 -2.2988 -2.7236
  117OSM   H18G12334   3.980   4.912   8.156  0.6862  1.0626 -0.2884
  117OSM   H18H12335   3.925   4.819   8.008 -1.1390 -0.2061  0.6166
  118OSM      N12336   0.992   5.601   6.170  0.5723  0.9642  0.2513
  118OSM    C1512337   0.883   5.582   6.271  0.3045  0.5710  0.4626
  118OSM   H15A12338   0.883   5.660   6.346 -0.2911  1.0425 -0.0200
  118OSM   H15B12339   0.897   5.495   6.333  0.3904  1.8939  2.3853
  118OSM   H15C12340   0.786   5.566   6.226 -1.7465  0.2092  4.4988
  118OSM    C1412341   1.123   5.616   6.248 -0.0265 -0.3225  0.5783
  118OSM   H14A12342   1.186   5.695   6.210  2.2076 -2.0798  0.4248
  118OSM   H14B12343   1.193   5.534   6.248  2.7765  1.8827  1.1468
  118OSM   H14C12344   1.105   5.653   6.348  1.7876  0.5372  0.6389
  118OSM    C1312345   1.007   5.485   6.065 -0.0512 -0.6276 -0.0485
  118OSM   H13A12346   1.032   5.392   6.114 -2.0204 -0.5638  1.1647
  118OSM   H13B12347   1.096   5.506   6.008  0.3645 -0.8420  0.5134
  118OSM   H13C12348   0.915   5.476   6.009  1.1752  2.4460 -2.9391
  118OSM    C1212349   0.959   5.722   6.082  1.1096  0.0590 -0.6984
  118OSM   H12A12350   1.041   5.741   6.014  1.4322  3.5725  0.4621
  118OSM   H12B12351   0.968   5.809   6.145  0.4909 -0.4709  0.1421
  118OSM    C1112352   0.824   5.724   6.002 -0.9367  0.5939  0.4012
  118OSM   H11A12353   0.817   5.627   5.950  1.6817 -0.3741  1.6702
  118OSM   H11B12354   0.842   5.797   5.921  1.9333 -1.7210 -1.2463
  118OSM      P12355   0.680   5.895   6.139 -0.3183  0.4410 -0.4096
  118OSM    O1312356   0.660   5.994   6.027 -0.4047  0.5588 -0.0949
  118OSM    O1412357   0.579   5.890   6.251 -0.2570  0.4022 -0.0274
  118OSM    O1112358   0.816   5.930   6.211 -0.0055  0.5275  0.0336
  118OSM    O1212359   0.702   5.751   6.077  0.1423 -0.9309 -0.2220
  118OSM    C1S12360   0.848   6.063   6.234 -0.0854  0.0347 -0.1019
  118OSM    H1S12361   0.758   6.128   6.231  1.2816  1.9882 -1.3106
  118OSM    H1T12362   0.917   6.094   6.153 -0.7770 -2.5039 -1.7801
  118OSM     NF12363   0.921   6.229   6.400 -0.1224 -0.9693  0.0176
  118OSM    HNF12364   1.013   6.264   6.389 -0.6641  0.4170 -0.3392
  118OSM    C2S12365   0.909   6.083   6.372 -0.1497 -1.0692 -0.0538
  118OSM    H2S12366   0.834   6.054   6.449 -0.2356 -0.4194  0.1098
  118OSM    C3S12367   1.036   5.994   6.388  0.0290 -0.7591 -0.3579
  118OSM    H3S12368   1.102   6.011   6.300 -1.0625  1.7116 -0.7792
  118OSM     O312369   0.992   5.854   6.389 -1.0488  0.1242 -0.6911
  118OSM    HO312370   0.904   5.860   6.349 -1.3377  0.0468 -0.0749
  118OSM    C4S12371   1.116   6.033   6.509 -0.5970 -0.2016 -0.0773
  118OSM    H4S12372   1.174   6.126   6.500 -0.0848 -0.5755 -0.7290
  118OSM    C5S12373   1.126   5.964   6.629  0.1519  0.2028 -1.1730
  118OSM    H5S12374   1.069   5.874   6.653  0.6410  0.1868 -0.0265
  118OSM    C6S12375   1.209   6.011   6.753 -0.5134  0.4974 -0.0577
  118OSM    H6S12376   1.232   6.118   6.734  1.4577  0.6260  2.4463
  118OSM    H6T12377   1.298   5.945   6.756 -1.9131 -1.8889 -3.9726
  118OSM    C7S12378   1.137   6.004   6.891  0.0345  0.1440 -0.1261
  118OSM    H7S12379   1.119   5.895   6.902  0.5473  0.1757  1.3368
  118OSM    H7T12380   1.040   6.048   6.862  0.1943  0.0825 -0.7663
  118OSM    C8S12381   1.207   6.066   7.010 -0.4616  0.0122  0.2365
  118OSM    H8S12382   1.250   6.164   6.981  2.7889 -1.2307  0.5393
  118OSM    H8T12383   1.294   6.002   7.032 -0.6820 -0.5524 -0.4887
  118OSM    C9S12384   1.111   6.074   7.130 -0.4680 -0.4873 -0.1613
  118OSM    H9S12385   1.077   5.969   7.143 -0.8229 -0.3385  0.1156
  118OSM    H9T12386   1.015   6.119   7.096  0.7105  0.4657 -2.4747
  118OSM   C10S12387   1.176   6.131   7.256  0.1254 -0.3685 -0.1295
  118OSM   H10S12388   1.178   6.241   7.241 -0.8541 -0.4600 -1.0824
  118OSM   H10T12389   1.283   6.105   7.258  0.5936  1.4482  1.2969
  118OSM   C11S12390   1.098   6.100   7.388  0.2069  0.4271 -0.3421
  118OSM   H11S12391   1.098   5.996   7.428 -1.2265  0.3376 -0.5193
  118OSM   H11T12392   0.992   6.131   7.375  0.2928  0.9643  0.1566
  118OSM   C12S12393   1.161   6.176   7.507  0.2561  0.1441  0.4386
  118OSM   H12S12394   1.144   6.285   7.498 -0.7560  0.0507  1.0291
  118OSM   H12T12395   1.269   6.148   7.509 -0.2721 -2.7340 -2.7382
  118OSM   C13S12396   1.091   6.134   7.638  0.1379  0.3571  0.1743
  118OSM   H13S12397   1.101   6.024   7.651 -1.9238  0.3687  2.6801
  118OSM   H13T12398   0.983   6.156   7.624  0.1086  1.4298  1.7441
  118OSM   C14S12399   1.149   6.194   7.766  0.4081  0.3565  0.3548
  118OSM   H14S12400   1.176   6.301   7.746  1.2008  0.0776 -0.1411
  118OSM   H14T12401   1.243   6.134   7.771  0.0337 -0.8077 -3.5343
  118OSM   C15S12402   1.059   6.176   7.891  0.2098 -0.5647 -0.2070
  118OSM   H15S12403   1.023   6.071   7.886  1.4561 -0.9616 -1.8611
  118OSM   H15T12404   0.961   6.226   7.879 -1.0095 -2.6972  0.4064
  118OSM   C16S12405   1.141   6.224   8.005 -0.0057  0.1391 -0.0802
  118OSM   H16S12406   1.182   6.324   7.980  0.9345 -0.1916  0.0725
  118OSM   H16T12407   1.216   6.143   8.019 -0.3908 -0.7199 -2.4481
  118OSM   C17S12408   1.045   6.240   8.125  0.3849  0.1686 -0.0019
  118OSM   H17S12409   1.019   6.136   8.155 -0.7123  0.8887  1.7309
  118OSM   H17T12410   0.948   6.285   8.093 -0.1162 -1.4427 -0.8237
  118OSM   C18S12411   1.112   6.300   8.250  0.2595 -0.2822 -0.9322
  118OSM   H18S12412   1.039   6.361   8.308 -0.1590 -3.0096  1.6587
  118OSM   H18T12413   1.203   6.361   8.234 -1.1845  1.8346 -1.5390
  118OSM   H18U12414   1.147   6.217   8.315  1.3125  1.3277  0.6714
  118OSM    C1F12415   0.818   6.308   6.425 -0.0349  0.7135 -0.0074
  118OSM     OF12416   0.707   6.267   6.406  0.3140  0.6537  0.5148
  118OSM    C2F12417   0.850   6.444   6.483  1.1866 -0.0880  0.1086
  118OSM    H2F12418   0.777   6.523   6.452  0.6314 -0.4195  0.5394
  118OSM    H2G12419   0.945   6.479   6.437  0.6440  0.5997 -0.5275
  118OSM    C3F12420   0.855   6.440   6.638 -0.1799 -0.1246  1.3802
  118OSM    H3F12421   0.757   6.431   6.690 -0.1520 -0.7322  1.3394
  118OSM    H3G12422   0.880   6.542   6.672  0.0823  1.0168 -1.8379
  118OSM    C4F12423   0.950   6.332   6.707  0.0363  1.2122 -0.1558
  118OSM    H4F12424   1.044   6.330   6.647  0.2229  0.8090  0.1450
  118OSM    H4G12425   0.901   6.234   6.689 -0.6664  1.5940 -0.3374
  118OSM    C5F12426   0.977   6.343   6.860 -0.5024  0.0983 -0.0468
  118OSM    H5F12427   1.038   6.435   6.875  0.2770 -0.3103 -0.6478
  118OSM    H5G12428   1.032   6.250   6.886 -0.8958 -1.1066 -3.0771
  118OSM    C6F12429   0.845   6.356   6.942 -0.2677  0.3384  0.3862
  118OSM    H6F12430   0.792   6.259   6.931  1.0716 -0.8504  3.4209
  118OSM    H6G12431   0.775   6.440   6.923 -0.5150  0.9082  3.3178
  118OSM    C7F12432   0.871   6.370   7.092  0.2104  0.6282  0.4265
  118OSM    H7F12433   0.943   6.454   7.087  1.5883 -0.5789 -1.2123
  118OSM    H7G12434   0.927   6.283   7.130 -2.0676 -1.5358 -0.8592
  118OSM    C8F12435   0.748   6.391   7.181  0.2669  0.2145 -1.1324
  118OSM    H8F12436   0.683   6.302   7.180 -1.7846  1.6425 -1.7731
  118OSM    H8G12437   0.689   6.475   7.139 -0.7655 -0.0237 -0.1822
  118OSM    C9F12438   0.797   6.439   7.318  0.6818 -0.4890  0.1979
  118OSM    H9F12439   0.834   6.542   7.305 -0.0148 -0.2274  0.3002
  118OSM   C10F12440   0.797   6.377   7.438  0.2025 -0.1803 -0.4645
  118OSM   H10F12441   0.828   6.427   7.530  1.2420 -1.1790 -0.2624
  118OSM   C11F12442   0.745   6.240   7.468 -0.3379  0.2429  0.0183
  118OSM   H11F12443   0.822   6.161   7.456 -1.6635 -1.2444  0.9269
  118OSM   H11G12444   0.663   6.219   7.396  0.1121  1.1489 -0.7784
  118OSM   C12F12445   0.685   6.216   7.611 -0.0862  0.0479  0.8645
  118OSM   H12F12446   0.586   6.265   7.623  0.7468  1.6696  1.4435
  118OSM   H12G12447   0.755   6.255   7.688  2.7451 -1.4947 -0.7437
  118OSM   C13F12448   0.670   6.058   7.632 -0.0052  0.1523 -0.2644
  118OSM   H13F12449   0.775   6.023   7.639 -0.3703 -1.0691 -0.5957
  118OSM   H13G12450   0.617   6.028   7.539 -0.5281  0.4575 -0.0664
  118OSM   C14F12451   0.584   6.016   7.749 -0.4633 -0.4907  0.3756
  118OSM   H14F12452   0.562   5.907   7.744 -0.1094 -0.5219 -0.7850
  118OSM   H14G12453   0.499   6.088   7.745 -0.7215 -0.6689  2.0076
  118OSM   C15F12454   0.656   6.028   7.884 -0.6648  0.0461  0.5759
  118OSM   H15F12455   0.671   6.137   7.902  0.1055  0.3029 -1.4077
  118OSM   H15G12456   0.752   5.975   7.866 -2.0241 -2.3358 -0.1616
  118OSM   C16F12457   0.581   5.960   7.993  0.3711  0.0770 -0.6415
  118OSM   H16F12458   0.560   5.858   7.954 -0.9399 -0.7560  2.0202
  118OSM   H16G12459   0.482   6.006   8.012  0.1713 -0.2289 -0.9313
  118OSM   C17F12460   0.664   5.939   8.113 -0.3341  0.2970  0.2665
  118OSM   H17F12461   0.699   6.035   8.155  0.3356 -0.6735  2.0511
  118OSM   H17G12462   0.747   5.875   8.075 -0.6370  1.1316 -1.9969
  118OSM   C18F12463   0.589   5.861   8.213 -0.1727  0.0296  0.4215
  118OSM   H18F12464   0.544   5.769   8.172 -3.2586  0.8185  1.7488
  118OSM   H18G12465   0.505   5.927   8.245  0.6692  0.2477  2.3664
  118OSM   H18H12466   0.661   5.830   8.292 -1.1773 -2.3045  0.5024
  119OSM      N12467   2.667   6.299   5.804  0.0932  0.4177 -0.0822
  119OSM    C1512468   2.661   6.235   5.672 -0.9927  0.1257  0.3105
  119OSM   H15A12469   2.567   6.191   5.643 -0.3561 -1.4937  0.5933
  119OSM   H15B12470   2.735   6.156   5.678  0.0292  1.0858  0.7441
  119OSM   H15C12471   2.697   6.298   5.592  0.2445 -0.8836  0.0338
  119OSM    C1412472   2.805   6.344   5.823 -0.4766  0.6758  0.0605
  119OSM   H14A12473   2.807   6.420   5.900  3.5104 -0.6508  1.5103
  119OSM   H14B12474   2.848   6.366   5.727 -2.1776  2.0408 -0.4380
  119OSM   H14C12475   2.865   6.264   5.864 -1.3408  1.5162  3.2680
  119OSM    C1312476   2.584   6.423   5.798 -0.4777  0.8664 -0.3307
  119OSM   H13A12477   2.624   6.487   5.721  0.2242  0.7207 -0.0977
  119OSM   H13B12478   2.588   6.486   5.886 -0.4712  1.7744 -0.9607
  119OSM   H13C12479   2.482   6.396   5.776 -0.9084  0.2532  2.1179
  119OSM    C1212480   2.615   6.204   5.904  0.0835  0.4125  0.2490
  119OSM   H12A12481   2.513   6.186   5.875 -0.1305  3.5555 -1.3405
  119OSM   H12B12482   2.615   6.247   6.003  0.6220 -0.2880  0.5673
  119OSM    C1112483   2.685   6.064   5.913 -0.3864  0.1745  0.0832
  119OSM   H11A12484   2.654   6.011   5.820 -0.5595 -0.1109  0.2999
  119OSM   H11B12485   2.635   6.007   5.995 -1.2495  3.0543  1.7222
  119OSM      P12486   2.915   5.940   5.928  0.0574 -0.0840 -0.2453
  119OSM    O1312487   2.891   5.851   5.816  0.1626  0.2624  0.2561
  119OSM    O1412488   3.057   5.975   5.954  0.1407 -0.5638  0.1590
  119OSM    O1112489   2.871   5.866   6.062  0.1749  0.3809  0.1201
  119OSM    O1212490   2.826   6.076   5.926 -0.7467 -0.4079  0.1184
  119OSM    C1S12491   2.945   5.885   6.181  0.3331 -0.0278 -0.1409
  119OSM    H1S12492   2.995   5.984   6.194  2.8015 -1.4628  2.3209
  119OSM    H1T12493   3.019   5.802   6.175  0.4366  0.1525 -1.8191
  119OSM     NF12494   2.948   5.900   6.425 -0.5835 -0.0324  0.9207
  119OSM    HNF12495   2.991   5.821   6.468 -0.8830 -0.2128  0.8930
  119OSM    C2S12496   2.865   5.862   6.312 -0.4154  0.2495 -0.1894
  119OSM    H2S12497   2.775   5.927   6.309 -0.8150 -0.2986 -3.3048
  119OSM    C3S12498   2.811   5.714   6.315 -0.0247  0.2874  0.4642
  119OSM    H3S12499   2.907   5.657   6.324 -0.6897 -1.4892 -2.2755
  119OSM     O312500   2.737   5.657   6.200  0.2894 -0.0260 -0.4400
  119OSM    HO312501   2.779   5.703   6.127  0.9806  0.5033  0.2778
  119OSM    C4S12502   2.724   5.678   6.435  0.3009  0.2054  0.0274
  119OSM    H4S12503   2.663   5.766   6.462 -0.1476  0.1098 -0.6485
  119OSM    C5S12504   2.718   5.569   6.510  0.5933  0.2717 -0.9057
  119OSM    H5S12505   2.778   5.479   6.491 -0.5564 -0.3282 -1.8195
  119OSM    C6S12506   2.616   5.548   6.622 -0.3105 -0.1993  0.2776
  119OSM    H6S12507   2.668   5.536   6.719  1.8903  0.7665 -0.7056
  119OSM    H6T12508   2.569   5.452   6.590  3.4165 -1.8094 -0.9597
  119OSM    C7S12509   2.515   5.666   6.633 -0.4392  0.1375  0.0807
  119OSM    H7S12510   2.451   5.682   6.543 -0.5037  1.5792  0.3594
  119OSM    H7T12511   2.579   5.755   6.653  0.6621 -0.0392 -2.2607
  119OSM    C8S12512   2.417   5.637   6.744  0.1778 -0.2081 -0.1540
  119OSM    H8S12513   2.477   5.608   6.833  3.1054  1.6531 -1.3797
  119OSM    H8T12514   2.346   5.559   6.708 -1.5011  0.8034  0.8397
  119OSM    C9S12515   2.322   5.760   6.770  0.1176 -0.1068  0.1980
  119OSM    H9S12516   2.252   5.763   6.684  1.2232 -2.6215 -0.8734
  119OSM    H9T12517   2.389   5.848   6.786 -0.7263  0.0552  3.7048
  119OSM   C10S12518   2.246   5.737   6.903 -1.1795 -0.3556  0.0697
  119OSM   H10S12519   2.315   5.702   6.982 -0.1006 -0.8262 -1.0512
  119OSM   H10T12520   2.177   5.653   6.884  0.6053 -1.4912 -1.7854
  119OSM   C11S12521   2.165   5.861   6.937  0.4719  0.1743 -0.1904
  119OSM   H11S12522   2.114   5.902   6.847  0.6915  2.2307  0.5654
  119OSM   H11T12523   2.234   5.937   6.978 -1.2838 -0.4546  4.5575
  119OSM   C12S12524   2.067   5.828   7.053  0.5422  0.1349 -0.6722
  119OSM   H12S12525   2.010   5.735   7.030 -1.3877 -0.5410  5.1701
  119OSM   H12T12526   1.985   5.903   7.057 -0.5311 -1.0002 -0.7016
  119OSM   C13S12527   2.131   5.812   7.195 -0.4520  0.8068 -0.2109
  119OSM   H13S12528   2.177   5.907   7.230  3.5044 -0.3610 -1.6808
  119OSM   H13T12529   2.223   5.749   7.192 -0.8483  0.2107  0.0204
  119OSM   C14S12530   2.042   5.734   7.290 -0.4676 -1.0022  0.6544
  119OSM   H14S12531   2.080   5.630   7.291 -2.7082 -1.8811  0.4019
  119OSM   H14T12532   1.937   5.737   7.252  0.1766  1.1892 -1.2261
  119OSM   C15S12533   2.044   5.790   7.431 -0.3182  0.7417  0.2622
  119OSM   H15S12534   2.144   5.810   7.474  0.6135  1.4141 -2.0656
  119OSM   H15T12535   1.990   5.715   7.491 -1.2655  1.2098  0.0218
  119OSM   C16S12536   1.979   5.935   7.445  0.5184  0.5511 -0.0704
  119OSM   H16S12537   1.872   5.922   7.420 -0.0069  0.5322  1.9675
  119OSM   H16T12538   2.032   6.008   7.381  0.1401  1.2234  0.3751
  119OSM   C17S12539   1.981   5.990   7.584  0.4603  0.2393 -0.5683
  119OSM   H17S12540   1.916   6.080   7.577  2.0969  1.6404  1.2308
  119OSM   H17T12541   2.085   6.011   7.615 -0.2055 -0.9445  2.9511
  119OSM   C18S12542   1.936   5.907   7.702  0.2427  0.1223 -0.6474
  119OSM   H18S12543   1.929   5.973   7.791 -1.4058 -0.4667 -0.2877
  119OSM   H18T12544   2.013   5.831   7.727 -1.1767 -1.5058 -0.9837
  119OSM   H18U12545   1.843   5.845   7.694  1.1205 -1.2718 -0.4508
  119OSM    C1F12546   2.977   6.026   6.459 -0.3395  0.2998 -0.1203
  119OSM     OF12547   2.932   6.126   6.393  0.5554 -0.1204 -0.3437
  119OSM    C2F12548   3.078   6.038   6.573 -0.3503 -0.0861 -0.0433
  119OSM    H2F12549   3.156   6.110   6.541  0.8481 -0.5461  1.7556
  119OSM    H2G12550   3.116   5.935   6.592  0.0062  0.5154  2.8226
  119OSM    C3F12551   3.019   6.113   6.691 -0.0824  0.0689 -0.3064
  119OSM    H3F12552   2.969   6.206   6.654 -3.4284 -1.8776 -1.0948
  119OSM    H3G12553   3.105   6.146   6.754  1.4638 -0.3957 -2.1107
  119OSM    C4F12554   2.928   6.026   6.773  0.1838  0.1354 -0.0803
  119OSM    H4F12555   2.986   5.951   6.830 -0.7835 -1.0642 -0.6419
  119OSM    H4G12556   2.861   5.960   6.715 -1.5299  0.0263  1.9217
  119OSM    C5F12557   2.846   6.109   6.870  0.0681  0.3747 -0.2944
  119OSM    H5F12558   2.794   6.192   6.817 -2.7113 -0.2153  1.3232
  119OSM    H5G12559   2.917   6.152   6.944  0.6399  0.8916 -1.1210
  119OSM    C6F12560   2.723   6.045   6.945  0.2435 -0.9732  0.4210
  119OSM    H6F12561   2.663   5.988   6.870 -0.0840  0.8124 -0.7361
  119OSM    H6G12562   2.668   6.128   6.994  0.2062 -0.8127  0.1087
  119OSM    C7F12563   2.763   5.950   7.048 -0.8074  0.3849 -0.3445
  119OSM    H7F12564   2.822   6.001   7.127 -0.9714 -0.2596  0.2023
  119OSM    H7G12565   2.819   5.865   7.003 -1.9294 -0.2950 -0.4906
  119OSM    C8F12566   2.650   5.886   7.124  0.8830  0.6716  0.1012
  119OSM    H8F12567   2.593   5.831   7.047  2.2953 -0.7042 -0.0084
  119OSM    H8G12568   2.580   5.963   7.163 -1.4747 -0.3667 -1.8924
  119OSM    C9F12569   2.709   5.804   7.232 -0.3788  0.3631  1.1788
  119OSM    H9F12570   2.775   5.723   7.197  0.9826  0.7736  2.6816
  119OSM   C10F12571   2.687   5.824   7.359  0.0795 -0.4625 -0.1297
  119OSM   H10F12572   2.739   5.758   7.430 -2.3070  0.0532  2.2519
  119OSM   C11F12573   2.619   5.940   7.430 -0.0940 -0.4559 -0.1645
  119OSM   H11F12574   2.508   5.935   7.426 -0.2779  1.9338  0.4930
  119OSM   H11G12575   2.663   6.037   7.400  0.7524  0.1259  2.6336
  119OSM   C12F12576   2.644   5.933   7.582  0.7124  0.0366 -0.0548
  119OSM   H12F12577   2.633   6.029   7.636  3.2871  0.4213 -0.1013
  119OSM   H12G12578   2.754   5.915   7.585  0.8186 -0.3819 -3.0978
  119OSM   C13F12579   2.570   5.823   7.667  0.6555  0.3560 -0.2616
  119OSM   H13F12580   2.597   5.726   7.620 -3.6860 -0.9413 -0.5310
  119OSM   H13G12581   2.461   5.844   7.658  0.1939 -0.9356  1.6594
  119OSM   C14F12582   2.621   5.814   7.815  0.6207  0.3300  0.2984
  119OSM   H14F12583   2.729   5.790   7.825  0.6044  0.3438  0.4937
  119OSM   H14G12584   2.563   5.738   7.872  3.3241 -1.5004  0.8168
  119OSM   C15F12585   2.615   5.945   7.885  0.2236 -0.3698 -0.1430
  119OSM   H15F12586   2.689   6.014   7.839 -0.8780  0.4580 -0.7215
  119OSM   H15G12587   2.640   5.936   7.992  0.3393  1.0016 -0.0458
  119OSM   C16F12588   2.473   6.013   7.887 -0.3789  0.1983  0.7430
  119OSM   H16F12589   2.450   6.067   7.793  0.3130 -0.8492 -0.0434
  119OSM   H16G12590   2.470   6.080   7.975  2.0770 -0.9114  1.7691
  119OSM   C17F12591   2.361   5.912   7.922  0.3479  0.1452  0.0851
  119OSM   H17F12592   2.412   5.835   7.984 -0.2172  0.1554  0.5760
  119OSM   H17G12593   2.323   5.867   7.828 -0.1884 -0.2024  0.4572
  119OSM   C18F12594   2.246   5.989   7.993 -0.4081  0.3319 -0.0808
  119OSM   H18F12595   2.263   6.005   8.102  1.6054  0.7834 -0.4356
  119OSM   H18G12596   2.156   5.925   7.976  0.3013 -0.9099  0.6998
  119OSM   H18H12597   2.234   6.089   7.947  0.4091  1.0705  1.2397
  120OSM      N12598   0.356   2.257   6.038  0.6003 -0.3427 -0.2878
  120OSM    C1512599   0.252   2.148   6.023  0.5259 -0.4118 -0.5403
  120OSM   H15A12600   0.208   2.111   6.114  1.2419  0.0549  0.0067
  120OSM   H15B12601   0.310   2.064   5.986 -1.2230 -1.6754 -0.5440
  120OSM   H15C12602   0.174   2.151   5.948  0.4967 -1.7104 -0.5898
  120OSM    C1412603   0.382   2.298   5.897  0.0448 -0.0912  0.4904
  120OSM   H14A12604   0.292   2.340   5.855 -0.2604  0.4925  1.6978
  120OSM   H14B12605   0.419   2.218   5.834  0.8387  1.6359 -1.3536
  120OSM   H14C12606   0.449   2.382   5.895  1.8182 -1.4183  1.4657
  120OSM    C1312607   0.303   2.377   6.104  0.4425 -0.4024  0.2341
  120OSM   H13A12608   0.230   2.420   6.037 -1.1474  0.5646  2.4641
  120OSM   H13B12609   0.374   2.456   6.125 -1.3288  1.1545  0.5810
  120OSM   H13C12610   0.257   2.349   6.197 -1.7212  0.8648 -0.3718
  120OSM    C1212611   0.490   2.211   6.105  0.8640  0.0661  0.0233
  120OSM   H12A12612   0.561   2.293   6.103  1.6900 -0.6089  0.9237
  120OSM   H12B12613   0.531   2.127   6.052  1.6434 -0.5535  1.5460
  120OSM    C1112614   0.473   2.158   6.246 -0.4552 -0.0270 -0.1432
  120OSM   H11A12615   0.549   2.077   6.247  0.2484  0.6122  1.4165
  120OSM   H11B12616   0.372   2.117   6.268 -0.8252 -0.4401 -2.3557
  120OSM      P12617   0.653   2.301   6.372 -0.3989  0.0596  0.1419
  120OSM    O1312618   0.713   2.334   6.244 -0.5078 -0.2895  0.3068
  120OSM    O1412619   0.650   2.413   6.474  0.7262  0.1186 -0.0537
  120OSM    O1112620   0.727   2.173   6.424  0.3335 -0.0354 -0.5899
  120OSM    O1212621   0.505   2.257   6.343  0.1584 -0.0954 -0.2345
  120OSM    C1S12622   0.815   2.178   6.535  0.5596  0.2921 -0.3903
  120OSM    H1S12623   0.849   2.275   6.576  2.4747 -1.8133  3.6641
  120OSM    H1T12624   0.911   2.123   6.520  1.1358  0.0283  3.2832
  120OSM     NF12625   0.816   2.144   6.791 -0.8654  0.6033 -0.1366
  120OSM    HNF12626   0.869   2.074   6.838  1.2545  0.3611 -2.6421
  120OSM    C2S12627   0.758   2.105   6.661 -0.3923  0.0981 -0.5127
  120OSM    H2S12628   0.648   2.122   6.667 -0.1901  0.8774  2.8191
  120OSM    C3S12629   0.780   1.952   6.632  0.6820 -0.0926 -1.0960
  120OSM    H3S12630   0.890   1.942   6.620  1.7917  3.0243  3.7208
  120OSM     O312631   0.726   1.916   6.506 -0.5474 -0.1508  0.3368
  120OSM    HO312632   0.705   1.999   6.462  0.9479  0.2028  0.2259
  120OSM    C4S12633   0.722   1.870   6.744 -0.5880 -0.4429  0.4854
  120OSM    H4S12634   0.612   1.880   6.745 -0.5608  0.1549 -0.8540
  120OSM    C5S12635   0.783   1.793   6.832  0.0322 -0.2286 -0.2307
  120OSM    H5S12636   0.893   1.797   6.831  0.0764 -1.1875 -0.5536
  120OSM    C6S12637   0.730   1.719   6.955 -0.3455  0.1110  0.8266
  120OSM    H6S12638   0.767   1.615   6.946 -0.8219 -0.0432  0.6485
  120OSM    H6T12639   0.620   1.705   6.961 -0.1412 -3.4456 -1.0347
  120OSM    C7S12640   0.782   1.780   7.087  0.0493  0.5307  0.7840
  120OSM    H7S12641   0.725   1.875   7.091  0.7841  1.0297 -0.1756
  120OSM    H7T12642   0.892   1.793   7.091  0.2757 -0.3105 -1.1101
  120OSM    C8S12643   0.732   1.681   7.189 -0.5595 -0.7432  0.0980
  120OSM    H8S12644   0.783   1.584   7.171  0.8214  0.2841 -1.8735
  120OSM    H8T12645   0.622   1.666   7.182 -0.6608 -0.0436  0.0954
  120OSM    C9S12646   0.772   1.725   7.340  0.1571  0.7137  0.0523
  120OSM    H9S12647   0.751   1.833   7.359  1.6918  0.9074  0.7615
  120OSM    H9T12648   0.882   1.716   7.344  0.1310 -0.8754 -1.6565
  120OSM   C10S12649   0.706   1.649   7.458  0.5820 -0.1314  0.3131
  120OSM   H10S12650   0.696   1.546   7.417  0.7047  1.1195 -3.1700
  120OSM   H10T12651   0.606   1.686   7.488  0.9989  0.1594  1.4016
  120OSM   C11S12652   0.809   1.672   7.566 -0.4164 -0.8911  0.7573
  120OSM   H11S12653   0.813   1.783   7.561  1.3251 -0.9436  0.4638
  120OSM   H11T12654   0.909   1.638   7.531  0.1320  0.7762  0.6130
  120OSM   C12S12655   0.773   1.611   7.699 -0.1139 -0.5331 -0.3209
  120OSM   H12S12656   0.780   1.500   7.700 -2.0637 -0.6876 -0.0151
  120OSM   H12T12657   0.669   1.634   7.732  0.3855 -0.4075  1.2740
  120OSM   C13S12658   0.860   1.668   7.820 -0.4644 -0.6427  0.1003
  120OSM   H13S12659   0.836   1.776   7.832 -1.3421 -0.9513  1.3537
  120OSM   H13T12660   0.966   1.652   7.791 -1.0030  0.0368 -2.5107
  120OSM   C14S12661   0.830   1.601   7.952 -0.0503 -0.1300  0.1132
  120OSM   H14S12662   0.844   1.492   7.936  0.6880  0.1217 -1.0658
  120OSM   H14T12663   0.726   1.624   7.986  0.7571  0.6370  2.2248
  120OSM   C15S12664   0.916   1.650   8.069 -0.1160 -0.0089 -0.2463
  120OSM   H15S12665   0.897   1.759   8.066  0.2839  0.0544 -0.5759
  120OSM   H15T12666   1.026   1.639   8.058  0.0920 -1.0484  2.1290
  120OSM   C16S12667   0.868   1.569   8.199  0.6320 -0.9875  0.2444
  120OSM   H16S12668   0.944   1.572   8.280 -1.3222  0.7141  2.1480
  120OSM   H16T12669   0.870   1.465   8.161  0.6854 -0.8663 -0.0934
  120OSM   C17S12670   0.734   1.619   8.261  0.2354  1.6326 -0.3091
  120OSM   H17S12671   0.646   1.592   8.199  0.1726  1.1408 -0.0173
  120OSM   H17T12672   0.738   1.728   8.280  0.7346  1.4149  0.9762
  120OSM   C18S12673   0.718   1.547   8.399 -0.4656 -0.0496  0.4963
  120OSM   H18S12674   0.645   1.608   8.457 -0.0755  1.6720 -0.7655
  120OSM   H18T12675   0.814   1.566   8.452 -0.7430  2.9874  0.0869
  120OSM   H18U12676   0.698   1.438   8.388  2.9686 -0.7670  0.2596
  120OSM    C1F12677   0.790   2.260   6.844 -0.4954  0.1612  0.7573
  120OSM     OF12678   0.710   2.336   6.789 -0.7727  0.0678 -0.6310
  120OSM    C2F12679   0.858   2.295   6.975  0.1734 -0.2479 -0.3362
  120OSM    H2F12680   0.965   2.264   6.974  0.2415 -0.0644  0.3192
  120OSM    H2G12681   0.814   2.251   7.067 -0.2016  2.4137  0.8615
  120OSM    C3F12682   0.859   2.444   7.006  0.0695 -0.8569  0.3824
  120OSM    H3F12683   0.768   2.496   6.969  0.7364 -0.9889 -1.5301
  120OSM    H3G12684   0.945   2.482   6.947  0.2217  2.0796  2.3032
  120OSM    C4F12685   0.902   2.483   7.148 -0.4664  0.5283 -0.1835
  120OSM    H4F12686   0.947   2.585   7.142 -0.3277  0.5595  1.1427
  120OSM    H4G12687   0.982   2.412   7.178 -1.2004  0.2320  1.1188
  120OSM    C5F12688   0.788   2.484   7.240  0.2118 -0.2498  0.1359
  120OSM    H5F12689   0.754   2.386   7.282  1.3838  0.6287  3.4173
  120OSM    H5G12690   0.707   2.529   7.179 -0.4697 -1.5589  0.0376
  120OSM    C6F12691   0.808   2.574   7.363 -0.2607  0.1518  0.7883
  120OSM    H6F12692   0.711   2.601   7.410 -0.6391 -2.1775  1.5019
  120OSM    H6G12693   0.853   2.670   7.331  0.1377 -0.5012 -0.6892
  120OSM    C7F12694   0.912   2.505   7.464 -0.3492  0.0896 -0.1395
  120OSM    H7F12695   1.017   2.491   7.430  0.5245 -0.4349  2.5537
  120OSM    H7G12696   0.872   2.401   7.467 -0.5345  0.0813 -1.9301
  120OSM    C8F12697   0.929   2.578   7.593  0.2261  0.1572 -0.0234
  120OSM    H8F12698   0.934   2.684   7.562 -0.6335 -0.1465 -1.2885
  120OSM    H8G12699   1.023   2.533   7.632 -0.2987 -0.1058  0.9737
  120OSM    C9F12700   0.824   2.549   7.696  0.3141  0.0914  0.7760
  120OSM    H9F12701   0.724   2.522   7.659  0.5626 -0.2139  0.3146
  120OSM   C10F12702   0.853   2.528   7.828  0.3182  0.2562  0.4983
  120OSM   H10F12703   0.769   2.507   7.895 -1.7348 -0.8322 -2.2401
  120OSM   C11F12704   0.984   2.536   7.902 -0.0635  0.7437  0.9231
  120OSM   H11F12705   1.066   2.590   7.849  0.2551 -0.2949  0.3293
  120OSM   H11G12706   1.011   2.428   7.912 -1.7060  0.0074 -1.6484
  120OSM   C12F12707   0.993   2.600   8.039  0.8845  0.6211  0.7230
  120OSM   H12F12708   0.980   2.709   8.023  1.8552  0.4467 -1.5860
  120OSM   H12G12709   1.097   2.591   8.076  1.3561 -0.7644 -0.8156
  120OSM   C13F12710   0.885   2.549   8.135 -0.0299 -0.1338 -0.0790
  120OSM   H13F12711   0.890   2.438   8.143 -0.2848 -0.1412 -0.0239
  120OSM   H13G12712   0.785   2.570   8.092 -0.0959  1.3773  0.7815
  120OSM   C14F12713   0.891   2.620   8.271  0.3616  0.1022  0.2195
  120OSM   H14F12714   0.878   2.729   8.257 -1.0200  0.0522  0.9548
  120OSM   H14G12715   0.985   2.598   8.326 -0.1000 -0.8696  0.6537
  120OSM   C15F12716   0.769   2.581   8.354  0.6666 -0.1474 -0.5090
  120OSM   H15F12717   0.777   2.472   8.371  2.5487 -0.4458 -2.8020
  120OSM   H15G12718   0.678   2.618   8.302 -1.9414 -0.3645  3.3802
  120OSM   C16F12719   0.762   2.651   8.497  0.4897 -0.1072  0.4641
  120OSM   H16F12720   0.661   2.684   8.530  1.6099  1.2952  2.8335
  120OSM   H16G12721   0.806   2.754   8.492 -1.0673  0.5369 -0.9154
  120OSM   C17F12722   0.832   2.562   8.607 -0.2452 -0.2576  0.3558
  120OSM   H17F12723   0.926   2.534   8.555 -0.7094 -2.2314  0.4802
  120OSM   H17G12724   0.780   2.465   8.626  0.7155 -0.7147  0.7007
  120OSM   C18F12725   0.856   2.643   8.736 -0.1921 -0.0854 -0.7830
  120OSM   H18F12726   0.765   2.634   8.799  0.5663  0.2139  0.3873
  120OSM   H18G12727   0.887   2.747   8.714  0.4564  0.0147  0.5468
  120OSM   H18H12728   0.940   2.592   8.787  0.3605  0.6540 -0.9325
  121OSM      N12729   2.335   4.256   6.006 -0.1707 -0.5581  0.1146
  121OSM    C1512730   2.393   4.140   6.070  0.3370 -0.4487  0.3426
  121OSM   H15A12731   2.310   4.092   6.121 -2.3795  0.3279 -2.9864
  121OSM   H15B12732   2.467   4.170   6.142  0.4999  0.2837 -0.1278
  121OSM   H15C12733   2.443   4.071   6.004 -0.9788 -0.0877 -1.1083
  121OSM    C1412734   2.231   4.217   5.912  0.3824  0.9323  0.3385
  121OSM   H14A12735   2.273   4.167   5.825 -0.7109  0.2389  0.1853
  121OSM   H14B12736   2.178   4.300   5.868  1.5165  0.9358 -1.1045
  121OSM   H14C12737   2.155   4.156   5.958 -0.1587  0.0961 -1.5489
  121OSM    C1312738   2.260   4.340   6.110  0.1367 -0.1580 -0.2530
  121OSM   H13A12739   2.177   4.389   6.062  1.2597  1.6021 -0.4667
  121OSM   H13B12740   2.328   4.412   6.152  0.7552 -2.0901  2.3019
  121OSM   H13C12741   2.217   4.276   6.186  0.1011 -2.2117 -1.8883
  121OSM    C1212742   2.443   4.333   5.933  0.2853 -0.4170 -0.3737
  121OSM   H12A12743   2.402   4.422   5.886 -1.1418 -0.8358  0.0330
  121OSM   H12B12744   2.479   4.265   5.857  0.3945  0.3272 -1.0046
  121OSM    C1112745   2.562   4.376   6.020 -0.6365 -0.4563 -0.9093
  121OSM   H11A12746   2.647   4.398   5.952 -0.7822  0.6619 -0.7540
  121OSM   H11B12747   2.594   4.289   6.080 -0.4600 -0.4686 -1.0196
  121OSM      P12748   2.512   4.634   6.043  0.1393  0.0382 -0.0934
  121OSM    O1312749   2.645   4.685   6.005  0.1980  0.2924  0.0355
  121OSM    O1412750   2.399   4.637   5.948 -0.9895  0.1612  0.0089
  121OSM    O1112751   2.455   4.725   6.164 -0.0235  0.1766 -1.0949
  121OSM    O1212752   2.518   4.482   6.110  0.2192 -0.3794  0.0229
  121OSM    C1S12753   2.546   4.753   6.272  0.2272  0.2474  0.3438
  121OSM    H1S12754   2.609   4.838   6.238 -0.4249  1.1127  1.2471
  121OSM    H1T12755   2.620   4.673   6.297  0.5190  0.6721  0.8606
  121OSM     NF12756   2.551   4.826   6.494  0.2171  0.3218  0.2578
  121OSM    HNF12757   2.558   4.767   6.575  0.7576 -2.8444 -1.8944
  121OSM    C2S12758   2.464   4.784   6.391 -0.0739  0.5018  0.0171
  121OSM    H2S12759   2.386   4.858   6.361 -2.6954 -2.4674 -1.1721
  121OSM    C3S12760   2.389   4.654   6.435  0.4821  0.5961 -0.0071
  121OSM    H3S12761   2.455   4.577   6.480 -0.6637 -1.1682 -1.2073
  121OSM     O312762   2.317   4.592   6.334 -0.1521  0.5271 -0.1125
  121OSM    HO312763   2.351   4.640   6.258 -0.2716  0.3010 -0.3089
  121OSM    C4S12764   2.293   4.704   6.537 -0.4646 -1.0414  0.4345
  121OSM    H4S12765   2.203   4.755   6.500  1.2310  1.3802 -0.5962
  121OSM    C5S12766   2.315   4.690   6.673  0.2552 -0.5190  0.0887
  121OSM    H5S12767   2.399   4.626   6.705  0.2348 -0.7003 -0.2198
  121OSM    C6S12768   2.228   4.740   6.789  0.1198 -0.5103 -0.3894
  121OSM    H6S12769   2.295   4.759   6.875 -0.0162 -1.0578 -0.1564
  121OSM    H6T12770   2.168   4.656   6.829  0.3260 -0.4574  0.0366
  121OSM    C7S12771   2.130   4.860   6.757  0.1307  0.0332 -0.4540
  121OSM    H7S12772   2.043   4.830   6.694 -0.8298  0.9190  0.4093
  121OSM    H7T12773   2.184   4.932   6.691  2.1402  0.5853  1.6617
  121OSM    C8S12774   2.076   4.929   6.882 -0.1517  0.8347  0.3459
  121OSM    H8S12775   2.047   4.850   6.954  1.2051 -0.4299 -0.4318
  121OSM    H8T12776   1.980   4.983   6.866 -1.7021 -0.6340  3.7531
  121OSM    C9S12777   2.178   5.030   6.939 -0.1911  0.0514 -0.6111
  121OSM    H9S12778   2.201   5.103   6.858  1.7924  0.5528  0.3641
  121OSM    H9T12779   2.280   4.992   6.958 -0.4040  0.4131  1.4530
  121OSM   C10S12780   2.123   5.097   7.069 -0.7321  0.5726  0.4753
  121OSM   H10S12781   2.014   5.088   7.051 -0.5989 -1.8175  0.5144
  121OSM   H10T12782   2.153   5.204   7.065 -2.5458  1.1061  0.4710
  121OSM   C11S12783   2.164   5.028   7.199  0.4061  0.2220  0.0140
  121OSM   H11S12784   2.274   5.037   7.213  0.4501  0.4233 -0.4361
  121OSM   H11T12785   2.140   4.920   7.209  1.8862 -0.0163  1.2946
  121OSM   C12S12786   2.092   5.098   7.314 -0.0476  0.3380  0.3195
  121OSM   H12S12787   1.990   5.054   7.321  1.1562 -3.1972 -1.8124
  121OSM   H12T12788   2.064   5.203   7.292 -3.1194 -0.6461 -1.0535
  121OSM   C13S12789   2.167   5.088   7.447  0.2685  0.5865  0.2462
  121OSM   H13S12790   2.265   5.138   7.457 -0.3055  2.6451 -2.7953
  121OSM   H13T12791   2.179   4.978   7.457 -0.1839  0.5388  0.2968
  121OSM   C14S12792   2.070   5.109   7.568 -1.0422  0.4350 -0.2084
  121OSM   H14S12793   1.995   5.031   7.543 -0.3462  0.1141 -1.3529
  121OSM   H14T12794   2.025   5.210   7.571 -1.6014  0.2013 -0.7282
  121OSM   C15S12795   2.128   5.079   7.705  0.2504 -0.0870  0.2324
  121OSM   H15S12796   2.221   5.137   7.724  0.1734  0.3541 -0.6930
  121OSM   H15T12797   2.171   4.978   7.726 -0.3814 -0.2065  1.0064
  121OSM   C16S12798   2.034   5.120   7.821 -0.1064 -0.1945  0.2694
  121OSM   H16S12799   1.932   5.090   7.789  0.0529  0.3181 -0.7641
  121OSM   H16T12800   2.024   5.231   7.821 -1.9086 -0.3253  0.9775
  121OSM   C17S12801   2.063   5.050   7.954 -0.1317  0.1810  0.7539
  121OSM   H17S12802   2.161   5.082   7.995  0.7612  1.8836 -2.3828
  121OSM   H17T12803   2.072   4.941   7.936 -0.7224 -0.3343  3.1340
  121OSM   C18S12804   1.945   5.068   8.054  0.2000  0.0284 -0.4078
  121OSM   H18S12805   1.851   5.032   8.006 -0.0445  0.0344  0.0568
  121OSM   H18T12806   1.950   5.172   8.093  0.5338 -0.4603  0.9106
  121OSM   H18U12807   1.972   5.001   8.138 -0.1891 -0.3691 -0.5955
  121OSM    C1F12808   2.607   4.948   6.486  0.7045  0.6610 -0.1045
  121OSM     OF12809   2.563   5.027   6.400  0.8272  0.1244 -0.2917
  121OSM    C2F12810   2.722   4.981   6.570 -0.4930 -0.2465 -0.6397
  121OSM    H2F12811   2.813   4.976   6.507 -1.1397 -1.0752 -1.5340
  121OSM    H2G12812   2.735   4.900   6.646  1.3785  0.4214 -0.1778
  121OSM    C3F12813   2.712   5.112   6.657 -0.0947  0.3185 -0.5121
  121OSM    H3F12814   2.690   5.199   6.591 -1.6709 -0.6432 -1.3210
  121OSM    H3G12815   2.810   5.130   6.707  0.1281  0.8913 -1.1301
  121OSM    C4F12816   2.601   5.104   6.771  0.0956 -0.0474  0.3277
  121OSM    H4F12817   2.600   5.005   6.820 -0.7083 -1.2336 -1.9664
  121OSM    H4G12818   2.504   5.115   6.719  0.9364 -2.1302 -1.8410
  121OSM    C5F12819   2.627   5.213   6.873 -0.4407  0.8247  0.1929
  121OSM    H5F12820   2.649   5.311   6.824 -0.1071 -0.3510 -2.1577
  121OSM    H5G12821   2.705   5.189   6.949 -1.6417 -1.1502  0.8659
  121OSM    C6F12822   2.500   5.232   6.952  0.1570  0.5166 -0.2000
  121OSM    H6F12823   2.479   5.138   7.007 -2.4515  0.8582 -0.4921
  121OSM    H6G12824   2.418   5.249   6.879  0.9278 -1.6160 -1.6447
  121OSM    C7F12825   2.518   5.335   7.061 -0.1227 -0.5099  0.6849
  121OSM    H7F12826   2.555   5.421   7.001  0.3042 -1.5190 -0.5524
  121OSM    H7G12827   2.589   5.299   7.139 -2.1188 -2.6444  1.6328
  121OSM    C8F12828   2.387   5.371   7.132  0.2843 -0.4629  0.3751
  121OSM    H8F12829   2.354   5.285   7.195  0.3974 -1.7012 -1.2109
  121OSM    H8G12830   2.315   5.399   7.052  0.0572 -1.9037  0.0420
  121OSM    C9F12831   2.417   5.498   7.209  0.2304 -0.5345 -0.0409
  121OSM    H9F12832   2.433   5.587   7.145  0.6861 -1.8701 -1.8690
  121OSM   C10F12833   2.440   5.507   7.341 -0.7978 -0.5177 -0.6111
  121OSM   H10F12834   2.484   5.599   7.380 -1.9490 -0.1508 -0.1262
  121OSM   C11F12835   2.433   5.395   7.442  0.5717 -0.2516  0.1585
  121OSM   H11F12836   2.529   5.392   7.498  0.6921 -0.3953 -0.0488
  121OSM   H11G12837   2.430   5.294   7.395 -0.0188 -0.1631  0.0089
  121OSM   C12F12838   2.312   5.421   7.538  0.3268 -0.1188  0.5759
  121OSM   H12F12839   2.312   5.333   7.605 -1.3704 -1.4189 -1.0290
  121OSM   H12G12840   2.210   5.416   7.496 -0.6611  0.4458  2.7835
  121OSM   C13F12841   2.308   5.567   7.599  0.0765  0.4239 -0.1408
  121OSM   H13F12842   2.270   5.642   7.527 -0.6817  0.4810  0.3119
  121OSM   H13G12843   2.411   5.601   7.622  0.0581  1.2978 -1.2599
  121OSM   C14F12844   2.227   5.582   7.727 -0.0337  0.4486  0.1005
  121OSM   H14F12845   2.119   5.562   7.716 -0.2930  1.0226  1.4185
  121OSM   H14G12846   2.239   5.692   7.737  3.0248  0.3913 -1.5852
  121OSM   C15F12847   2.289   5.513   7.844 -0.2534  0.0384  0.2926
  121OSM   H15F12848   2.394   5.548   7.854  0.0864 -1.0490  0.6390
  121OSM   H15G12849   2.297   5.404   7.825 -0.6644 -0.4129  2.4552
  121OSM   C16F12850   2.211   5.521   7.976 -0.0705  0.6803  0.1066
  121OSM   H16F12851   2.110   5.477   7.960  1.1693 -2.9782  1.3862
  121OSM   H16G12852   2.193   5.627   8.002 -1.4186  0.3101  0.7656
  121OSM   C17F12853   2.278   5.457   8.104  0.3339 -0.4343 -0.5131
  121OSM   H17F12854   2.363   5.509   8.152  1.3189 -4.0592  2.0450
  121OSM   H17G12855   2.306   5.350   8.096 -1.0392 -0.7290 -2.1526
  121OSM   C18F12856   2.168   5.459   8.211  0.0553 -0.7427  0.2647
  121OSM   H18F12857   2.208   5.408   8.301  2.8863  2.5830  1.0835
  121OSM   H18G12858   2.080   5.404   8.170 -0.1691 -0.3463  0.2083
  121OSM   H18H12859   2.138   5.562   8.237  2.8445  0.1527  0.2549
  122OSM      N12860   6.642   6.424   5.766  0.0040 -0.0162 -0.6712
  122OSM    C1512861   6.635   6.471   5.628  0.2246  0.2108  0.2502
  122OSM   H15A12862   6.602   6.394   5.560 -0.8872  1.4319 -0.6440
  122OSM   H15B12863   6.721   6.521   5.586  1.1575 -0.8021  0.9048
  122OSM   H15C12864   6.552   6.540   5.623 -2.4909 -2.7829  0.6233
  122OSM    C1412865   6.509   6.358   5.811 -0.1073 -0.0342 -0.3832
  122OSM   H14A12866   6.430   6.426   5.784 -0.8353 -1.2911 -1.5126
  122OSM   H14B12867   6.502   6.347   5.919  4.0076  1.8568  0.2676
  122OSM   H14C12868   6.487   6.267   5.758 -1.0928 -1.2709  1.9766
  122OSM    C1312869   6.743   6.318   5.775 -0.6171 -0.1177  0.4158
  122OSM   H13A12870   6.750   6.276   5.874  1.4732  0.1951  0.4425
  122OSM   H13B12871   6.843   6.354   5.758 -0.9952  0.5718 -0.3857
  122OSM   H13C12872   6.724   6.244   5.698 -1.5088  1.4926 -0.9771
  122OSM    C1212873   6.685   6.550   5.838  0.5524 -0.4004 -0.1497
  122OSM   H12A12874   6.654   6.643   5.793  2.5125  1.4070  1.9287
  122OSM   H12B12875   6.791   6.562   5.819  0.3615 -1.0793 -1.7687
  122OSM    C1112876   6.649   6.561   5.991 -0.3442 -0.0382  0.7923
  122OSM   H11A12877   6.705   6.647   6.034  0.1943 -0.4451  0.9188
  122OSM   H11B12878   6.701   6.474   6.037  1.9529  0.2919 -0.9553
  122OSM      P12879   6.426   6.693   5.972  0.2233  0.0132  0.4599
  122OSM    O1312880   6.485   6.754   5.848  0.0208  0.0353  0.1916
  122OSM    O1412881   6.286   6.657   5.947 -0.2551  0.5800 -0.3797
  122OSM    O1112882   6.452   6.793   6.092 -0.5591 -0.0092 -0.0379
  122OSM    O1212883   6.504   6.565   6.016  0.5469  0.6753  0.7230
  122OSM    C1S12884   6.363   6.796   6.205 -0.5075  0.1427 -0.9125
  122OSM    H1S12885   6.287   6.715   6.203  0.6467 -1.0281  0.2503
  122OSM    H1T12886   6.303   6.889   6.202 -0.2678  0.3442  0.0219
  122OSM     NF12887   6.335   6.759   6.454 -0.0229  0.2623 -1.0334
  122OSM    HNF12888   6.316   6.825   6.526 -0.7310 -1.9410  0.9206
  122OSM    C2S12889   6.433   6.774   6.339 -0.1605  0.4574  0.1240
  122OSM    H2S12890   6.488   6.679   6.324  2.2932  2.1612 -2.4800
  122OSM    C3S12891   6.534   6.887   6.370  0.6361  0.1886 -0.4295
  122OSM    H3S12892   6.479   6.983   6.382 -0.3394 -0.6024  2.0988
  122OSM     O312893   6.607   6.922   6.251 -0.0103 -0.1654 -0.3709
  122OSM    HO312894   6.568   6.864   6.185 -0.2550 -1.3165  0.7496
  122OSM    C4S12895   6.615   6.872   6.499  0.1137 -0.0814 -0.4509
  122OSM    H4S12896   6.569   6.911   6.591  0.3087 -0.9287  0.0166
  122OSM    C5S12897   6.736   6.808   6.506  0.0635  1.1354  0.2164
  122OSM    H5S12898   6.771   6.764   6.411 -1.6651  0.0111  0.0550
  122OSM    C6S12899   6.832   6.777   6.625 -0.2439 -0.1618 -0.0470
  122OSM    H6S12900   6.937   6.791   6.589 -0.4827  1.0926 -0.3158
  122OSM    H6T12901   6.828   6.679   6.677  0.8955 -0.2118 -0.0174
  122OSM    C7S12902   6.806   6.887   6.735  0.3966  0.3123 -0.4141
  122OSM    H7S12903   6.705   6.871   6.777  1.8039 -2.1181  2.4360
  122OSM    H7T12904   6.811   6.985   6.684  1.5851  0.1606 -0.6335
  122OSM    C8S12905   6.910   6.877   6.847 -0.4689  0.4809  0.4536
  122OSM    H8S12906   7.007   6.906   6.800 -0.9648 -0.8335 -1.5083
  122OSM    H8T12907   6.911   6.768   6.868  0.6706  0.4041  0.0573
  122OSM    C9S12908   6.881   6.951   6.975  0.2001  0.7122  0.5765
  122OSM    H9S12909   6.778   6.925   7.007  0.0237  0.6252 -0.0609
  122OSM    H9T12910   6.897   7.060   6.962  1.4419  0.7092  1.8352
  122OSM   C10S12911   6.979   6.908   7.082 -0.2198 -0.2748 -0.2283
  122OSM   H10S12912   7.081   6.930   7.043  0.0786 -0.9689  0.1375
  122OSM   H10T12913   6.976   6.799   7.102  4.4014 -0.4362  0.7121
  122OSM   C11S12914   6.962   6.975   7.219  0.0485 -0.6659 -0.0571
  122OSM   H11S12915   6.975   7.085   7.208 -0.6259 -0.6928 -1.2799
  122OSM   H11T12916   7.046   6.941   7.283  0.7986  0.1400 -0.5882
  122OSM   C12S12917   6.824   6.963   7.285 -0.1488  0.8310 -0.3075
  122OSM   H12S12918   6.795   6.858   7.310  0.6388  1.2553  2.8413
  122OSM   H12T12919   6.751   7.003   7.211 -2.3246  0.2808  1.4110
  122OSM   C13S12920   6.819   7.025   7.430  0.5084 -0.8204  0.4597
  122OSM   H13S12921   6.714   7.046   7.460  0.5411 -1.2381  0.8776
  122OSM   H13T12922   6.868   7.125   7.428  1.0811 -1.0299  2.1651
  122OSM   C14S12923   6.886   6.941   7.533  0.1472  0.1185  0.8718
  122OSM   H14S12924   6.996   6.936   7.517 -0.0848  0.2843 -0.9884
  122OSM   H14T12925   6.839   6.841   7.532  1.3214 -0.4472  0.1770
  122OSM   C15S12926   6.866   7.000   7.676  0.4414  0.1253  0.7176
  122OSM   H15S12927   6.763   7.000   7.718  0.6269  0.3432  1.1826
  122OSM   H15T12928   6.891   7.108   7.666 -0.5275  0.2524 -0.6295
  122OSM   C16S12929   6.948   6.914   7.766 -0.4863 -0.2011 -0.0881
  122OSM   H16S12930   7.051   6.913   7.723 -0.3291  1.7307  0.1750
  122OSM   H16T12931   6.911   6.809   7.775 -2.9459  0.6640  0.5882
  122OSM   C17S12932   6.944   6.957   7.914  0.2269 -1.0283  0.6660
  122OSM   H17S12933   6.841   6.974   7.950  0.8367  2.2911  1.2315
  122OSM   H17T12934   6.982   7.061   7.923 -3.4027  0.5048 -0.0628
  122OSM   C18S12935   7.025   6.856   7.997  0.6552 -1.2505 -0.0034
  122OSM   H18S12936   7.128   6.859   7.957 -0.4159  2.6049 -3.1263
  122OSM   H18T12937   6.972   6.759   7.991  1.0068 -1.3914 -1.0370
  122OSM   H18U12938   7.028   6.904   8.098  1.1086  0.6172 -0.8536
  122OSM    C1F12939   6.262   6.654   6.476  1.0957  0.3236  0.6981
  122OSM     OF12940   6.268   6.562   6.396 -0.1033 -0.1504  0.0248
  122OSM    C2F12941   6.183   6.655   6.601 -0.1338 -0.2904 -0.2640
  122OSM    H2F12942   6.113   6.740   6.612  0.4325 -0.1544  4.2378
  122OSM    H2G12943   6.255   6.674   6.684  0.5419 -2.6286 -0.2238
  122OSM    C3F12944   6.124   6.516   6.631  0.0966  0.0750 -0.7333
  122OSM    H3F12945   6.197   6.437   6.607 -0.1060  0.7386 -3.9177
  122OSM    H3G12946   6.046   6.490   6.557 -2.1176  0.0670  1.4658
  122OSM    C4F12947   6.062   6.505   6.771  0.6351  0.1445 -0.5241
  122OSM    H4F12948   6.033   6.397   6.771  0.0681  0.2864 -1.6005
  122OSM    H4G12949   5.970   6.566   6.768  0.0099 -0.7690 -0.3526
  122OSM    C5F12950   6.157   6.533   6.886 -0.0421  0.3981 -0.1009
  122OSM    H5F12951   6.178   6.639   6.911 -1.0992  0.5821  0.0448
  122OSM    H5G12952   6.257   6.487   6.871  1.5894  2.0531  4.1034
  122OSM    C6F12953   6.109   6.483   7.029  0.2085 -0.1830  0.1855
  122OSM    H6F12954   6.085   6.375   7.022 -1.5756 -0.0359  2.6466
  122OSM    H6G12955   6.008   6.523   7.051  0.8129  1.0747  0.7568
  122OSM    C7F12956   6.193   6.530   7.140  0.0485 -0.6962 -0.3225
  122OSM    H7F12957   6.243   6.624   7.108  0.1716 -0.4831  0.4866
  122OSM    H7G12958   6.265   6.446   7.149  0.5783 -0.0141  2.9070
  122OSM    C8F12959   6.116   6.537   7.272  0.2141 -0.2446 -0.0764
  122OSM    H8F12960   6.040   6.456   7.282 -0.0768  0.2712  2.9065
  122OSM    H8G12961   6.048   6.625   7.271 -1.7256 -1.6444 -1.8861
  122OSM    C9F12962   6.198   6.543   7.390 -1.0522 -0.3665 -0.5602
  122OSM    H9F12963   6.281   6.615   7.389 -0.5286 -0.9019  0.9866
  122OSM   C10F12964   6.204   6.455   7.492 -0.0631  0.9942  1.1922
  122OSM   H10F12965   6.287   6.473   7.562  2.4591 -0.4033 -1.2589
  122OSM   C11F12966   6.121   6.330   7.525  0.1723 -0.0534  0.8824
  122OSM   H11F12967   6.172   6.240   7.484  1.8808  2.7233 -3.8543
  122OSM   H11G12968   6.024   6.340   7.473  0.5363 -0.8938 -0.0048
  122OSM   C12F12969   6.089   6.314   7.672 -0.0350  0.2763 -0.6410
  122OSM   H12F12970   6.013   6.236   7.694 -1.4859  1.7833 -0.0424
  122OSM   H12G12971   6.034   6.407   7.698  0.6958  0.4648  0.2480
  122OSM   C13F12972   6.204   6.295   7.769  0.4879  0.2325 -0.5186
  122OSM   H13F12973   6.260   6.388   7.790 -1.1430  1.2578 -0.5250
  122OSM   H13G12974   6.279   6.241   7.708  0.0256 -2.7334  1.3515
  122OSM   C14F12975   6.172   6.225   7.905  0.2797 -0.5818 -0.6523
  122OSM   H14F12976   6.265   6.194   7.957  1.1740 -0.7215 -2.2786
  122OSM   H14G12977   6.118   6.131   7.877  1.4609 -1.9873  1.5363
  122OSM   C15F12978   6.075   6.309   7.988  0.2764  0.1414  0.2987
  122OSM   H15F12979   5.973   6.321   7.947  0.2826  0.3189  0.3368
  122OSM   H15G12980   6.117   6.410   8.003  0.9078  0.0782 -0.8695
  122OSM   C16F12981   6.056   6.250   8.134 -0.0291  0.0904  0.2406
  122OSM   H16F12982   6.152   6.214   8.178  0.1338 -0.7987 -0.8002
  122OSM   H16G12983   5.996   6.158   8.125 -0.3300  0.1254  1.5996
  122OSM   C17F12984   5.986   6.355   8.223 -0.3224  0.5512 -0.7299
  122OSM   H17F12985   5.927   6.410   8.147 -0.7047  0.4032 -0.5385
  122OSM   H17G12986   6.055   6.429   8.269  0.2665 -0.9132  0.8520
  122OSM   C18F12987   5.901   6.298   8.338 -0.6367  0.1974  0.0303
  122OSM   H18F12988   5.861   6.389   8.388  3.2864  2.5115 -0.5660
  122OSM   H18G12989   5.953   6.232   8.410 -0.3622  2.7173  2.3076
  122OSM   H18H12990   5.823   6.249   8.276 -0.1991 -0.2019 -0.2158
  123OSM      N12991   6.440   2.178   6.229  0.1980 -0.0921 -0.4174
  123OSM    C1512992   6.446   2.039   6.289  0.7093 -0.2408  0.1734
  123OSM   H15A12993   6.463   1.960   6.217 -2.6853 -1.7384  0.8282
  123OSM   H15B12994   6.351   2.017   6.334  0.9561 -1.2691  0.2286
  123OSM   H15C12995   6.520   2.025   6.366  0.5596  1.4299  0.6627
  123OSM    C1412996   6.574   2.197   6.159  0.0258  0.4646  0.0295
  123OSM   H14A12997   6.580   2.130   6.074 -1.4907  0.1438  0.1419
  123OSM   H14B12998   6.648   2.166   6.231 -0.1542 -0.0531 -0.0032
  123OSM   H14C12999   6.601   2.297   6.129  2.4375 -0.0356  0.2992
  123OSM    C1313000   6.331   2.183   6.126 -0.0791  0.3059 -0.1263
  123OSM   H13A13001   6.343   2.098   6.061  0.7938 -0.1769  0.6331
  123OSM   H13B13002   6.331   2.268   6.059  0.3047 -0.8294 -1.6284
  123OSM   H13C13003   6.231   2.187   6.167 -1.7717  0.2162 -3.8249
  123OSM    C1213004   6.428   2.282   6.332 -0.3903  0.4448 -0.5291
  123OSM   H12A13005   6.339   2.263   6.391 -0.8717 -0.4154 -1.5062
  123OSM   H12B13006   6.424   2.378   6.284  0.4680  0.6226 -0.2699
  123OSM    C1113007   6.542   2.283   6.450 -0.6788  0.5338 -0.1937
  123OSM   H11A13008   6.573   2.184   6.491  2.4089  1.1237 -0.8219
  123OSM   H11B13009   6.496   2.338   6.534 -1.9837 -1.8677  0.7750
  123OSM      P13010   6.815   2.311   6.442  0.1771 -0.3183 -0.0685
  123OSM    O1313011   6.857   2.189   6.373 -0.5021 -0.3828  0.3520
  123OSM    O1413012   6.897   2.430   6.427 -0.3925 -0.3927 -0.5616
  123OSM    O1113013   6.795   2.277   6.597 -0.0987  0.2815 -0.3712
  123OSM    O1213014   6.661   2.341   6.398 -0.0964 -0.3992 -0.0834
  123OSM    C1S13015   6.882   2.176   6.658  0.6743  0.4415  0.5758
  123OSM    H1S13016   6.989   2.197   6.634  0.8749 -0.4527  0.6444
  123OSM    H1T13017   6.859   2.071   6.629 -0.3291  0.5617  0.9032
  123OSM     NF13018   6.981   2.098   6.861 -0.9347 -0.4717 -0.7822
  123OSM    HNF13019   6.947   2.008   6.890  1.4795 -0.9649  0.8135
  123OSM    C2S13020   6.870   2.176   6.814 -0.1594 -0.1658  0.8022
  123OSM    H2S13021   6.895   2.280   6.847  2.1014 -0.8884  1.6046
  123OSM    C3S13022   6.730   2.135   6.856 -0.1048 -0.3556 -0.0089
  123OSM    H3S13023   6.731   2.027   6.829  1.0652 -0.4546  0.3622
  123OSM     O313024   6.623   2.204   6.786  0.4351 -0.1834 -0.0150
  123OSM    HO313025   6.667   2.239   6.708 -1.7305  0.7947 -0.8680
  123OSM    C4S13026   6.708   2.144   7.005 -0.4365  0.2737 -0.2614
  123OSM    H4S13027   6.766   2.228   7.047  0.4664 -0.6397  0.3666
  123OSM    C5S13028   6.643   2.069   7.093 -0.1888  0.3300  0.0655
  123OSM    H5S13029   6.594   1.974   7.066 -0.8291  1.0263 -1.3256
  123OSM    C6S13030   6.632   2.097   7.242  0.0933  0.5048 -0.7551
  123OSM    H6S13031   6.524   2.097   7.267 -0.0647 -0.4015 -1.3705
  123OSM    H6T13032   6.667   2.200   7.266  0.1527  0.9379 -2.5422
  123OSM    C7S13033   6.710   1.987   7.333 -0.3388 -0.6106  0.1486
  123OSM    H7S13034   6.821   1.995   7.323 -0.2647 -1.6374  0.1277
  123OSM    H7T13035   6.672   1.891   7.293 -2.5350  0.5147 -0.6902
  123OSM    C8S13036   6.669   1.995   7.483 -0.5517  0.6031 -0.2607
  123OSM    H8S13037   6.718   2.086   7.521  3.2772 -1.1383 -0.5907
  123OSM    H8T13038   6.713   1.910   7.539 -1.4763 -0.1290 -0.6115
  123OSM    C9S13039   6.520   1.996   7.502  0.8018 -0.2052  0.1590
  123OSM    H9S13040   6.467   1.931   7.430  1.3703 -0.3671 -0.1171
  123OSM    H9T13041   6.486   2.097   7.472  0.9127 -0.1095  0.3512
  123OSM   C10S13042   6.472   1.947   7.646  0.0493 -0.4585  0.9940
  123OSM   H10S13043   6.534   1.860   7.675 -1.9733 -2.1498  0.4897
  123OSM   H10T13044   6.367   1.910   7.639 -0.4801  1.2604 -4.0039
  123OSM   C11S13045   6.472   2.052   7.759 -0.7915  0.2430  0.1170
  123OSM   H11S13046   6.406   2.137   7.733 -0.6266  0.0218 -1.0456
  123OSM   H11T13047   6.573   2.097   7.771 -0.5362 -0.2237 -0.2409
  123OSM   C12S13048   6.437   1.985   7.899  0.6624  0.5903  0.8954
  123OSM   H12S13049   6.520   1.914   7.922  0.3619 -0.2688 -0.5690
  123OSM   H12T13050   6.341   1.932   7.884 -0.3281  2.7989 -1.1284
  123OSM   C13S13051   6.399   2.095   8.005  0.2268 -0.3405  0.1197
  123OSM   H13S13052   6.308   2.140   7.960 -0.6992  0.2665  2.4551
  123OSM   H13T13053   6.476   2.175   8.016  2.4546 -2.2091 -1.0265
  123OSM   C14S13054   6.356   2.022   8.138  0.6936 -0.0226  0.6571
  123OSM   H14S13055   6.442   1.958   8.166  2.0037  0.8762 -1.0692
  123OSM   H14T13056   6.267   1.955   8.124  0.1796  0.7201  0.2836
  123OSM   C15S13057   6.320   2.118   8.246  0.1216  0.0151 -0.3646
  123OSM   H15S13058   6.226   2.173   8.224  0.3822  0.1019 -1.2888
  123OSM   H15T13059   6.394   2.201   8.241 -0.7898  0.8827  0.0630
  123OSM   C16S13060   6.318   2.043   8.379 -0.1126  0.2466 -0.0277
  123OSM   H16S13061   6.395   1.964   8.372  2.0168  2.1923  0.3165
  123OSM   H16T13062   6.216   2.000   8.391  0.3685 -1.0321 -0.4509
  123OSM   C17S13063   6.355   2.141   8.493 -0.2949  0.2129  0.3630
  123OSM   H17S13064   6.296   2.232   8.469 -1.2726 -0.8124 -1.3053
  123OSM   H17T13065   6.464   2.163   8.485  0.4472 -2.5129  1.6771
  123OSM   C18S13066   6.321   2.104   8.635  0.2509 -0.1052 -0.6413
  123OSM   H18S13067   6.354   1.999   8.652 -2.6195 -1.3208 -1.8886
  123OSM   H18T13068   6.210   2.099   8.647  0.1107 -0.9500 -2.0132
  123OSM   H18U13069   6.357   2.166   8.720 -0.3442  2.4434 -2.1255
  123OSM    C1F13070   7.109   2.135   6.860 -0.2203  0.7683 -0.4353
  123OSM     OF13071   7.142   2.252   6.841 -0.3597  0.2497  0.0979
  123OSM    C2F13072   7.208   2.032   6.894 -0.4586  0.4206 -0.4799
  123OSM    H2F13073   7.263   2.009   6.801  0.8276 -0.4220  0.4598
  123OSM    H2G13074   7.155   1.940   6.927  0.1421  0.2387 -0.0042
  123OSM    C3F13075   7.327   2.075   6.981  0.5744  0.1690  0.6726
  123OSM    H3F13076   7.375   2.172   6.955 -0.8972  0.5879 -0.6691
  123OSM    H3G13077   7.407   2.001   6.960  0.6896  0.9983 -2.3582
  123OSM    C4F13078   7.296   2.078   7.135 -0.4573 -0.3981 -0.4648
  123OSM    H4F13079   7.222   2.160   7.139  2.0056  1.9154  2.3856
  123OSM    H4G13080   7.394   2.100   7.184  0.4852 -1.7609 -1.6292
  123OSM    C5F13081   7.236   1.943   7.181  0.8209 -0.4125 -0.3732
  123OSM    H5F13082   7.317   1.867   7.190  0.7795 -0.4420 -0.2486
  123OSM    H5G13083   7.155   1.910   7.112  1.3142  1.2956 -1.8374
  123OSM    C6F13084   7.170   1.976   7.320 -0.1096  1.2245 -0.1618
  123OSM    H6F13085   7.068   2.018   7.309  0.3346  2.5880  0.7703
  123OSM    H6G13086   7.225   2.050   7.381  2.5149 -1.2780  0.7319
  123OSM    C7F13087   7.156   1.837   7.405 -0.5915  0.5961  0.5576
  123OSM    H7F13088   7.264   1.810   7.414  0.0561  1.3918 -3.0340
  123OSM    H7G13089   7.113   1.766   7.331 -2.2103  1.2895  0.7923
  123OSM    C8F13090   7.083   1.840   7.535 -0.2605  1.4028 -0.5514
  123OSM    H8F13091   7.063   1.741   7.582  0.9556  1.9868  1.3317
  123OSM    H8G13092   6.981   1.876   7.511 -0.5644  1.6862  1.0537
  123OSM    C9F13093   7.166   1.921   7.633 -0.0670  0.7955 -0.6209
  123OSM    H9F13094   7.275   1.916   7.617 -0.1693  0.5997 -1.3087
  123OSM   C10F13095   7.115   1.995   7.734 -0.2497 -0.0424  0.7266
  123OSM   H10F13096   7.190   2.060   7.783 -0.1121  0.8139 -0.5844
  123OSM   C11F13097   6.969   2.003   7.770  0.1899 -0.2729 -0.7119
  123OSM   H11F13098   6.910   1.917   7.733 -1.8026  0.4645  0.6054
  123OSM   H11G13099   6.929   2.097   7.727 -0.4219  0.1160  0.6493
  123OSM   C12F13100   6.954   2.006   7.928  0.3662  0.6250 -0.1997
  123OSM   H12F13101   7.033   2.066   7.978  0.5113  1.2680 -1.1592
  123OSM   H12G13102   6.965   1.900   7.959  1.9967  0.0635 -2.4142
  123OSM   C13F13103   6.816   2.056   7.962  0.6647  0.4254 -0.1891
  123OSM   H13F13104   6.737   2.005   7.903 -0.4104  0.3707  1.2340
  123OSM   H13G13105   6.810   2.164   7.935  4.0449  0.3963 -1.4626
  123OSM   C14F13106   6.780   2.053   8.109  0.6705 -0.0047 -0.2110
  123OSM   H14F13107   6.791   1.949   8.146  0.7234  0.3250  0.7321
  123OSM   H14G13108   6.674   2.078   8.131  0.6733 -1.0663  1.1399
  123OSM   C15F13109   6.867   2.142   8.201 -0.4244 -0.6923  0.2136
  123OSM   H15F13110   6.866   2.247   8.165 -0.5166  0.4404  3.2758
  123OSM   H15G13111   6.973   2.112   8.188  0.6437  2.8889 -0.2616
  123OSM   C16F13112   6.824   2.134   8.348  0.4431  0.7605  0.0443
  123OSM   H16F13113   6.821   2.029   8.385  1.9267  0.6552 -0.0879
  123OSM   H16G13114   6.722   2.177   8.355 -0.4217 -0.8351 -1.6638
  123OSM   C17F13115   6.917   2.201   8.447  0.4167 -0.2926  0.1502
  123OSM   H17F13116   6.929   2.307   8.415  1.0320 -0.5271 -0.4091
  123OSM   H17G13117   7.018   2.157   8.433 -0.1846 -0.9632 -2.6282
  123OSM   C18F13118   6.857   2.168   8.581 -1.5729 -0.1085 -0.5889
  123OSM   H18F13119   6.852   2.061   8.611  0.9367  0.4249  2.1922
  123OSM   H18G13120   6.751   2.199   8.577 -2.1647 -2.0190 -0.9450
  123OSM   H18H13121   6.912   2.222   8.661 -1.5238  1.9796 -1.9458
  124OSM      N13122   1.063   5.196   5.738 -0.0358  0.0849 -0.8621
  124OSM    C1513123   1.001   5.335   5.735  0.6139  0.0086  0.1919
  124OSM   H15A13124   0.902   5.319   5.697  0.7667 -1.1024  0.2100
  124OSM   H15B13125   1.051   5.393   5.659 -2.1203  1.9849 -0.2127
  124OSM   H15C13126   1.020   5.395   5.823  1.0421  1.2059 -0.6846
  124OSM    C1413127   1.075   5.150   5.597 -0.2609 -0.5784  0.0643
  124OSM   H14A13128   0.977   5.149   5.552 -0.5286  0.1091  0.6113
  124OSM   H14B13129   1.113   5.050   5.608  2.1172  0.4535  2.4180
  124OSM   H14C13130   1.145   5.201   5.533 -0.0829 -2.0080 -0.9331
  124OSM    C1313131   1.201   5.203   5.802 -0.0663  0.3946  0.1254
  124OSM   H13A13132   1.235   5.108   5.840 -0.6687  0.2904  0.4325
  124OSM   H13B13133   1.191   5.260   5.893 -0.9124  0.5601 -0.0573
  124OSM   H13C13134   1.276   5.245   5.737 -0.0511 -0.1536 -0.2162
  124OSM    C1213135   0.985   5.104   5.825 -0.3858  0.6889  0.4223
  124OSM   H12A13136   1.031   5.008   5.836 -0.6431  0.3593 -1.1526
  124OSM   H12B13137   0.887   5.091   5.782 -0.8511  0.7617  1.4102
  124OSM    C1113138   0.964   5.153   5.972 -0.0211  0.0504  0.0251
  124OSM   H11A13139   0.900   5.075   6.017  0.6608 -1.0690 -0.8725
  124OSM   H11B13140   0.909   5.249   5.971  0.4459  0.3189 -0.3362
  124OSM      P13141   1.151   5.063   6.146 -0.2143 -0.4235  0.4211
  124OSM    O1313142   1.166   4.939   6.063 -0.1918 -0.2027  0.3221
  124OSM    O1413143   1.266   5.137   6.195 -0.0164 -0.5056 -0.3860
  124OSM    O1113144   1.030   5.055   6.246  0.3711  0.5025 -0.6297
  124OSM    O1213145   1.088   5.165   6.045 -0.2530 -0.2895  0.4779
  124OSM    C1S13146   1.047   4.993   6.372  0.3546  0.0147 -0.1737
  124OSM    H1S13147   1.124   4.913   6.380 -0.2854 -0.5149  0.8332
  124OSM    H1T13148   0.959   4.935   6.406 -1.0239  1.6625 -0.7540
  124OSM     NF13149   1.083   5.049   6.616  0.2481 -0.1285  0.1548
  124OSM    HNF13150   1.011   5.061   6.684 -1.1912  1.9456 -1.5994
  124OSM    C2S13151   1.063   5.107   6.483  0.0400  0.0647  0.6935
  124OSM    H2S13152   1.157   5.162   6.462 -0.4372  0.9122  0.7263
  124OSM    C3S13153   0.952   5.220   6.476 -0.0198  0.4989 -0.2925
  124OSM    H3S13154   0.853   5.174   6.498  0.2477  1.1798  2.8146
  124OSM     O313155   0.942   5.269   6.343 -0.2894  1.0585 -0.0847
  124OSM    HO313156   0.981   5.204   6.285 -0.8626 -0.2270  0.9258
  124OSM    C4S13157   0.958   5.325   6.579 -0.1643  0.0391  0.4534
  124OSM    H4S13158   0.911   5.296   6.674  0.2737 -0.1231  0.6261
  124OSM    C5S13159   1.021   5.447   6.581 -0.5492  0.0341 -0.1249
  124OSM    H5S13160   1.083   5.483   6.498  0.5258  0.9030  1.0121
  124OSM    C6S13161   1.014   5.541   6.695  0.1908 -0.3013  0.0144
  124OSM    H6S13162   0.940   5.622   6.681 -0.4437 -1.1987 -2.1438
  124OSM    H6T13163   1.112   5.589   6.717 -0.3339  0.8605 -0.1492
  124OSM    C7S13164   0.978   5.489   6.837  0.4638 -0.0378 -0.1613
  124OSM    H7S13165   1.034   5.398   6.867 -0.4706 -0.4877  0.2642
  124OSM    H7T13166   0.870   5.479   6.859  0.8941 -1.8121  1.4087
  124OSM    C8S13167   1.013   5.587   6.954  0.2792 -0.5727  0.3039
  124OSM    H8S13168   0.979   5.690   6.931  0.1059 -0.9630 -1.2679
  124OSM    H8T13169   1.124   5.592   6.958  0.3426  0.5968 -1.7693
  124OSM    C9S13170   0.958   5.542   7.088 -0.1611 -0.1625  0.0388
  124OSM    H9S13171   0.977   5.436   7.114  0.4977  0.0772  0.5776
  124OSM    H9T13172   0.847   5.553   7.089 -0.2474 -1.0590  1.2447
  124OSM   C10S13173   1.018   5.619   7.206  0.3342  0.0725  0.4829
  124OSM   H10S13174   1.000   5.725   7.176 -0.0471 -0.1408 -0.0543
  124OSM   H10T13175   1.127   5.595   7.207  0.4545  0.1451 -2.2153
  124OSM   C11S13176   0.957   5.590   7.345  0.6013  0.4419  0.6544
  124OSM   H11S13177   0.971   5.485   7.377 -0.2849  0.4062  0.9550
  124OSM   H11T13178   0.847   5.601   7.337  0.5514 -0.4231  0.0067
  124OSM   C12S13179   1.018   5.675   7.461  0.4660 -0.7276  0.0040
  124OSM   H12S13180   1.010   5.780   7.426  0.1907 -0.7143  0.1067
  124OSM   H12T13181   1.127   5.660   7.476  0.0735 -1.1765  3.0913
  124OSM   C13S13182   0.944   5.659   7.596 -0.0986  0.2029  0.0838
  124OSM   H13S13183   0.931   5.552   7.623 -3.6323  0.6342  0.6444
  124OSM   H13T13184   0.836   5.685   7.594 -0.6138 -1.7660 -0.8865
  124OSM   C14S13185   1.003   5.733   7.717  0.1690  0.1527 -0.2379
  124OSM   H14S13186   1.020   5.839   7.688 -0.8871 -0.0863 -1.7942
  124OSM   H14T13187   1.104   5.700   7.750  0.1810 -0.0995 -0.5245
  124OSM   C15S13188   0.919   5.729   7.848  0.8224  0.2313 -0.1507
  124OSM   H15S13189   0.811   5.723   7.824  0.8142  1.4087 -0.4318
  124OSM   H15T13190   0.947   5.823   7.900 -1.2945 -0.6156  2.8232
  124OSM   C16S13191   0.956   5.611   7.942 -0.1324  0.0417 -0.3423
  124OSM   H16S13192   1.067   5.611   7.947  0.1008 -0.6447 -3.4250
  124OSM   H16T13193   0.927   5.512   7.901 -0.8151  0.9821 -2.2068
  124OSM   C17S13194   0.905   5.628   8.078 -1.0895  0.3638 -0.0383
  124OSM   H17S13195   0.794   5.642   8.081 -0.9595  1.4327  0.2939
  124OSM   H17T13196   0.950   5.719   8.124  0.1548 -0.1821 -0.1427
  124OSM   C18S13197   0.943   5.498   8.160  0.3803 -0.5829 -0.2680
  124OSM   H18S13198   1.053   5.479   8.160  0.2401 -1.4295 -0.0065
  124OSM   H18T13199   0.879   5.410   8.139 -2.5308  0.6103  2.7360
  124OSM   H18U13200   0.920   5.522   8.266  2.8803 -0.3636  0.2980
  124OSM    C1F13201   1.199   4.979   6.645 -0.3202  0.7929 -0.4400
  124OSM     OF13202   1.283   4.959   6.560 -0.3251 -0.6254 -0.3943
  124OSM    C2F13203   1.228   4.932   6.782  0.2752  0.1775 -0.4784
  124OSM    H2F13204   1.334   4.903   6.795 -0.2423 -1.5117  0.3084
  124OSM    H2G13205   1.170   4.838   6.792 -1.0188  0.7371 -2.1323
  124OSM    C3F13206   1.203   5.030   6.899  0.3602  0.9756  0.1056
  124OSM    H3F13207   1.106   5.082   6.886 -1.7136 -2.5883  0.0735
  124OSM    H3G13208   1.295   5.093   6.905  0.7555  0.3185  1.1264
  124OSM    C4F13209   1.184   4.967   7.038 -0.7498 -0.3737  0.1439
  124OSM    H4F13210   1.189   5.039   7.123 -0.8696  0.0033 -0.1633
  124OSM    H4G13211   1.262   4.892   7.063  0.3785  0.2154 -1.3892
  124OSM    C5F13212   1.048   4.902   7.050  0.1598  0.2441  0.0236
  124OSM    H5F13213   1.053   4.822   6.973  0.6300 -0.0891  0.4022
  124OSM    H5G13214   0.970   4.969   7.009 -1.0343 -0.8525  0.4319
  124OSM    C6F13215   1.001   4.858   7.188 -0.5145 -0.0439  0.0503
  124OSM    H6F13216   0.894   4.832   7.188 -0.5977  0.2611  1.3095
  124OSM    H6G13217   0.992   4.947   7.254 -0.8612 -1.2937  1.7453
  124OSM    C7F13218   1.090   4.749   7.260  0.1015  0.6316 -0.0207
  124OSM    H7F13219   1.192   4.792   7.260  1.0313 -1.3253  2.4735
  124OSM    H7G13220   1.082   4.669   7.183  1.4346  0.3152  0.1592
  124OSM    C8F13221   1.033   4.713   7.400  0.1063  0.3867  0.1371
  124OSM    H8F13222   1.096   4.628   7.433 -1.0418 -0.9299 -0.9902
  124OSM    H8G13223   0.930   4.672   7.396  1.1375 -2.5752  1.3495
  124OSM    C9F13224   1.044   4.827   7.498  0.7281 -0.0009 -1.5974
  124OSM    H9F13225   1.094   4.916   7.458 -1.2598  1.7194 -0.4592
  124OSM   C10F13226   1.004   4.831   7.625  0.4983  0.1413 -0.2866
  124OSM   H10F13227   1.031   4.927   7.672  0.5270  0.8040 -1.6052
  124OSM   C11F13228   0.940   4.723   7.712 -0.1121 -0.3432  0.7390
  124OSM   H11F13229   0.971   4.743   7.817  2.5097 -0.6350  0.0995
  124OSM   H11G13230   0.989   4.629   7.681  1.6099  0.5189  0.7243
  124OSM   C12F13231   0.788   4.708   7.694 -0.2933  0.0726  0.0942
  124OSM   H12F13232   0.771   4.665   7.593 -2.1433  3.0006 -0.9665
  124OSM   H12G13233   0.744   4.810   7.697 -0.9548 -0.2084  3.2251
  124OSM   C13F13234   0.718   4.613   7.792 -0.0373 -0.3542 -0.0626
  124OSM   H13F13235   0.709   4.653   7.895  0.6991 -2.0639  0.7145
  124OSM   H13G13236   0.787   4.527   7.809 -1.2527 -1.2198  0.6755
  124OSM   C14F13237   0.590   4.548   7.737  0.3298  0.5152  0.0078
  124OSM   H14F13238   0.609   4.511   7.634 -2.0471 -0.3692 -0.1772
  124OSM   H14G13239   0.507   4.621   7.729 -0.5219 -0.2293  1.5502
  124OSM   C15F13240   0.529   4.425   7.809 -0.3785  0.2332  0.1358
  124OSM   H15F13241   0.606   4.345   7.799  1.0731  1.0119  3.5656
  124OSM   H15G13242   0.428   4.401   7.770 -0.5563  0.0664  0.6920
  124OSM   C16F13243   0.508   4.453   7.960  0.4181  0.5305  0.5960
  124OSM   H16F13244   0.415   4.409   8.000 -0.4686  1.2226 -0.6183
  124OSM   H16G13245   0.490   4.563   7.965 -0.5523  0.3396  1.7994
  124OSM   C17F13246   0.623   4.420   8.055  0.5229  0.2890  0.5915
  124OSM   H17F13247   0.693   4.498   8.016 -2.8211  2.6864 -1.0669
  124OSM   H17G13248   0.663   4.318   8.039 -0.4931 -0.0028 -0.1491
  124OSM   C18F13249   0.601   4.454   8.201 -0.1776  0.3616 -0.4198
  124OSM   H18F13250   0.680   4.411   8.265  0.1007 -1.2315 -1.7637
  124OSM   H18G13251   0.513   4.391   8.227  1.1057 -1.4916 -0.3864
  124OSM   H18H13252   0.588   4.564   8.207  0.4757  0.4341 -0.3096
  125OSM      N13253   3.779   3.961   6.170  0.3411  0.3900  0.3968
  125OSM    C1513254   3.779   4.098   6.228  0.0313  0.6943 -0.7232
  125OSM   H15A13255   3.690   4.123   6.283 -0.8098  0.1642 -1.8103
  125OSM   H15B13256   3.798   4.172   6.151  1.5268  0.0963 -0.9541
  125OSM   H15C13257   3.862   4.104   6.296  0.3683 -2.6354 -0.6769
  125OSM    C1413258   3.665   3.961   6.071 -0.0151  0.1589 -0.0259
  125OSM   H14A13259   3.661   4.056   6.019  2.1026 -1.1012 -2.7150
  125OSM   H14B13260   3.570   3.951   6.122  0.7763 -2.3954  1.0733
  125OSM   H14C13261   3.664   3.877   6.003  1.6927 -0.2111  0.3531
  125OSM    C1313262   3.904   3.934   6.099 -0.2574  0.0023 -0.4960
  125OSM   H13A13263   3.906   3.844   6.038 -0.7114  1.3350 -2.5774
  125OSM   H13B13264   3.991   3.948   6.162 -1.0318  0.9182  0.3988
  125OSM   H13C13265   3.928   4.008   6.024  3.2573 -0.0792  0.3810
  125OSM    C1213266   3.772   3.854   6.280  0.5245 -0.1785 -0.6531
  125OSM   H12A13267   3.694   3.879   6.350  2.1674  1.7846  0.5953
  125OSM   H12B13268   3.865   3.861   6.336 -0.7452  1.5039  1.3851
  125OSM    C1113269   3.755   3.707   6.226 -0.0835  0.0246 -0.1697
  125OSM   H11A13270   3.780   3.639   6.311 -1.2112  0.9566  0.9457
  125OSM   H11B13271   3.819   3.699   6.136 -1.0444  1.2328 -0.9857
  125OSM      P13272   3.494   3.686   6.275  0.2757 -0.5541  0.2496
  125OSM    O1313273   3.373   3.707   6.193  0.2719  0.0199 -0.0634
  125OSM    O1413274   3.503   3.565   6.356 -0.3647 -0.3742  0.4820
  125OSM    O1113275   3.508   3.806   6.379 -0.7292  0.1370  0.0720
  125OSM    O1213276   3.621   3.689   6.183 -0.0219 -0.6453  0.5185
  125OSM    C1S13277   3.408   3.888   6.430 -0.6315  0.1021 -0.0974
  125OSM    H1S13278   3.312   3.873   6.377 -1.2194 -3.4399  1.6407
  125OSM    H1T13279   3.445   3.992   6.419 -2.1242  0.4003 -3.5810
  125OSM     NF13280   3.246   3.897   6.624  0.3005 -0.6881 -0.4024
  125OSM    HNF13281   3.233   3.974   6.686 -4.1981  0.0597 -1.9164
  125OSM    C2S13282   3.381   3.864   6.583 -0.7448  0.2078  0.4613
  125OSM    H2S13283   3.383   3.754   6.600  1.2441  0.0681 -0.3785
  125OSM    C3S13284   3.501   3.928   6.664  0.1127  0.5941 -0.1661
  125OSM    H3S13285   3.504   4.038   6.647 -0.3990  0.7775  0.8332
  125OSM     O313286   3.626   3.879   6.614  0.2407 -0.4698  0.5335
  125OSM    HO313287   3.594   3.846   6.529  1.1870 -2.8876  1.0489
  125OSM    C4S13288   3.485   3.899   6.806 -0.4060 -1.2159 -0.7079
  125OSM    H4S13289   3.492   3.791   6.821  1.7999 -0.9995  0.1779
  125OSM    C5S13290   3.462   3.990   6.904  0.2426  0.8081 -0.1580
  125OSM    H5S13291   3.459   4.097   6.878  0.6503  0.7086 -0.6391
  125OSM    C6S13292   3.438   3.954   7.049  0.3350 -0.6304 -0.2377
  125OSM    H6S13293   3.501   4.020   7.113  1.0915  0.3017 -1.8993
  125OSM    H6T13294   3.469   3.849   7.069 -1.9425 -0.8392  3.2205
  125OSM    C7S13295   3.285   3.974   7.082 -0.0339  0.2489  0.5052
  125OSM    H7S13296   3.223   3.914   7.013  1.5427  0.6089 -1.3018
  125OSM    H7T13297   3.258   4.080   7.064  1.4214  0.5479  0.0129
  125OSM    C8S13298   3.253   3.943   7.231  0.1704  0.8392  0.3176
  125OSM    H8S13299   3.145   3.923   7.243  0.2668 -1.3438 -1.6337
  125OSM    H8T13300   3.283   4.033   7.289  0.1128  2.3361 -1.8400
  125OSM    C9S13301   3.321   3.818   7.287 -0.0806 -0.0630 -0.0757
  125OSM    H9S13302   3.432   3.821   7.273 -0.2725  0.3795 -1.6247
  125OSM    H9T13303   3.283   3.728   7.235 -1.4549  0.2219  0.4133
  125OSM   C10S13304   3.305   3.796   7.439  0.6116  0.0978 -0.4314
  125OSM   H10S13305   3.379   3.718   7.469 -0.6633 -1.5545 -1.4144
  125OSM   H10T13306   3.206   3.751   7.461  0.1093  1.5655  0.3984
  125OSM   C11S13307   3.298   3.918   7.527  0.6049  0.1479  0.2684
  125OSM   H11S13308   3.216   3.983   7.489 -0.5246 -0.6788  1.2355
  125OSM   H11T13309   3.391   3.978   7.522  0.2927  0.6804  0.7257
  125OSM   C12S13310   3.278   3.883   7.669 -0.5526  0.7667 -0.6249
  125OSM   H12S13311   3.361   3.821   7.708 -2.8398 -2.7994 -1.0229
  125OSM   H12T13312   3.182   3.829   7.682 -0.5779  1.0004  0.2072
  125OSM   C13S13313   3.257   4.010   7.756 -0.4393 -0.1643 -0.0352
  125OSM   H13S13314   3.312   4.094   7.709 -0.1720 -0.4957 -0.3294
  125OSM   H13T13315   3.295   3.987   7.858  1.5411 -0.6248 -0.8221
  125OSM   C14S13316   3.111   4.060   7.765  0.3538 -0.6729 -0.1179
  125OSM   H14S13317   3.052   3.993   7.831  0.1573 -2.6613 -2.1774
  125OSM   H14T13318   3.073   4.068   7.661  1.6665  0.8370 -0.5304
  125OSM   C15S13319   3.079   4.196   7.823  0.0723  0.4259 -0.2218
  125OSM   H15S13320   2.977   4.233   7.798 -1.1119 -0.4677  2.8206
  125OSM   H15T13321   3.138   4.280   7.779  0.5631 -0.4028 -1.1831
  125OSM   C16S13322   3.087   4.205   7.975 -0.0337  0.7318 -0.2670
  125OSM   H16S13323   3.188   4.183   8.014 -0.1249  1.0658  0.1614
  125OSM   H16T13324   3.014   4.127   8.007  0.6999  0.1049 -0.1101
  125OSM   C17S13325   3.036   4.338   8.025  0.0481 -0.4324 -0.1302
  125OSM   H17S13326   2.933   4.359   7.988  0.1786 -1.1398 -0.9273
  125OSM   H17T13327   3.096   4.420   7.982 -1.2946 -0.2395 -1.7560
  125OSM   C18S13328   3.028   4.358   8.177 -0.4189 -0.3648  0.6033
  125OSM   H18S13329   2.968   4.448   8.201  0.2056  0.2187  0.0186
  125OSM   H18T13330   3.133   4.363   8.212 -0.4567 -0.3241  0.7110
  125OSM   H18U13331   2.964   4.278   8.220 -1.5753  0.7867  1.0908
  125OSM    C1F13332   3.142   3.834   6.561  0.4946  0.8948 -0.3964
  125OSM     OF13333   3.163   3.732   6.489  0.4092 -0.8265 -0.0746
  125OSM    C2F13334   2.998   3.877   6.601 -0.2523  0.6964 -0.0802
  125OSM    H2F13335   2.930   3.796   6.568  0.7657 -0.2728  0.1657
  125OSM    H2G13336   2.973   3.965   6.537  1.1573  0.3740 -1.1262
  125OSM    C3F13337   2.982   3.896   6.755  0.0949 -0.3543 -0.7286
  125OSM    H3F13338   3.047   3.979   6.792  1.7367 -1.6650 -0.5482
  125OSM    H3G13339   3.009   3.806   6.814  0.4145  1.6443  2.4138
  125OSM    C4F13340   2.844   3.951   6.792 -0.4421 -0.7614 -0.1384
  125OSM    H4F13341   2.766   3.888   6.745 -1.1152 -1.7402  2.1669
  125OSM    H4G13342   2.828   4.051   6.745 -0.1371 -0.0797  1.1526
  125OSM    C5F13343   2.806   3.943   6.938  1.0654  0.0018  0.5198
  125OSM    H5F13344   2.827   3.846   6.988  0.1394  1.0653  3.0997
  125OSM    H5G13345   2.698   3.961   6.953  0.3630 -3.4175  0.4011
  125OSM    C6F13346   2.889   4.036   7.035 -0.1186  0.4598  0.3409
  125OSM    H6F13347   2.894   4.139   6.993 -3.4960  0.7500  0.3403
  125OSM    H6G13348   2.989   3.991   7.049 -0.2786 -0.2767 -0.7381
  125OSM    C7F13349   2.814   4.046   7.170 -0.0597 -0.1047  0.0709
  125OSM    H7F13350   2.796   3.945   7.211  0.2011  0.0369  0.5487
  125OSM    H7G13351   2.714   4.094   7.158 -0.6742 -1.1498  0.8656
  125OSM    C8F13352   2.887   4.123   7.280 -0.2508 -0.3988 -0.3498
  125OSM    H8F13353   2.909   4.228   7.250 -0.5366  0.1459  1.2219
  125OSM    H8G13354   2.981   4.065   7.293 -1.1827 -1.4957  2.1810
  125OSM    C9F13355   2.809   4.138   7.404  0.3589  0.6444  0.3853
  125OSM    H9F13356   2.806   4.046   7.464  0.0281  0.1860 -0.3202
  125OSM   C10F13357   2.753   4.249   7.461 -0.3547  0.3653 -0.0881
  125OSM   H10F13358   2.689   4.229   7.549 -0.1915 -0.5505 -0.1689
  125OSM   C11F13359   2.739   4.388   7.423  0.3566 -0.4262 -0.7122
  125OSM   H11F13360   2.635   4.427   7.432  0.9967  1.3028 -0.3992
  125OSM   H11G13361   2.793   4.416   7.330  1.4612  3.0611  0.7925
  125OSM   C12F13362   2.825   4.480   7.518  0.4493  0.2824  0.2502
  125OSM   H12F13363   2.932   4.467   7.494  0.7280  0.1136  1.4985
  125OSM   H12G13364   2.805   4.446   7.622  1.4244 -0.1393  0.3073
  125OSM   C13F13365   2.788   4.628   7.512 -0.3103 -0.0698  0.5457
  125OSM   H13F13366   2.679   4.642   7.496 -0.2144 -0.3635 -0.4264
  125OSM   H13G13367   2.834   4.674   7.422 -1.2838  0.7405  0.4442
  125OSM   C14F13368   2.829   4.711   7.626 -0.7907  0.3572  0.3186
  125OSM   H14F13369   2.939   4.713   7.638 -0.8724  0.8714  1.0690
  125OSM   H14G13370   2.796   4.669   7.724 -0.4975 -1.2120 -0.2269
  125OSM   C15F13371   2.786   4.860   7.610 -0.6791 -0.0706 -0.4144
  125OSM   H15F13372   2.852   4.918   7.542 -1.9785  1.5367 -0.3562
  125OSM   H15G13373   2.808   4.906   7.709 -1.9107  3.7237 -1.7433
  125OSM   C16F13374   2.636   4.893   7.582 -0.4112  0.4250 -0.8740
  125OSM   H16F13375   2.600   4.840   7.492 -1.5408  0.8941 -0.7078
  125OSM   H16G13376   2.608   4.999   7.568  1.1953  0.9688 -0.2448
  125OSM   C17F13377   2.564   4.843   7.710 -0.9610  0.5362 -0.2712
  125OSM   H17F13378   2.615   4.874   7.804  3.0525 -0.7020 -1.8284
  125OSM   H17G13379   2.571   4.732   7.717 -1.0984  0.5512  0.1296
  125OSM   C18F13380   2.416   4.885   7.698  0.4830 -0.2243 -0.3290
  125OSM   H18F13381   2.380   4.856   7.597  0.6502 -1.4736 -0.0535
  125OSM   H18G13382   2.405   4.994   7.713  1.1700  0.0111 -1.4111
  125OSM   H18H13383   2.361   4.830   7.778 -1.6961  0.4730 -1.2898
  126OSM      N13384   0.510   1.606   6.314  0.1342 -0.2581  0.0410
  126OSM    C1513385   0.630   1.640   6.227  0.2505 -0.6186  0.6320
  126OSM   H15A13386   0.718   1.590   6.264  0.8690  1.3237  1.9673
  126OSM   H15B13387   0.645   1.746   6.244 -0.5164 -0.4955  0.5813
  126OSM   H15C13388   0.613   1.603   6.127 -1.4715  0.4951  0.4693
  126OSM    C1413389   0.375   1.665   6.272 -0.0404  0.0969  0.7312
  126OSM   H14A13390   0.376   1.772   6.281 -0.4113 -0.0761  3.8079
  126OSM   H14B13391   0.295   1.646   6.343  0.3146  1.9653  1.7032
  126OSM   H14C13392   0.348   1.633   6.172  1.7958  0.0686  0.2043
  126OSM    C1313393   0.504   1.457   6.289 -0.7245 -0.2071 -0.3262
  126OSM   H13A13394   0.491   1.437   6.184  1.0627 -0.8149 -0.4737
  126OSM   H13B13395   0.417   1.417   6.338 -2.2719  1.8880 -1.2261
  126OSM   H13C13396   0.590   1.401   6.324 -1.2524 -0.8352 -0.0298
  126OSM    C1213397   0.529   1.646   6.467 -0.0974 -0.7402  0.1534
  126OSM   H12A13398   0.524   1.751   6.493  0.8720 -0.2714 -1.3699
  126OSM   H12B13399   0.626   1.615   6.502  0.0759  1.9178  2.3888
  126OSM    C1113400   0.425   1.573   6.554  0.7031 -0.6230 -0.4849
  126OSM   H11A13401   0.451   1.596   6.660  0.7420 -0.2706 -0.5690
  126OSM   H11B13402   0.428   1.463   6.538 -3.9586 -0.8084 -1.5952
  126OSM      P13403   0.243   1.765   6.585  0.4443 -0.0030  0.0777
  126OSM    O1313404   0.365   1.844   6.616  0.3909 -0.7382  0.0144
  126OSM    O1413405   0.148   1.819   6.493 -0.1547  0.1421  0.6358
  126OSM    O1113406   0.167   1.728   6.718 -0.1040  0.3555  0.0990
  126OSM    O1213407   0.291   1.622   6.531 -0.7211  0.4059  0.3447
  126OSM    C1S13408   0.100   1.596   6.731  0.1605  0.0353  1.0879
  126OSM    H1S13409   0.159   1.509   6.695 -0.4648  0.1554 -0.3087
  126OSM    H1T13410   0.012   1.598   6.663  1.1125 -0.3660 -0.2055
  126OSM     NF13411  -0.047   1.457   6.869  0.1150 -0.0743 -0.1815
  126OSM    HNF13412  -0.140   1.492   6.861  0.3928  0.4663 -1.1976
  126OSM    C2S13413   0.055   1.566   6.873 -0.1302 -0.8511  0.0798
  126OSM    H2S13414   0.141   1.529   6.933  1.5029  0.8643 -1.0968
  126OSM    C3S13415   0.003   1.705   6.938  0.3145  0.0843  0.0879
  126OSM    H3S13416  -0.084   1.732   6.874  1.2888 -2.5110 -2.5725
  126OSM     O313417   0.090   1.817   6.939 -0.4856 -0.1057 -0.6195
  126OSM    HO313418   0.138   1.816   6.856 -2.4544 -2.1136 -1.8432
  126OSM    C4S13419  -0.044   1.669   7.076 -0.4244  0.2037 -0.2271
  126OSM    H4S13420  -0.142   1.619   7.088  0.8364 -1.8422  2.6814
  126OSM    C5S13421   0.027   1.684   7.192  0.1335  0.1637  0.0664
  126OSM    H5S13422   0.125   1.730   7.176  0.1097 -0.5515 -2.6512
  126OSM    C6S13423  -0.012   1.654   7.333  0.7820  0.5258  0.1765
  126OSM    H6S13424  -0.060   1.736   7.392 -1.7408 -0.7216  0.0037
  126OSM    H6T13425   0.079   1.630   7.391  0.8897  0.0802 -0.1768
  126OSM    C7S13426  -0.114   1.542   7.348  0.8159 -0.5687 -0.1037
  126OSM    H7S13427  -0.076   1.451   7.296 -0.7210 -1.6148  0.5156
  126OSM    H7T13428  -0.209   1.578   7.304  0.9520 -1.2945 -1.0298
  126OSM    C8S13429  -0.148   1.516   7.495  0.0564 -0.1836 -0.1750
  126OSM    H8S13430  -0.202   1.420   7.512  2.3276 -1.4728  0.2311
  126OSM    H8T13431  -0.222   1.595   7.520 -2.8534 -2.8224  0.2787
  126OSM    C9S13432  -0.037   1.529   7.599 -0.6501 -0.3378 -0.8287
  126OSM    H9S13433   0.008   1.630   7.594 -0.8428 -0.2876 -1.8865
  126OSM    H9T13434   0.044   1.453   7.594 -0.4688 -0.2882  0.7263
  126OSM   C10S13435  -0.110   1.507   7.737 -0.5538  0.4140  0.0149
  126OSM   H10S13436  -0.142   1.401   7.743 -0.3463  0.3940  0.8619
  126OSM   H10T13437  -0.203   1.567   7.723 -0.5209  0.1892 -1.3726
  126OSM   C11S13438  -0.034   1.538   7.862 -0.3327  0.4138 -0.0155
  126OSM   H11S13439   0.041   1.617   7.836  2.4591 -2.5063 -1.5563
  126OSM   H11T13440   0.016   1.442   7.886 -3.0657 -0.8824  0.9100
  126OSM   C12S13441  -0.131   1.572   7.982 -0.2271  0.1078  0.3877
  126OSM   H12S13442  -0.209   1.495   8.001  0.5447 -0.5998  0.7054
  126OSM   H12T13443  -0.180   1.668   7.953 -0.8090  0.0108  1.0397
  126OSM   C13S13444  -0.054   1.611   8.111  0.0748 -0.2164  0.6800
  126OSM   H13S13445   0.015   1.695   8.089  0.5394 -0.9398 -0.7008
  126OSM   H13T13446   0.012   1.525   8.137  1.2875  0.3988 -0.2654
  126OSM   C14S13447  -0.142   1.660   8.232  0.3614 -0.5472 -0.2310
  126OSM   H14S13448  -0.211   1.576   8.252  0.2388 -0.4727 -0.3429
  126OSM   H14T13449  -0.194   1.750   8.194  1.1841  0.4831  0.9933
  126OSM   C15S13450  -0.061   1.687   8.369 -0.3422  0.0282  0.2723
  126OSM   H15S13451   0.019   1.760   8.346 -0.0420 -0.0014  1.1914
  126OSM   H15T13452  -0.001   1.595   8.385  1.5906  1.2264  0.1823
  126OSM   C16S13453  -0.143   1.732   8.490 -0.1041  0.1448  1.0804
  126OSM   H16S13454  -0.197   1.826   8.464 -0.1080 -0.5333 -1.6967
  126OSM   H16T13455  -0.076   1.754   8.575 -0.4795 -0.8799  1.6468
  126OSM   C17S13456  -0.241   1.632   8.555 -0.8091  0.3236  0.0764
  126OSM   H17S13457  -0.309   1.585   8.481  0.0132  0.4843 -0.7965
  126OSM   H17T13458  -0.300   1.673   8.640  0.1133 -0.6647  1.2351
  126OSM   C18S13459  -0.167   1.515   8.629 -0.6670 -0.7541 -0.1942
  126OSM   H18S13460  -0.237   1.440   8.673  0.9154 -3.5499 -2.1251
  126OSM   H18T13461  -0.100   1.547   8.711  0.8588  0.5590 -1.8813
  126OSM   H18U13462  -0.112   1.454   8.555  0.5350 -0.3468  0.3348
  126OSM    C1F13463  -0.011   1.327   6.846 -0.2672  0.7125  0.0551
  126OSM     OF13464   0.107   1.300   6.827  0.1720 -0.2036  0.6028
  126OSM    C2F13465  -0.129   1.231   6.841 -0.4716  0.4208  0.5367
  126OSM    H2F13466  -0.174   1.237   6.739 -1.2304  3.7464  0.9332
  126OSM    H2G13467  -0.209   1.253   6.915 -1.2620 -2.3409  0.5965
  126OSM    C3F13468  -0.079   1.089   6.862 -0.3791 -0.0044  0.1526
  126OSM    H3F13469  -0.009   1.063   6.779 -1.1146  0.9212 -0.7850
  126OSM    H3G13470  -0.171   1.028   6.848 -0.2281  0.0934 -1.5401
  126OSM    C4F13471  -0.019   1.053   7.000 -0.0028  0.1074 -0.3000
  126OSM    H4F13472   0.060   1.128   7.017  0.6060 -0.7071  0.6067
  126OSM    H4G13473   0.027   0.951   7.005  2.3552  1.0771 -0.9425
  126OSM    C5F13474  -0.123   1.070   7.110 -0.6366 -0.4887 -0.0298
  126OSM    H5F13475  -0.212   1.003   7.102 -1.0902  0.1764 -0.6346
  126OSM    H5G13476  -0.164   1.173   7.107  2.0438  0.6937  0.9356
  126OSM    C6F13477  -0.064   1.041   7.248  0.4705 -0.4724  0.0028
  126OSM    H6F13478   0.036   1.090   7.246 -0.0678  0.7555  1.3021
  126OSM    H6G13479  -0.044   0.934   7.270 -2.2514 -1.0020  0.2980
  126OSM    C7F13480  -0.148   1.089   7.363  0.5442  0.3992  0.3412
  126OSM    H7F13481  -0.225   1.014   7.390  0.2308 -1.0566 -3.7631
  126OSM    H7G13482  -0.207   1.176   7.328 -1.7548 -1.1742  0.0473
  126OSM    C8F13483  -0.070   1.135   7.485 -0.1477 -0.1035 -0.8442
  126OSM    H8F13484  -0.141   1.200   7.540 -0.8769 -0.8489 -0.8867
  126OSM    H8G13485   0.011   1.200   7.446 -0.3595 -0.3161 -1.6632
  126OSM    C9F13486  -0.020   1.027   7.573  0.0596  0.6296  0.9143
  126OSM    H9F13487   0.079   0.991   7.540 -0.2687  1.7999 -1.6059
  126OSM   C10F13488  -0.074   0.989   7.687 -0.4538 -0.5902 -0.2713
  126OSM   H10F13489  -0.025   0.904   7.736  0.5339  0.2202  0.1899
  126OSM   C11F13490  -0.195   1.050   7.752  0.9909  0.1362  0.3885
  126OSM   H11F13491  -0.263   0.968   7.783  0.2052 -0.0228 -1.6159
  126OSM   H11G13492  -0.260   1.102   7.678  0.3637 -0.3625  0.5765
  126OSM   C12F13493  -0.175   1.140   7.866  0.2467  0.4765 -0.7329
  126OSM   H12F13494  -0.272   1.187   7.894 -0.0602 -0.6348  0.1529
  126OSM   H12G13495  -0.097   1.219   7.858 -0.7693  1.7946  1.4291
  126OSM   C13F13496  -0.139   1.058   7.998 -0.1054 -0.5506 -0.2522
  126OSM   H13F13497  -0.039   1.012   7.984 -1.1784 -2.3938 -2.6065
  126OSM   H13G13498  -0.213   0.976   8.015 -1.7004  0.1795 -3.0916
  126OSM   C14F13499  -0.135   1.151   8.123 -0.6022  0.8100  0.3126
  126OSM   H14F13500  -0.052   1.220   8.097  1.1325 -0.6684  1.6689
  126OSM   H14G13501  -0.094   1.092   8.208 -1.9252 -1.0217 -0.2617
  126OSM   C15F13502  -0.266   1.223   8.163 -0.8161 -0.3146  0.8319
  126OSM   H15F13503  -0.355   1.162   8.135 -1.6656  2.6855 -4.1100
  126OSM   H15G13504  -0.274   1.310   8.095 -0.1231 -2.0836 -1.6544
  126OSM   C16F13505  -0.260   1.271   8.308  0.1559  0.1341 -0.0655
  126OSM   H16F13506  -0.340   1.346   8.324  0.1276  0.3021 -0.9366
  126OSM   H16G13507  -0.163   1.324   8.319  0.0168  0.8873 -2.1105
  126OSM   C17F13508  -0.276   1.161   8.411  0.1382 -0.6500 -0.5667
  126OSM   H17F13509  -0.171   1.129   8.432  0.5474  0.8150 -0.2244
  126OSM   H17G13510  -0.333   1.078   8.364 -1.5383 -1.0492  1.9826
  126OSM   C18F13511  -0.344   1.207   8.540  0.0923 -0.6768 -0.0646
  126OSM   H18F13512  -0.363   1.121   8.609 -1.0274 -1.5503 -1.4066
  126OSM   H18G13513  -0.437   1.257   8.508 -0.0079 -0.0534  1.1427
  126OSM   H18H13514  -0.279   1.273   8.602 -2.1115  0.0349  1.5938
  127OSM      N13515   6.208   2.969   6.131 -0.4006  0.1146  0.1545
  127OSM    C1513516   6.279   2.940   6.003 -0.2948 -0.6768 -0.6961
  127OSM   H15A13517   6.243   2.855   5.947  1.3230 -0.6775 -1.8117
  127OSM   H15B13518   6.382   2.921   6.031 -0.7265 -1.2066  0.5841
  127OSM   H15C13519   6.264   3.026   5.939 -0.6542  0.5101  0.9004
  127OSM    C1413520   6.273   3.080   6.207 -0.4224 -0.0991  0.6349
  127OSM   H14A13521   6.266   3.165   6.141  1.4657  0.0867  0.6047
  127OSM   H14B13522   6.372   3.053   6.241 -0.6555 -2.1879 -0.1922
  127OSM   H14C13523   6.218   3.103   6.298  3.2792  0.1405  3.0414
  127OSM    C1313524   6.068   3.008   6.077  0.2733 -0.1336 -0.2180
  127OSM   H13A13525   6.062   3.100   6.020 -3.2095  1.3222  2.1977
  127OSM   H13B13526   5.999   3.019   6.159 -0.5681  1.5633 -1.0922
  127OSM   H13C13527   6.038   2.915   6.030  1.9649 -1.0377  0.4004
  127OSM    C1213528   6.196   2.852   6.218  0.5690 -0.1341 -0.4298
  127OSM   H12A13529   6.297   2.823   6.242  0.5783  0.0082 -0.2974
  127OSM   H12B13530   6.142   2.775   6.164  0.0448 -0.4342  0.5078
  127OSM    C1113531   6.112   2.864   6.348 -0.3426 -0.1995  0.2200
  127OSM   H11A13532   6.157   2.946   6.408 -0.5219 -0.9796  1.4532
  127OSM   H11B13533   6.143   2.774   6.405  2.2307  0.3558 -0.1858
  127OSM      P13534   5.873   2.776   6.347 -0.2185 -0.5866 -0.3009
  127OSM    O1313535   5.735   2.821   6.316 -0.5814 -0.7165  0.0218
  127OSM    O1413536   5.934   2.659   6.283 -0.8188  0.2478  0.1755
  127OSM    O1113537   5.889   2.764   6.501  0.3991 -0.7530 -0.2971
  127OSM    O1213538   5.974   2.898   6.330 -0.4030 -0.2516  0.5283
  127OSM    C1S13539   5.850   2.877   6.585  0.9760  0.3351 -0.2861
  127OSM    H1S13540   5.769   2.944   6.547  2.3517 -0.1051 -4.6184
  127OSM    H1T13541   5.940   2.941   6.597  1.5041 -0.7083  1.6997
  127OSM     NF13542   5.742   2.940   6.806  0.6015  0.8967 -0.1809
  127OSM    HNF13543   5.790   2.985   6.881 -0.0006 -1.7295  1.8923
  127OSM    C2S13544   5.813   2.836   6.729 -0.4681 -0.6750 -0.1752
  127OSM    H2S13545   5.741   2.752   6.718 -0.1366 -1.0176  0.2522
  127OSM    C3S13546   5.944   2.780   6.801 -0.0782  0.7924  0.5881
  127OSM    H3S13547   6.001   2.872   6.825  1.2826  0.2628 -0.4819
  127OSM     O313548   6.033   2.703   6.716 -0.6372 -0.4615 -0.0540
  127OSM    HO313549   5.996   2.712   6.628  0.3917  0.9030 -0.3955
  127OSM    C4S13550   5.911   2.703   6.922 -0.2083  0.2992 -0.2126
  127OSM    H4S13551   5.829   2.631   6.911  1.0950 -1.3219  0.2186
  127OSM    C5S13552   5.977   2.701   7.037  0.1904 -0.3997 -0.3330
  127OSM    H5S13553   6.073   2.755   7.041 -0.1064  0.2009 -1.0894
  127OSM    C6S13554   5.935   2.623   7.162  0.0610  0.2649 -0.2433
  127OSM    H6S13555   6.009   2.541   7.172  0.2790  0.2892 -1.5050
  127OSM    H6T13556   5.839   2.570   7.142  1.2691 -1.9299 -0.4797
  127OSM    C7S13557   5.913   2.709   7.293 -0.6229  0.8914  0.3326
  127OSM    H7S13558   5.826   2.775   7.277 -1.1310 -0.1333 -1.4916
  127OSM    H7T13559   6.005   2.769   7.307  0.7496 -0.7535 -0.9827
  127OSM    C8S13560   5.880   2.613   7.410  0.0422 -0.6573 -0.2640
  127OSM    H8S13561   5.973   2.556   7.429  2.9533  2.7055 -2.9568
  127OSM    H8T13562   5.788   2.552   7.399 -0.7173 -0.3139  3.0519
  127OSM    C9S13563   5.862   2.711   7.526 -0.3817 -0.3362  0.0136
  127OSM    H9S13564   5.780   2.785   7.509  0.0771  0.2599  0.3298
  127OSM    H9T13565   5.954   2.771   7.543  0.3584 -1.2619 -0.6588
  127OSM   C10S13566   5.818   2.633   7.659  0.2894  0.0506  0.9525
  127OSM   H10S13567   5.872   2.536   7.668  0.2799  0.2108  3.2710
  127OSM   H10T13568   5.711   2.606   7.648 -0.2319  2.7111 -1.8917
  127OSM   C11S13569   5.839   2.709   7.794  0.5432 -0.2410  0.0244
  127OSM   H11S13570   5.783   2.804   7.803 -1.5839 -1.4429 -0.0026
  127OSM   H11T13571   5.946   2.741   7.799 -0.1961  2.2561  1.7708
  127OSM   C12S13572   5.802   2.619   7.911 -0.6524  0.1515  0.2847
  127OSM   H12S13573   5.886   2.551   7.934 -1.4797 -0.2073  2.5609
  127OSM   H12T13574   5.712   2.557   7.890  0.6266 -1.4042 -0.8698
  127OSM   C13S13575   5.784   2.695   8.048  0.0783  0.7056  0.5579
  127OSM   H13S13576   5.700   2.765   8.029  0.2616  0.3338 -1.9880
  127OSM   H13T13577   5.867   2.760   8.084 -0.2102  1.0139  0.6648
  127OSM   C14S13578   5.751   2.601   8.164 -0.3453 -0.0112  0.5452
  127OSM   H14S13579   5.841   2.543   8.191 -0.8181  0.4412  3.3370
  127OSM   H14T13580   5.666   2.541   8.123  2.2648 -2.6175 -1.4534
  127OSM   C15S13581   5.721   2.689   8.289 -0.1307 -0.5303 -1.2234
  127OSM   H15S13582   5.631   2.748   8.265 -1.5747 -1.7833  0.7837
  127OSM   H15T13583   5.806   2.761   8.298 -0.0182 -0.9258  2.2940
  127OSM   C16S13584   5.701   2.610   8.419 -0.2701 -0.0033  0.5734
  127OSM   H16S13585   5.797   2.556   8.436 -0.1635  0.3657  1.2112
  127OSM   H16T13586   5.624   2.537   8.388  1.7569 -2.0311  0.0859
  127OSM   C17S13587   5.655   2.686   8.542 -0.4770  0.3147  0.1284
  127OSM   H17S13588   5.545   2.696   8.534 -0.4014  1.6097  0.4995
  127OSM   H17T13589   5.703   2.786   8.539  0.3949 -0.0958 -0.1623
  127OSM   C18S13590   5.683   2.616   8.678 -0.2271 -0.6725 -0.0673
  127OSM   H18S13591   5.788   2.584   8.697  0.0864 -1.3331 -2.5722
  127OSM   H18T13592   5.617   2.527   8.677  0.8840 -1.6874 -4.1485
  127OSM   H18U13593   5.656   2.684   8.762 -0.4688  0.5351 -1.0859
  127OSM    C1F13594   5.620   3.002   6.773 -0.2499 -0.7118 -0.2894
  127OSM     OF13595   5.556   2.963   6.680  0.2295  0.1120 -0.3502
  127OSM    C2F13596   5.577   3.118   6.854  0.0733  0.7008 -0.3936
  127OSM    H2F13597   5.646   3.204   6.841 -2.3159  2.5490 -1.7299
  127OSM    H2G13598   5.567   3.082   6.958  0.3267 -0.9249 -0.8978
  127OSM    C3F13599   5.433   3.170   6.823  0.0091  0.8592  0.0035
  127OSM    H3F13600   5.358   3.091   6.845  1.7001 -1.0726 -0.7759
  127OSM    H3G13601   5.413   3.176   6.713  0.5625  0.3893 -0.1275
  127OSM    C4F13602   5.405   3.316   6.890  0.2532  0.1367 -0.1674
  127OSM    H4F13603   5.322   3.359   6.830  1.8538  0.8200 -1.9896
  127OSM    H4G13604   5.495   3.380   6.875 -0.4408  1.2130  0.1644
  127OSM    C5F13605   5.391   3.308   7.041 -0.3202 -0.0853  0.4614
  127OSM    H5F13606   5.462   3.382   7.083 -1.3856  1.0981  0.2174
  127OSM    H5G13607   5.421   3.210   7.084  1.9711  0.9278  1.3591
  127OSM    C6F13608   5.239   3.327   7.070  0.2236  0.0679 -0.4672
  127OSM    H6F13609   5.186   3.239   7.028  0.1767 -0.7331  1.2119
  127OSM    H6G13610   5.214   3.422   7.017 -2.2799  0.3351  1.0266
  127OSM    C7F13611   5.215   3.324   7.222 -0.5099 -0.0295  0.3264
  127OSM    H7F13612   5.294   3.268   7.274 -2.0896  0.3073  3.2990
  127OSM    H7G13613   5.115   3.284   7.251  0.1925 -2.3704 -0.3050
  127OSM    C8F13614   5.245   3.463   7.286  0.5364  0.2773 -0.1249
  127OSM    H8F13615   5.346   3.494   7.252  0.4564 -0.1674 -0.7835
  127OSM    H8G13616   5.254   3.451   7.397 -1.6233 -0.4081  0.0243
  127OSM    C9F13617   5.144   3.562   7.234  0.1888 -0.5822  0.1727
  127OSM    H9F13618   5.093   3.531   7.142  1.5263  1.8126 -1.4596
  127OSM   C10F13619   5.097   3.675   7.296  0.0201 -0.0991 -0.3808
  127OSM   H10F13620   5.015   3.731   7.249  0.9271  1.5102 -0.1023
  127OSM   C11F13621   5.148   3.719   7.429 -1.2531 -0.5366  0.3038
  127OSM   H11F13622   5.223   3.800   7.417 -2.6718  1.1327  2.0252
  127OSM   H11G13623   5.199   3.639   7.486 -0.9342 -1.3997 -1.1486
  127OSM   C12F13624   5.035   3.757   7.519  0.2838 -0.1436  0.4332
  127OSM   H12F13625   4.990   3.656   7.519 -0.7635  0.2980  1.5078
  127OSM   H12G13626   4.972   3.836   7.473  0.7150 -0.1978 -0.2620
  127OSM   C13F13627   5.085   3.776   7.667  0.8439 -0.0699  0.9777
  127OSM   H13F13628   5.141   3.872   7.666 -0.4750  0.7543 -1.1236
  127OSM   H13G13629   5.160   3.695   7.679  0.6965 -0.4192 -0.3263
  127OSM   C14F13630   4.977   3.762   7.769 -0.0938 -0.5749 -0.7945
  127OSM   H14F13631   4.938   3.657   7.770 -2.5277  0.2479 -1.6451
  127OSM   H14G13632   4.893   3.828   7.739  0.6305 -0.4230 -2.6015
  127OSM   C15F13633   5.032   3.803   7.904 -0.1727  0.0068 -0.4057
  127OSM   H15F13634   5.077   3.904   7.897 -0.9287  0.3786 -0.0300
  127OSM   H15G13635   5.106   3.725   7.934 -2.0514 -1.9496 -0.6228
  127OSM   C16F13636   4.931   3.807   8.017  0.3187  0.3946  1.0206
  127OSM   H16F13637   4.872   3.713   8.020 -0.0541  0.4144 -2.2419
  127OSM   H16G13638   4.860   3.889   7.993 -0.7952 -0.7844  0.1712
  127OSM   C17F13639   4.986   3.857   8.152  0.0814  0.2399  0.0415
  127OSM   H17F13640   5.041   3.953   8.146 -2.8300  2.0300 -0.1944
  127OSM   H17G13641   5.065   3.783   8.174 -0.1981 -0.4142 -1.0760
  127OSM   C18F13642   4.880   3.852   8.260 -0.6775 -0.1253 -0.1545
  127OSM   H18F13643   4.918   3.884   8.359 -0.3376 -0.3520 -0.2088
  127OSM   H18G13644   4.851   3.747   8.282 -0.1144 -0.1079  0.6711
  127OSM   H18H13645   4.788   3.902   8.222  0.8195  2.5375 -0.5103
  128OSM      N13646   3.304   6.386   6.187 -0.5573 -0.3456 -0.2961
  128OSM    C1513647   3.258   6.505   6.105 -0.1895 -0.2892 -0.0721
  128OSM   H15A13648   3.342   6.550   6.054 -0.0300 -0.0336  0.4181
  128OSM   H15B13649   3.227   6.586   6.169  0.4261 -0.0103 -0.1136
  128OSM   H15C13650   3.180   6.474   6.037  0.0246  0.0083 -0.4565
  128OSM    C1413651   3.405   6.435   6.290  0.3707 -0.4497 -0.2240
  128OSM   H14A13652   3.411   6.359   6.367 -2.0031 -1.0090 -0.5209
  128OSM   H14B13653   3.369   6.527   6.334  3.2186  1.7883 -2.1670
  128OSM   H14C13654   3.505   6.453   6.254  0.8032 -2.1070  0.0340
  128OSM    C1313655   3.183   6.329   6.253 -0.1005  0.3021  0.0807
  128OSM   H13A13656   3.137   6.396   6.324  0.0455  0.0863  0.3833
  128OSM   H13B13657   3.203   6.240   6.311 -1.0099  1.3183  2.0370
  128OSM   H13C13658   3.111   6.309   6.175 -0.7395 -1.6411  1.1148
  128OSM    C1213659   3.368   6.287   6.088  0.0518 -0.0949 -0.1788
  128OSM   H12A13660   3.295   6.278   6.009 -1.2487  0.5836  0.9180
  128OSM   H12B13661   3.374   6.191   6.136  1.6824  0.4614  0.8475
  128OSM    C1113662   3.505   6.316   6.027 -1.2415  0.4529 -0.4510
  128OSM   H11A13663   3.502   6.415   5.976 -4.1505  2.6537  3.4402
  128OSM   H11B13664   3.524   6.235   5.953  0.8704 -0.6528  1.2135
  128OSM      P13665   3.668   6.200   6.205 -0.1761 -0.3927 -0.2554
  128OSM    O1313666   3.582   6.084   6.193 -0.6174 -0.0199 -0.3867
  128OSM    O1413667   3.813   6.190   6.162  0.1782 -0.7175  0.1328
  128OSM    O1113668   3.665   6.249   6.360  0.1428  0.2947  0.2437
  128OSM    O1213669   3.613   6.323   6.120  0.4691 -0.2802  0.1974
  128OSM    C1S13670   3.718   6.375   6.400  0.2980  0.1903 -0.6500
  128OSM    H1S13671   3.656   6.461   6.366 -1.7984 -0.6021  0.9357
  128OSM    H1T13672   3.819   6.395   6.359  0.0289  1.7275 -0.6242
  128OSM     NF13673   3.773   6.520   6.589 -0.7815  0.3536  0.6178
  128OSM    HNF13674   3.868   6.531   6.619 -1.1272  2.0570  1.1880
  128OSM    C2S13675   3.729   6.384   6.556 -0.2574 -0.7828  0.3555
  128OSM    H2S13676   3.630   6.375   6.606  0.1582 -0.8646  1.1790
  128OSM    C3S13677   3.810   6.266   6.617  0.2553 -0.3054  0.3778
  128OSM    H3S13678   3.911   6.268   6.571  0.4799  0.3856  0.8906
  128OSM     O313679   3.751   6.139   6.581  0.5020 -0.1205  0.0025
  128OSM    HO313680   3.697   6.153   6.504  0.6371 -0.5083 -0.1629
  128OSM    C4S13681   3.835   6.269   6.761 -0.1578 -0.6205 -0.0712
  128OSM    H4S13682   3.743   6.265   6.821 -0.2426  1.7256  0.0759
  128OSM    C5S13683   3.955   6.259   6.822 -0.4058 -0.7320  0.6383
  128OSM    H5S13684   4.046   6.253   6.759 -0.3483  3.7246 -0.0473
  128OSM    C6S13685   3.989   6.250   6.970  0.3308  0.0896  0.0421
  128OSM    H6S13686   4.072   6.321   6.990  0.3727  0.1551 -0.3563
  128OSM    H6T13687   4.038   6.151   6.984  0.1330 -0.2219 -1.3602
  128OSM    C7S13688   3.866   6.258   7.061  0.2995  0.4352 -0.0128
  128OSM    H7S13689   3.797   6.174   7.042 -1.0501  1.5083 -0.0158
  128OSM    H7T13690   3.796   6.343   7.046 -0.6569 -0.4315 -0.5788
  128OSM    C8S13691   3.905   6.271   7.206  0.1654 -0.5009  0.1771
  128OSM    H8S13692   3.959   6.365   7.232  1.8424 -0.8139 -1.8988
  128OSM    H8T13693   3.961   6.176   7.220 -2.5649 -1.9319  2.4681
  128OSM    C9S13694   3.778   6.262   7.286 -0.4686  0.2490  0.2073
  128OSM    H9S13695   3.720   6.174   7.252 -1.7561  1.6607 -1.4791
  128OSM    H9T13696   3.707   6.345   7.265 -0.2294  0.9180  1.8930
  128OSM   C10S13697   3.802   6.256   7.434 -0.1872 -0.3696 -0.3981
  128OSM   H10S13698   3.839   6.347   7.486 -1.5336 -0.3200  0.5316
  128OSM   H10T13699   3.853   6.169   7.481 -1.9022 -0.7977  0.7392
  128OSM   C11S13700   3.669   6.254   7.507  0.0210 -0.5869 -0.2072
  128OSM   H11S13701   3.612   6.161   7.486 -0.1844 -1.4230  3.4988
  128OSM   H11T13702   3.609   6.340   7.472  0.0594  0.1601  1.4942
  128OSM   C12S13703   3.673   6.260   7.665 -0.1578 -0.4540  0.2801
  128OSM   H12S13704   3.742   6.184   7.707 -0.0710  1.1487  3.3510
  128OSM   H12T13705   3.566   6.239   7.688 -0.7668 -1.8214 -3.1962
  128OSM   C13S13706   3.718   6.396   7.730 -0.0178  0.5121  0.4680
  128OSM   H13S13707   3.663   6.473   7.672  0.8868 -0.2747 -1.5326
  128OSM   H13T13708   3.827   6.408   7.711 -0.0072 -1.7961 -1.3725
  128OSM   C14S13709   3.690   6.409   7.883  0.1720  0.1453  0.4062
  128OSM   H14S13710   3.760   6.491   7.911  1.6352 -0.9522  0.0834
  128OSM   H14T13711   3.726   6.321   7.941  1.4863  0.2436 -0.2217
  128OSM   C15S13712   3.542   6.451   7.930 -0.6723 -0.2302 -0.1609
  128OSM   H15S13713   3.466   6.374   7.904 -2.1410  1.6981 -1.8894
  128OSM   H15T13714   3.522   6.540   7.867 -1.4385  0.5230  1.1125
  128OSM   C16S13715   3.529   6.493   8.078 -0.2264 -0.5567 -0.3923
  128OSM   H16S13716   3.606   6.571   8.095 -2.4245  0.8164  5.7436
  128OSM   H16T13717   3.552   6.407   8.144 -2.7454 -0.6593  0.4742
  128OSM   C17S13718   3.392   6.546   8.109  0.1844  0.8344  0.5454
  128OSM   H17S13719   3.325   6.459   8.091  3.8722 -1.8055 -1.9030
  128OSM   H17T13720   3.370   6.634   8.045  1.4111  0.1515 -0.8649
  128OSM   C18S13721   3.359   6.574   8.259 -0.3138 -0.2271  0.3055
  128OSM   H18S13722   3.250   6.593   8.262 -0.4967 -1.3326  1.9804
  128OSM   H18T13723   3.434   6.652   8.288 -0.1930 -0.2979  0.1838
  128OSM   H18U13724   3.369   6.481   8.318 -0.7198  0.1689  1.0122
  128OSM    C1F13725   3.714   6.637   6.551  0.3447  0.3455  0.3339
  128OSM     OF13726   3.597   6.642   6.515  0.4336 -0.5303  0.0638
  128OSM    C2F13727   3.809   6.759   6.538 -0.1112 -0.3803  0.1308
  128OSM    H2F13728   3.837   6.768   6.431  1.8845  0.8482  0.7077
  128OSM    H2G13729   3.907   6.735   6.586 -0.5663 -3.2892 -0.2250
  128OSM    C3F13730   3.745   6.888   6.606 -0.3259 -0.1160 -0.3591
  128OSM    H3F13731   3.634   6.895   6.600 -0.5564 -3.2273 -1.0389
  128OSM    H3G13732   3.795   6.974   6.556  1.1949 -0.9928 -0.4079
  128OSM    C4F13733   3.788   6.905   6.750  0.4733  0.2657  0.2046
  128OSM    H4F13734   3.896   6.923   6.768  0.3426  0.3909  0.9187
  128OSM    H4G13735   3.761   6.814   6.808 -1.0726 -0.2060 -1.1619
  128OSM    C5F13736   3.706   7.013   6.813  0.2298 -0.0782  0.4224
  128OSM    H5F13737   3.604   6.975   6.795  0.8585 -0.7704 -2.1390
  128OSM    H5G13738   3.726   7.099   6.745  2.8151 -0.8101  0.1301
  128OSM    C6F13739   3.742   7.062   6.944 -0.0550  0.5511 -0.6405
  128OSM    H6F13740   3.843   7.105   6.929 -0.0271 -0.2525 -3.2580
  128OSM    H6G13741   3.760   6.976   7.013 -0.7846  0.6051 -0.3734
  128OSM    C7F13742   3.644   7.170   7.000  0.0465  0.0398 -0.4293
  128OSM    H7F13743   3.536   7.143   7.003 -0.7358  2.7122 -1.8573
  128OSM    H7G13744   3.657   7.248   6.922  1.2196 -0.1287 -0.4178
  128OSM    C8F13745   3.685   7.221   7.143 -0.4561  0.1124 -0.6211
  128OSM    H8F13746   3.617   7.303   7.176  0.5857  0.1945  1.4366
  128OSM    H8G13747   3.785   7.265   7.126 -0.5468  1.5025  1.9255
  128OSM    C9F13748   3.689   7.113   7.245 -0.0606 -1.0530  0.9158
  128OSM    H9F13749   3.645   7.025   7.196  1.1720 -1.0601 -0.2399
  128OSM   C10F13750   3.739   7.121   7.367 -0.1956  0.4912  0.7346
  128OSM   H10F13751   3.710   7.037   7.432 -3.1426  0.8040 -0.0570
  128OSM   C11F13752   3.788   7.248   7.432  0.2483  0.2727  0.2258
  128OSM   H11F13753   3.750   7.346   7.395  0.1351 -0.1497 -0.8075
  128OSM   H11G13754   3.899   7.250   7.430  0.4619 -3.2814  1.4798
  128OSM   C12F13755   3.756   7.256   7.576 -0.0218  0.4381 -0.2805
  128OSM   H12F13756   3.802   7.166   7.623 -0.9158 -0.6420 -1.3843
  128OSM   H12G13757   3.647   7.246   7.595  0.3968 -1.6306  1.4196
  128OSM   C13F13758   3.806   7.382   7.648 -0.3196  0.4699  0.1010
  128OSM   H13F13759   3.759   7.474   7.605  0.3297 -0.1948 -2.1548
  128OSM   H13G13760   3.917   7.383   7.645 -0.1058 -4.0387 -0.2310
  128OSM   C14F13761   3.778   7.373   7.803  0.3261  0.2265  0.5672
  128OSM   H14F13762   3.810   7.278   7.852 -0.2019 -0.4280 -0.3241
  128OSM   H14G13763   3.672   7.395   7.829  0.4110 -0.0299  1.1519
  128OSM   C15F13764   3.858   7.490   7.875  0.3724 -0.6940 -0.0327
  128OSM   H15F13765   3.967   7.475   7.859  0.3168 -1.1546  0.0139
  128OSM   H15G13766   3.853   7.467   7.984  0.7231 -1.6079 -0.1981
  128OSM   C16F13767   3.814   7.635   7.851  0.1110  0.1866 -0.4375
  128OSM   H16F13768   3.703   7.633   7.866 -0.0795  0.0910 -1.7760
  128OSM   H16G13769   3.836   7.677   7.750  0.5142 -0.9064 -0.8161
  128OSM   C17F13770   3.854   7.740   7.969 -0.1821 -0.0841  0.0871
  128OSM   H17F13771   3.836   7.844   7.936 -0.4336  0.7454  2.6217
  128OSM   H17G13772   3.964   7.722   7.974 -0.1453 -0.0594 -0.5753
  128OSM   C18F13773   3.803   7.700   8.102 -0.2191 -0.4943 -0.5394
  128OSM   H18F13774   3.846   7.603   8.135 -0.7895 -0.1086  1.4918
  128OSM   H18G13775   3.693   7.685   8.098  0.1196 -3.4239 -2.1385
  128OSM   H18H13776   3.818   7.773   8.184  1.6382 -0.6485 -0.6885
  129OSM      N13777   3.064   1.513   6.079 -0.1371  0.4901  0.0651
  129OSM    C1513778   2.946   1.599   6.046 -0.9146  0.0533  0.1046
  129OSM   H15A13779   2.987   1.696   6.026  2.7726 -1.4629 -0.4585
  129OSM   H15B13780   2.863   1.610   6.114 -0.0291 -0.0312  1.2104
  129OSM   H15C13781   2.908   1.571   5.948  2.4959  0.4080 -1.4539
  129OSM    C1413782   3.138   1.570   6.195  0.5773  0.1797  0.3306
  129OSM   H14A13783   3.176   1.670   6.183  1.7754 -0.5246 -2.5570
  129OSM   H14B13784   3.223   1.509   6.221  0.6897 -1.5222 -3.3792
  129OSM   H14C13785   3.070   1.575   6.279  0.3347  0.3875  0.1249
  129OSM    C1313786   3.008   1.379   6.126 -0.7321  0.5427 -0.1753
  129OSM   H13A13787   3.082   1.325   6.184 -2.2696  0.0281  1.3814
  129OSM   H13B13788   2.976   1.314   6.046 -1.8939 -0.4936  1.0891
  129OSM   H13C13789   2.923   1.404   6.187 -0.4880  2.0632 -0.4126
  129OSM    C1213790   3.162   1.477   5.972  0.1813 -0.4969  0.6561
  129OSM   H12A13791   3.110   1.463   5.878 -0.9625  0.3537  1.1380
  129OSM   H12B13792   3.205   1.380   5.990  0.9968 -0.7202 -1.9759
  129OSM    C1113793   3.284   1.576   5.941  1.0593 -0.0276  0.7381
  129OSM   H11A13794   3.246   1.680   5.944 -0.7570 -0.6185 -0.2997
  129OSM   H11B13795   3.334   1.563   5.843  1.3545 -1.1786  1.0179
  129OSM      P13796   3.483   1.443   6.046  0.0739 -0.0826 -0.0401
  129OSM    O1313797   3.442   1.339   5.948 -0.7740 -0.1216 -0.1452
  129OSM    O1413798   3.618   1.498   6.033  0.1742 -0.7385 -0.0219
  129OSM    O1113799   3.462   1.393   6.195 -0.2968 -0.6193  0.1968
  129OSM    O1213800   3.385   1.564   6.033  0.3408  0.2312 -0.0511
  129OSM    C1S13801   3.478   1.476   6.306 -0.9109 -0.3030  0.2355
  129OSM    H1S13802   3.421   1.572   6.298 -3.5869 -1.6368  1.7582
  129OSM    H1T13803   3.587   1.490   6.322 -1.0381  1.8540 -0.4864
  129OSM     NF13804   3.459   1.494   6.554 -0.0370  0.1410 -0.2834
  129OSM    HNF13805   3.551   1.491   6.593 -0.3092 -0.6135  0.3255
  129OSM    C2S13806   3.441   1.410   6.442  0.1257 -0.4228 -0.4269
  129OSM    H2S13807   3.334   1.381   6.438  0.3767 -1.6242  0.8343
  129OSM    C3S13808   3.509   1.267   6.452  0.2475 -0.3954  0.9231
  129OSM    H3S13809   3.618   1.291   6.449  0.6929 -2.2881 -0.4349
  129OSM     O313810   3.479   1.169   6.346  0.4048 -0.4598 -0.1819
  129OSM    HO313811   3.463   1.219   6.266  0.8515 -1.8214 -1.1575
  129OSM    C4S13812   3.474   1.207   6.586 -0.2265  0.0680 -0.1225
  129OSM    H4S13813   3.367   1.222   6.607 -0.1557  2.0982 -0.9913
  129OSM    C5S13814   3.566   1.148   6.668 -0.2502  0.6283  0.1030
  129OSM    H5S13815   3.668   1.137   6.628 -0.8040  0.2416 -1.2525
  129OSM    C6S13816   3.535   1.087   6.800  0.2497 -0.5438  0.1334
  129OSM    H6S13817   3.560   1.169   6.870 -1.1453 -0.5349  0.6656
  129OSM    H6T13818   3.601   1.001   6.824  0.8122  0.2354  1.5461
  129OSM    C7S13819   3.388   1.057   6.839  1.0043  0.6868  0.4321
  129OSM    H7S13820   3.355   0.966   6.785 -0.4720  0.2215  2.0358
  129OSM    H7T13821   3.333   1.147   6.804 -3.1769 -2.1916 -1.0923
  129OSM    C8S13822   3.377   1.035   6.987 -0.1573  0.2547 -0.3969
  129OSM    H8S13823   3.430   1.123   7.031 -0.5183  0.2352  0.0923
  129OSM    H8T13824   3.433   0.942   7.011 -0.8160  0.0160  0.2690
  129OSM    C9S13825   3.234   1.010   7.032  0.3519 -0.6934  0.1807
  129OSM    H9S13826   3.203   0.920   6.975  1.6275 -0.7702 -0.4327
  129OSM    H9T13827   3.181   1.103   7.004  1.7069 -0.5819 -2.2501
  129OSM   C10S13828   3.203   0.988   7.177 -0.0314 -0.2354 -0.4423
  129OSM   H10S13829   3.210   1.086   7.228 -0.2659 -0.9455  0.9869
  129OSM   H10T13830   3.283   0.931   7.228 -0.5743 -0.1959  0.4579
  129OSM   C11S13831   3.074   0.918   7.212  0.3771  0.3915  0.3116
  129OSM   H11S13832   3.040   0.841   7.139  0.5111  0.7302 -0.1125
  129OSM   H11T13833   2.988   0.986   7.198  1.3055  1.2102 -1.8988
  129OSM   C12S13834   3.080   0.846   7.353 -0.1439 -0.0439 -0.3237
  129OSM   H12S13835   3.173   0.790   7.379  2.0620  2.2619 -2.7406
  129OSM   H12T13836   3.003   0.766   7.359  0.7042 -0.8506  4.3979
  129OSM   C13S13837   3.043   0.937   7.473  0.0660 -0.5032  0.5772
  129OSM   H13S13838   2.941   0.977   7.454  1.0577  2.5071  0.9993
  129OSM   H13T13839   3.109   1.026   7.485 -1.4253  0.5392  1.4575
  129OSM   C14S13840   3.051   0.869   7.610 -0.5693  0.7496  0.1158
  129OSM   H14S13841   3.146   0.812   7.619 -1.0141 -0.1780 -0.7979
  129OSM   H14T13842   2.979   0.784   7.612 -0.1210  0.3523 -0.2652
  129OSM   C15S13843   3.021   0.960   7.732 -0.1515 -0.2108 -0.1015
  129OSM   H15S13844   2.948   1.037   7.701 -1.1935 -0.4857  1.5179
  129OSM   H15T13845   3.109   1.016   7.771 -0.8280  1.0894 -0.3991
  129OSM   C16S13846   2.964   0.883   7.855  1.1551  0.1005  0.1683
  129OSM   H16S13847   3.025   0.794   7.882  1.3410 -0.6104 -2.2659
  129OSM   H16T13848   2.866   0.843   7.819  0.8893  0.6821  0.2424
  129OSM   C17S13849   2.954   0.978   7.982 -0.0634  0.0666 -0.5050
  129OSM   H17S13850   2.870   1.050   7.988 -1.4364 -1.5632  0.5562
  129OSM   H17T13851   3.054   1.023   8.001 -0.3498  0.2080  0.7334
  129OSM   C18S13852   2.929   0.903   8.117  0.1053  0.2059  0.5738
  129OSM   H18S13853   2.933   0.977   8.201  0.9490 -0.0873  0.8025
  129OSM   H18T13854   3.007   0.826   8.137 -0.3079 -0.2075  0.5898
  129OSM   H18U13855   2.827   0.860   8.114  0.8873 -1.7064 -1.2654
  129OSM    C1F13856   3.383   1.606   6.568 -0.4089  0.4307  0.0402
  129OSM     OF13857   3.304   1.640   6.487  0.2007 -0.3324  1.3278
  129OSM    C2F13858   3.418   1.695   6.683 -0.2365  0.0819 -0.9784
  129OSM    H2F13859   3.508   1.758   6.667  0.8016  0.5632  4.7751
  129OSM    H2G13860   3.441   1.620   6.761  0.3714 -0.8088 -1.9827
  129OSM    C3F13861   3.290   1.779   6.720  0.1245  0.5323  0.0858
  129OSM    H3F13862   3.209   1.709   6.749 -0.4450  1.2235  0.1918
  129OSM    H3G13863   3.246   1.843   6.641 -2.0905 -1.0080 -0.0023
  129OSM    C4F13864   3.315   1.874   6.837 -0.6518  0.2916 -0.5169
  129OSM    H4F13865   3.222   1.934   6.843  0.1851  1.7509 -1.4051
  129OSM    H4G13866   3.396   1.944   6.809  3.3694 -2.5146  2.8049
  129OSM    C5F13867   3.343   1.801   6.972 -0.0553  0.6282  0.8249
  129OSM    H5F13868   3.446   1.761   6.962 -0.2393 -0.4554  2.7414
  129OSM    H5G13869   3.274   1.715   6.971  0.3973  0.2653  0.1693
  129OSM    C6F13870   3.336   1.891   7.093  0.6229  0.3610  0.3198
  129OSM    H6F13871   3.237   1.940   7.101  0.1211 -0.6653  0.5077
  129OSM    H6G13872   3.422   1.958   7.069  0.6968 -0.4464 -1.8534
  129OSM    C7F13873   3.363   1.828   7.231  0.7044  0.6229 -0.1154
  129OSM    H7F13874   3.462   1.778   7.230  0.5656  0.3424 -0.5404
  129OSM    H7G13875   3.278   1.762   7.260  0.1751  0.8759 -1.0298
  129OSM    C8F13876   3.372   1.934   7.346  0.2091  0.4081 -0.4315
  129OSM    H8F13877   3.275   1.989   7.350 -0.7248 -1.2563  1.4748
  129OSM    H8G13878   3.446   1.998   7.294 -0.3590 -1.8107 -4.3580
  129OSM    C9F13879   3.423   1.893   7.483  0.1792 -0.4727 -0.4819
  129OSM    H9F13880   3.531   1.895   7.506 -0.1566  1.5596  1.1890
  129OSM   C10F13881   3.351   1.858   7.591 -0.4034 -0.5169 -0.4323
  129OSM   H10F13882   3.414   1.820   7.674 -0.9056 -1.4164 -0.4458
  129OSM   C11F13883   3.202   1.842   7.600 -0.4446  0.0836  0.4026
  129OSM   H11F13884   3.184   1.738   7.636 -0.6660  0.2034  0.6392
  129OSM   H11G13885   3.170   1.851   7.494  1.7558 -0.2164 -0.3447
  129OSM   C12F13886   3.122   1.946   7.677 -0.8859 -0.2667 -0.0264
  129OSM   H12F13887   3.018   1.909   7.690 -1.4121  1.3964  0.8250
  129OSM   H12G13888   3.119   2.042   7.623 -0.4681 -0.2152  0.0413
  129OSM   C13F13889   3.171   1.982   7.815  0.2993  0.0856 -0.8489
  129OSM   H13F13890   3.128   2.080   7.845  2.0336  0.6000  0.1537
  129OSM   H13G13891   3.280   2.005   7.817  0.4870 -0.6873  2.2554
  129OSM   C14F13892   3.135   1.879   7.926  0.4269  0.3423  0.8995
  129OSM   H14F13893   3.025   1.872   7.915  0.7007  0.8497 -4.2529
  129OSM   H14G13894   3.157   1.937   8.018  0.8676 -1.7515  2.2059
  129OSM   C15F13895   3.217   1.751   7.934  0.1123  0.2565 -0.7961
  129OSM   H15F13896   3.315   1.765   7.883  0.7108  0.0252  0.2545
  129OSM   H15G13897   3.161   1.666   7.891  2.2227 -2.2244  1.0380
  129OSM   C16F13898   3.249   1.714   8.078 -0.3909 -0.0283 -0.0595
  129OSM   H16F13899   3.157   1.720   8.140 -1.3770 -0.9249 -1.3946
  129OSM   H16G13900   3.299   1.796   8.133  0.4273 -1.4900  1.4737
  129OSM   C17F13901   3.313   1.577   8.099 -0.3689  0.1316  0.2833
  129OSM   H17F13902   3.380   1.557   8.013 -0.4065 -2.2275  0.7427
  129OSM   H17G13903   3.232   1.500   8.107 -1.9407  1.6611 -0.2125
  129OSM   C18F13904   3.400   1.567   8.224  0.5311 -0.3171  0.1169
  129OSM   H18F13905   3.355   1.545   8.323  0.6404 -2.4738 -0.2680
  129OSM   H18G13906   3.473   1.651   8.236  0.8420 -0.7183  1.0965
  129OSM   H18H13907   3.467   1.482   8.203  1.4706  0.9518 -2.3933
  130OSM      N13908   4.311   6.143   5.852  0.3492  0.2486  0.3815
  130OSM    C1513909   4.293   6.009   5.785  0.1069 -0.1035  0.2398
  130OSM   H15A13910   4.194   5.987   5.748  0.9109 -2.6716 -0.5788
  130OSM   H15B13911   4.327   5.932   5.852 -2.9443 -1.5801  0.2478
  130OSM   H15C13912   4.355   6.005   5.697  0.6539  1.4545  0.5137
  130OSM    C1413913   4.462   6.154   5.869  0.7537  0.3991 -0.7511
  130OSM   H14A13914   4.494   6.164   5.766 -0.6621 -1.9396 -1.4899
  130OSM   H14B13915   4.510   6.071   5.919 -0.6762 -0.0795 -0.1262
  130OSM   H14C13916   4.481   6.247   5.922 -1.4053 -0.0629  0.9473
  130OSM    C1313917   4.248   6.247   5.765  0.6789  0.1535 -0.2395
  130OSM   H13A13918   4.312   6.268   5.681  0.6789  1.1440  0.0024
  130OSM   H13B13919   4.218   6.338   5.814 -0.4668 -0.1327 -0.3602
  130OSM   H13C13920   4.153   6.203   5.735  1.2071 -0.5701 -0.9062
  130OSM    C1213921   4.231   6.138   5.984 -0.2230  0.5881 -1.4517
  130OSM   H12A13922   4.125   6.150   5.966 -0.4320  0.1529 -0.5933
  130OSM   H12B13923   4.267   6.220   6.044  3.6491 -2.4655  0.9084
  130OSM    C1113924   4.245   6.018   6.088  0.8949 -0.0229 -0.2110
  130OSM   H11A13925   4.194   5.940   6.027  0.9495 -0.9580  0.9167
  130OSM   H11B13926   4.176   6.056   6.167  1.2451 -1.4305  0.8213
  130OSM      P13927   4.439   6.082   6.249  0.0714 -0.4274  0.6524
  130OSM    O1313928   4.583   6.039   6.261 -0.3921 -0.4478  0.8122
  130OSM    O1413929   4.420   6.230   6.219 -0.1046 -0.4036  0.2163
  130OSM    O1113930   4.350   6.042   6.371  0.0035  0.3294 -0.3575
  130OSM    O1213931   4.380   5.999   6.126 -0.0168 -0.4974 -0.7357
  130OSM    C1S13932   4.348   5.898   6.415 -0.2363 -0.2468 -0.5278
  130OSM    H1S13933   4.452   5.858   6.411 -0.1098 -0.3743  2.2489
  130OSM    H1T13934   4.293   5.829   6.347 -0.7263  1.0627 -1.5004
  130OSM     NF13935   4.362   5.758   6.615 -0.7292  0.7069  0.5828
  130OSM    HNF13936   4.301   5.680   6.621 -0.8546  0.7602 -0.0098
  130OSM    C2S13937   4.304   5.877   6.564 -0.0899  0.2952 -0.8241
  130OSM    H2S13938   4.344   5.958   6.629 -3.9212 -0.7320  3.3313
  130OSM    C3S13939   4.145   5.876   6.563  0.0351  0.3398 -0.8999
  130OSM    H3S13940   4.105   5.788   6.507 -0.1512 -0.9058  1.0892
  130OSM     O313941   4.091   5.992   6.492 -0.4364 -0.0480 -0.4992
  130OSM    HO313942   4.170   6.030   6.453 -0.5583  1.6257  0.7811
  130OSM    C4S13943   4.087   5.866   6.697  1.0647  0.4567 -0.2253
  130OSM    H4S13944   4.079   5.962   6.750 -0.4793  0.7606 -0.9454
  130OSM    C5S13945   4.064   5.752   6.766 -0.3927  0.1004 -0.7287
  130OSM    H5S13946   4.085   5.657   6.715  2.3661 -1.5494  2.9520
  130OSM    C6S13947   4.020   5.751   6.907 -0.7642 -0.4951  0.7588
  130OSM    H6S13948   4.069   5.670   6.965 -2.5356 -1.6465  0.7175
  130OSM    H6T13949   3.918   5.707   6.909 -0.9828  0.0257  1.5845
  130OSM    C7S13950   4.021   5.882   6.982 -0.0266 -0.1178 -0.5766
  130OSM    H7S13951   3.932   5.935   6.941 -1.0628 -0.0049  1.6931
  130OSM    H7T13952   4.119   5.924   6.954 -0.4187 -0.3497 -2.4442
  130OSM    C8S13953   3.997   5.861   7.129 -0.6017 -0.1066  0.7307
  130OSM    H8S13954   4.045   5.951   7.173 -1.9595  1.1196 -0.1930
  130OSM    H8T13955   4.054   5.773   7.165  1.0588 -0.1462 -1.7701
  130OSM    C9S13956   3.847   5.866   7.167 -0.3469 -0.0693  0.2922
  130OSM    H9S13957   3.784   5.797   7.106 -2.3658  2.8599 -1.1686
  130OSM    H9T13958   3.812   5.970   7.157 -2.2041 -0.7597 -0.8474
  130OSM   C10S13959   3.831   5.821   7.315 -0.2310 -0.9454 -0.5404
  130OSM   H10S13960   3.894   5.887   7.379 -2.2309 -2.1135  2.8728
  130OSM   H10T13961   3.862   5.716   7.330  0.8033 -0.6296 -0.4028
  130OSM   C11S13962   3.683   5.832   7.355 -0.6775  0.2486 -0.3416
  130OSM   H11S13963   3.594   5.811   7.292 -2.9658  2.9431  1.7308
  130OSM   H11T13964   3.656   5.940   7.360 -2.9577 -0.3126  0.7840
  130OSM   C12S13965   3.651   5.768   7.495  0.2061 -0.3486 -0.4550
  130OSM   H12S13966   3.730   5.694   7.522 -0.1969 -0.4908  0.3837
  130OSM   H12T13967   3.553   5.715   7.494 -0.3087  0.3312  2.5500
  130OSM   C13S13968   3.655   5.879   7.599  0.2627 -0.5728  0.1507
  130OSM   H13S13969   3.570   5.945   7.569 -0.6876 -2.1240 -0.7469
  130OSM   H13T13970   3.755   5.927   7.603  1.4957 -2.7323 -1.9988
  130OSM   C14S13971   3.639   5.815   7.737 -0.4885 -0.6048 -0.0741
  130OSM   H14S13972   3.725   5.748   7.760 -1.9653 -2.3359  0.7046
  130OSM   H14T13973   3.554   5.742   7.733 -0.6072 -0.4200 -1.3201
  130OSM   C15S13974   3.625   5.913   7.853 -0.2274  0.0801 -0.3879
  130OSM   H15S13975   3.702   5.993   7.848 -0.3748  0.1638 -1.8715
  130OSM   H15T13976   3.647   5.865   7.951 -0.9836  2.3968  0.9860
  130OSM   C16S13977   3.485   5.984   7.863 -0.5619  0.8643 -0.3324
  130OSM   H16S13978   3.407   5.909   7.886 -2.8779  3.3500  0.3271
  130OSM   H16T13979   3.464   6.029   7.763 -0.3239 -0.9890 -1.2671
  130OSM   C17S13980   3.481   6.097   7.969 -0.2856  0.0500 -0.5015
  130OSM   H17S13981   3.409   6.175   7.936 -0.9540  0.4174  1.6696
  130OSM   H17T13982   3.580   6.147   7.968 -0.4700  0.4721 -2.9610
  130OSM   C18S13983   3.441   6.061   8.108 -0.4671 -0.1619  0.0950
  130OSM   H18S13984   3.345   6.005   8.112 -1.6091  1.6198 -1.1030
  130OSM   H18T13985   3.438   6.155   8.167  1.8173  0.1604 -0.2062
  130OSM   H18U13986   3.521   5.996   8.151  1.2055  0.9284 -1.2218
  130OSM    C1F13987   4.493   5.743   6.638  0.2330  0.0784  0.3206
  130OSM     OF13988   4.578   5.831   6.619  0.6862 -0.1380 -0.1107
  130OSM    C2F13989   4.542   5.610   6.691  0.1894  0.3860 -0.0956
  130OSM    H2F13990   4.594   5.572   6.600  1.8339  1.0609  0.5131
  130OSM    H2G13991   4.456   5.552   6.730  0.6027 -0.6246 -0.6531
  130OSM    C3F13992   4.651   5.627   6.801  0.1991 -0.5974 -0.7150
  130OSM    H3F13993   4.743   5.672   6.758 -0.6846 -0.6123 -2.7374
  130OSM    H3G13994   4.683   5.528   6.840  1.4579  0.0936  0.0603
  130OSM    C4F13995   4.613   5.716   6.926 -0.1939 -0.4800  0.6366
  130OSM    H4F13996   4.565   5.808   6.887  1.1188 -0.1326 -0.1952
  130OSM    H4G13997   4.698   5.750   6.988  0.8429 -1.7690 -0.0203
  130OSM    C5F13998   4.522   5.639   7.029  1.0793  0.3334  0.0973
  130OSM    H5F13999   4.564   5.537   7.024 -2.7073 -1.3628 -3.3706
  130OSM    H5G14000   4.414   5.631   7.001  0.7153 -0.5777  1.6694
  130OSM    C6F14001   4.534   5.687   7.168 -0.5576 -0.6178  0.0702
  130OSM    H6F14002   4.475   5.781   7.163  0.0167 -0.0845  2.1757
  130OSM    H6G14003   4.635   5.723   7.199  0.2904 -2.6121 -0.2092
  130OSM    C7F14004   4.476   5.588   7.269 -0.4684  0.7879 -0.1617
  130OSM    H7F14005   4.522   5.487   7.264  0.8421  1.3501  0.0170
  130OSM    H7G14006   4.370   5.578   7.239  0.1783 -0.8153 -2.1285
  130OSM    C8F14007   4.478   5.646   7.411 -0.3415 -0.2798 -0.3833
  130OSM    H8F14008   4.440   5.750   7.400 -1.3585 -0.7847 -2.0737
  130OSM    H8G14009   4.583   5.647   7.447 -0.5176  1.0331  0.1369
  130OSM    C9F14010   4.381   5.569   7.494 -0.2868 -0.2912 -0.5280
  130OSM    H9F14011   4.421   5.480   7.545  0.2008  1.1226  1.7379
  130OSM   C10F14012   4.254   5.608   7.526  0.0901 -0.2545  0.4172
  130OSM   H10F14013   4.197   5.530   7.578 -0.2982 -1.5046 -1.7448
  130OSM   C11F14014   4.181   5.735   7.494  0.3331 -0.5174  0.8924
  130OSM   H11F14015   4.071   5.718   7.491  0.4729 -1.4385  0.7744
  130OSM   H11G14016   4.202   5.783   7.396  1.4083 -1.9301  0.4019
  130OSM   C12F14017   4.193   5.852   7.593  0.0652  0.2147  0.5721
  130OSM   H12F14018   4.135   5.939   7.555  2.0183  1.2122 -0.2625
  130OSM   H12G14019   4.296   5.890   7.605  0.6036 -0.3722 -1.7782
  130OSM   C13F14020   4.136   5.824   7.725  0.1260 -0.1780  0.0369
  130OSM   H13F14021   4.218   5.779   7.786  1.1415  1.0239 -0.4120
  130OSM   H13G14022   4.051   5.752   7.735  0.4653 -0.3421  2.7268
  130OSM   C14F14023   4.083   5.954   7.801 -0.2689 -0.0771  0.4314
  130OSM   H14F14024   4.011   6.010   7.738  1.4512  1.6031 -0.1599
  130OSM   H14G14025   4.173   6.020   7.810  0.2917 -0.8676  0.7785
  130OSM   C15F14026   4.011   5.932   7.938  0.0598 -0.0189  0.3718
  130OSM   H15F14027   4.085   5.888   8.008 -1.1262 -1.3242  0.8403
  130OSM   H15G14028   3.926   5.863   7.921  0.7148 -0.2761 -2.3620
  130OSM   C16F14029   3.962   6.063   7.996  0.7109 -0.2205  0.2889
  130OSM   H16F14030   3.876   6.050   8.065 -0.3600  2.2996 -0.4563
  130OSM   H16G14031   3.928   6.108   7.901 -0.1744 -2.4380 -0.5058
  130OSM   C17F14032   4.076   6.154   8.050  0.5916  0.6158 -0.6179
  130OSM   H17F14033   4.024   6.238   8.102  2.0640  0.3800  1.3329
  130OSM   H17G14034   4.149   6.193   7.976  0.6386  0.6937 -0.5314
  130OSM   C18F14035   4.158   6.085   8.160 -0.0468 -0.1944 -0.1130
  130OSM   H18F14036   4.096   6.038   8.240 -1.1770  0.6557 -0.4661
  130OSM   H18G14037   4.220   6.167   8.203 -0.1273 -0.3002  0.2138
  130OSM   H18H14038   4.226   6.014   8.109 -0.4843  0.9252 -2.3871
  131OSM      N14039   4.484   5.366   6.068  0.6680  0.0462 -0.0074
  131OSM    C1514040   4.370   5.467   6.092 -0.1999 -0.8963 -0.2611
  131OSM   H15A14041   4.274   5.423   6.112 -1.8010  2.8096  1.1805
  131OSM   H15B14042   4.356   5.527   6.003 -2.7506 -3.3795 -1.6577
  131OSM   H15C14043   4.403   5.525   6.177  0.6957 -0.4126 -0.9200
  131OSM    C1414044   4.481   5.303   5.932 -0.4044 -0.0965  0.1938
  131OSM   H14A14045   4.569   5.243   5.914 -1.1031 -0.9595 -0.4779
  131OSM   H14B14046   4.492   5.381   5.858  0.4021 -0.2316  0.1644
  131OSM   H14C14047   4.395   5.240   5.915 -0.2967 -0.1657 -0.1138
  131OSM    C1314048   4.606   5.455   6.074  0.0679 -0.1115  0.2360
  131OSM   H13A14049   4.633   5.484   6.174  0.5967 -1.5066  0.5279
  131OSM   H13B14050   4.586   5.539   6.009  0.7681 -0.3294 -0.2752
  131OSM   H13C14051   4.688   5.396   6.036 -1.2607 -0.5605 -2.1607
  131OSM    C1214052   4.483   5.272   6.186 -0.4149 -0.2976  0.2492
  131OSM   H12A14053   4.395   5.210   6.175 -0.9360  0.3731  0.5331
  131OSM   H12B14054   4.473   5.322   6.281 -0.0806 -0.4601  0.3707
  131OSM    C1114055   4.607   5.175   6.191  0.0945  0.1891  0.0451
  131OSM   H11A14056   4.615   5.113   6.099 -1.6507 -0.1184  0.0635
  131OSM   H11B14057   4.590   5.093   6.265  1.0096 -1.2089 -1.2397
  131OSM      P14058   4.770   5.308   6.357  0.2122 -0.2099 -0.4739
  131OSM    O1314059   4.921   5.329   6.355  0.5034 -0.9479 -0.2664
  131OSM    O1414060   4.681   5.423   6.383  0.1111  0.2203 -0.4378
  131OSM    O1114061   4.738   5.206   6.463 -0.8267  0.1422  0.5587
  131OSM    O1214062   4.729   5.247   6.222  0.2254 -0.3044 -0.1127
  131OSM    C1S14063   4.614   5.182   6.535 -0.0799 -0.7479  1.1893
  131OSM    H1S14064   4.545   5.120   6.474 -0.5816  0.2206  0.7307
  131OSM    H1T14065   4.557   5.272   6.568  0.6524 -0.2080  1.0178
  131OSM     NF14066   4.510   5.069   6.722 -0.3350  0.1044  0.7222
  131OSM    HNF14067   4.469   5.133   6.786 -0.1957  1.9791 -0.9632
  131OSM    C2S14068   4.636   5.104   6.662 -0.2642  0.4571  0.1808
  131OSM    H2S14069   4.697   5.012   6.646  2.0691  1.6693  1.5834
  131OSM    C3S14070   4.726   5.188   6.759  0.1989  0.3141 -0.1060
  131OSM    H3S14071   4.677   5.287   6.757  0.9695  0.7378 -3.3163
  131OSM     O314072   4.861   5.199   6.720 -0.7406  0.1205  0.3189
  131OSM    HO314073   4.861   5.139   6.646 -0.3655  1.0090 -0.4219
  131OSM    C4S14074   4.720   5.127   6.898 -0.4740  0.7415 -0.0600
  131OSM    H4S14075   4.742   5.020   6.905  2.5572  1.2006 -0.9982
  131OSM    C5S14076   4.679   5.201   7.005 -0.1164  0.8183 -0.4087
  131OSM    H5S14077   4.668   5.310   6.995  1.9818  1.4806  2.9047
  131OSM    C6S14078   4.662   5.148   7.148 -0.5673 -1.1236 -0.6061
  131OSM    H6S14079   4.701   5.046   7.170  1.8915 -0.9465 -3.5984
  131OSM    H6T14080   4.552   5.147   7.164 -1.4944 -0.1364 -5.3862
  131OSM    C7S14081   4.726   5.247   7.248  0.2111 -0.3236 -0.2113
  131OSM    H7S14082   4.692   5.348   7.218  2.1626  0.4270 -0.0038
  131OSM    H7T14083   4.837   5.237   7.246  0.3648  1.1188 -0.0536
  131OSM    C8S14084   4.673   5.214   7.387  0.1995  0.4632 -0.5148
  131OSM    H8S14085   4.717   5.118   7.420 -0.3891  0.4561  0.3068
  131OSM    H8T14086   4.562   5.216   7.391  0.1346 -1.8534  0.3513
  131OSM    C9S14087   4.727   5.303   7.496  0.3518  0.2736  0.5710
  131OSM    H9S14088   4.697   5.406   7.465  0.2525  0.0718 -0.0090
  131OSM    H9T14089   4.838   5.305   7.493  0.3400 -0.2109 -0.8765
  131OSM   C10S14090   4.673   5.276   7.636  0.0842  0.5243  0.5647
  131OSM   H10S14091   4.687   5.172   7.672 -0.5334  0.7694  1.5460
  131OSM   H10T14092   4.564   5.296   7.638 -0.5569 -2.4636  0.3014
  131OSM   C11S14093   4.757   5.355   7.729  0.1878  0.4966 -0.3517
  131OSM   H11S14094   4.763   5.459   7.692  1.5645  0.7746  0.5928
  131OSM   H11T14095   4.859   5.312   7.736  0.2392  0.7547  0.7129
  131OSM   C12S14096   4.691   5.355   7.868 -0.0055  0.6806 -0.5010
  131OSM   H12S14097   4.661   5.254   7.905  2.1538  0.4657  0.8479
  131OSM   H12T14098   4.599   5.416   7.867 -0.2677  0.2792 -1.3155
  131OSM   C13S14099   4.773   5.417   7.989  0.0379 -0.1651  0.4033
  131OSM   H13S14100   4.874   5.370   7.990  0.1769  0.1281  0.1069
  131OSM   H13T14101   4.727   5.378   8.083 -0.7745  1.6918  0.8154
  131OSM   C14S14102   4.773   5.566   7.976  0.8683  0.2068  0.3474
  131OSM   H14S14103   4.665   5.590   7.988  0.4377 -1.0583 -0.8151
  131OSM   H14T14104   4.805   5.614   7.881 -0.2139  1.0588  0.3816
  131OSM   C15S14105   4.843   5.646   8.089  0.0820  0.3271 -0.3272
  131OSM   H15S14106   4.865   5.748   8.052 -2.1214  1.9943  2.5451
  131OSM   H15T14107   4.936   5.585   8.102  0.0817  0.1917 -0.9225
  131OSM   C16S14108   4.776   5.659   8.222  0.3414 -0.1105 -0.6560
  131OSM   H16S14109   4.739   5.556   8.236 -0.7338  0.0865 -1.8581
  131OSM   H16T14110   4.685   5.723   8.231  1.1212  0.8932  0.4772
  131OSM   C17S14111   4.874   5.694   8.342 -0.2076 -0.0391  0.1340
  131OSM   H17S14112   4.805   5.710   8.427  1.9658  1.2178  1.7768
  131OSM   H17T14113   4.924   5.791   8.319 -1.6899  0.8597  0.5616
  131OSM   C18S14114   4.965   5.572   8.369 -0.2092 -0.4037 -0.2991
  131OSM   H18S14115   4.901   5.481   8.369 -2.6980  1.2370 -1.1955
  131OSM   H18T14116   5.021   5.581   8.465 -3.3453  1.1236  1.5881
  131OSM   H18U14117   5.037   5.563   8.286 -0.2579  0.6979 -0.4762
  131OSM    C1F14118   4.422   4.974   6.670  0.4665 -0.4385 -0.6093
  131OSM     OF14119   4.453   4.909   6.571 -0.2062 -0.3327  0.0695
  131OSM    C2F14120   4.284   4.959   6.723  0.5064 -0.1125 -0.5696
  131OSM    H2F14121   4.236   4.881   6.660  1.0646 -1.7278  0.9264
  131OSM    H2G14122   4.220   5.049   6.715 -1.8358 -1.6055  0.2244
  131OSM    C3F14123   4.270   4.928   6.879 -0.1364 -0.2323  0.1324
  131OSM    H3F14124   4.166   4.932   6.916 -0.0936  3.7435  0.2569
  131OSM    H3G14125   4.325   5.015   6.922  0.7200 -0.1865 -0.9955
  131OSM    C4F14126   4.336   4.802   6.907  0.0506  0.7431 -0.4234
  131OSM    H4F14127   4.445   4.821   6.909  0.5392 -1.7245 -0.3372
  131OSM    H4G14128   4.305   4.727   6.832 -0.1089  0.9780 -0.5929
  131OSM    C5F14129   4.287   4.738   7.040  0.5985  0.5051  0.1141
  131OSM    H5F14130   4.334   4.637   7.043 -0.5856 -0.1049 -0.8436
  131OSM    H5G14131   4.177   4.724   7.040  0.8916 -2.2979  0.3760
  131OSM    C6F14132   4.352   4.801   7.160  0.2369  0.0611 -0.0894
  131OSM    H6F14133   4.372   4.906   7.131 -2.0991  0.7688  0.7132
  131OSM    H6G14134   4.447   4.754   7.193  0.1850 -0.3572 -0.5206
  131OSM    C7F14135   4.267   4.801   7.288 -0.0132 -0.2772 -0.2325
  131OSM    H7F14136   4.223   4.702   7.311  0.4945 -0.6509 -0.8159
  131OSM    H7G14137   4.178   4.861   7.260  0.7726  0.6245 -0.8931
  131OSM    C8F14138   4.333   4.851   7.417 -0.1388  0.2100  0.0309
  131OSM    H8F14139   4.350   4.958   7.391  0.5163  0.0271 -0.3019
  131OSM    H8G14140   4.434   4.811   7.435 -0.2446  0.0986  0.3714
  131OSM    C9F14141   4.243   4.832   7.536 -0.3507  0.5808 -0.1605
  131OSM    H9F14142   4.244   4.729   7.577  0.9978 -0.1552 -1.8853
  131OSM   C10F14143   4.177   4.926   7.610  0.4373  0.4163  0.4760
  131OSM   H10F14144   4.113   4.901   7.696 -1.9398 -0.2904 -1.3526
  131OSM   C11F14145   4.164   5.069   7.569  0.4033 -0.1603 -0.5825
  131OSM   H11F14146   4.056   5.094   7.569  0.3423 -0.3275  1.1188
  131OSM   H11G14147   4.197   5.087   7.464 -0.2104 -0.5552 -0.8439
  131OSM   C12F14148   4.240   5.152   7.666 -1.0268 -0.1545 -0.4115
  131OSM   H12F14149   4.242   5.253   7.620  0.4643  0.0517  0.0534
  131OSM   H12G14150   4.347   5.123   7.669 -0.2145  2.5145 -1.4592
  131OSM   C13F14151   4.178   5.159   7.808 -0.7119  0.3501 -0.1792
  131OSM   H13F14152   4.261   5.122   7.872  0.1232 -0.9812 -1.9553
  131OSM   H13G14153   4.084   5.101   7.813 -2.3117  2.6377 -1.7276
  131OSM   C14F14154   4.136   5.296   7.856 -0.1838  0.1599  0.4151
  131OSM   H14F14155   4.071   5.294   7.946 -2.4013 -1.7324 -1.1065
  131OSM   H14G14156   4.066   5.335   7.779 -1.0607 -1.0714  0.5517
  131OSM   C15F14157   4.248   5.394   7.883  0.2815  0.6281 -0.6382
  131OSM   H15F14158   4.302   5.416   7.788  2.0898 -1.5157 -0.1922
  131OSM   H15G14159   4.326   5.333   7.933  0.8408  0.7079 -1.3843
  131OSM   C16F14160   4.221   5.525   7.962  0.3740 -0.1067  0.0945
  131OSM   H16F14161   4.178   5.489   8.059 -2.6742  1.0775 -0.7025
  131OSM   H16G14162   4.143   5.579   7.904  0.0425  1.2038  1.6938
  131OSM   C17F14163   4.348   5.606   7.983  0.3349  0.2579  0.0854
  131OSM   H17F14164   4.391   5.631   7.884  0.6213 -0.0010  0.1440
  131OSM   H17G14165   4.421   5.544   8.039 -1.0452 -2.7115 -1.2275
  131OSM   C18F14166   4.318   5.732   8.062 -0.3006  0.2671 -0.0005
  131OSM   H18F14167   4.217   5.729   8.109 -0.5749  1.0122 -0.5292
  131OSM   H18G14168   4.334   5.825   8.003 -2.1522  0.0105 -0.9750
  131OSM   H18H14169   4.380   5.744   8.154  0.8298  0.9218 -0.8274
  132OSM      N14170   4.786   0.800   6.028  0.0210  0.0717  0.3936
  132OSM    C1514171   4.644   0.851   6.019  0.0243 -0.0817  0.5255
  132OSM   H15A14172   4.606   0.827   5.921  1.4375 -0.3732  0.0237
  132OSM   H15B14173   4.630   0.956   6.039 -1.1280 -0.0034 -0.6166
  132OSM   H15C14174   4.587   0.796   6.092  1.2315 -0.0894  1.5039
  132OSM    C1414175   4.788   0.654   5.981 -0.2162 -0.2735  0.7811
  132OSM   H14A14176   4.883   0.605   5.997  0.0372 -0.3751 -0.8885
  132OSM   H14B14177   4.776   0.644   5.874 -1.1233  1.5025  0.6642
  132OSM   H14C14178   4.708   0.593   6.020 -0.2252 -1.9619 -1.6403
  132OSM    C1314179   4.872   0.872   5.935  0.2720  0.0110 -0.1742
  132OSM   H13A14180   4.972   0.831   5.942  0.0834 -0.4240  0.0050
  132OSM   H13B14181   4.874   0.975   5.970 -2.6613 -0.6096  2.2140
  132OSM   H13C14182   4.848   0.869   5.830  0.8978  1.8532 -0.4139
  132OSM    C1214183   4.832   0.813   6.172  0.1557  0.2873  0.7680
  132OSM   H12A14184   4.755   0.796   6.247  0.9431 -0.0220  1.5175
  132OSM   H12B14185   4.853   0.918   6.181  0.4970  0.6243 -2.5680
  132OSM    C1114186   4.961   0.728   6.210  0.0788  0.7691 -0.4927
  132OSM   H11A14187   4.952   0.623   6.175  2.5301  0.8062 -1.4463
  132OSM   H11B14188   4.957   0.730   6.321  1.2883 -1.0808 -0.3762
  132OSM      P14189   5.168   0.883   6.236  0.2038 -0.1394  0.0337
  132OSM    O1314190   5.296   0.824   6.287  0.7049 -0.4152 -0.0587
  132OSM    O1414191   5.182   1.000   6.149  0.0746 -0.3833 -0.6221
  132OSM    O1114192   5.085   0.931   6.365 -0.3130 -0.9337 -0.0536
  132OSM    O1214193   5.084   0.776   6.160 -0.0553  0.4968 -0.1771
  132OSM    C1S14194   5.117   0.880   6.490 -0.3273 -0.5897  0.3095
  132OSM    H1S14195   5.220   0.913   6.514 -1.2077  2.6718  0.1099
  132OSM    H1T14196   5.108   0.769   6.490 -0.4165 -0.5898 -0.7694
  132OSM     NF14197   5.079   0.883   6.725  0.4180  0.2572  0.1460
  132OSM    HNF14198   5.031   0.815   6.779  2.0300  0.5874  2.0937
  132OSM    C2S14199   5.021   0.926   6.600  0.1483 -0.1005  0.3870
  132OSM    H2S14200   5.007   1.036   6.591 -1.5921 -0.2653  0.6844
  132OSM    C3S14201   4.881   0.868   6.570 -0.0869  0.0886  0.1630
  132OSM    H3S14202   4.895   0.760   6.545 -1.9008  0.0016 -0.6611
  132OSM     O314203   4.815   0.921   6.459  0.0061 -0.2134 -0.0248
  132OSM    HO314204   4.874   0.985   6.419 -1.3584  0.0013 -1.8160
  132OSM    C4S14205   4.789   0.889   6.691 -0.2164 -0.5439  0.4945
  132OSM    H4S14206   4.759   0.994   6.701 -0.2178 -0.6785  2.3542
  132OSM    C5S14207   4.737   0.797   6.776  0.6671 -0.0654 -0.2125
  132OSM    H5S14208   4.754   0.692   6.746 -2.7030 -0.9545  0.5198
  132OSM    C6S14209   4.639   0.829   6.887 -0.4680  0.5163  0.5867
  132OSM    H6S14210   4.616   0.937   6.898 -1.3151  0.4712 -0.4599
  132OSM    H6T14211   4.697   0.797   6.976  1.3335  0.9301 -0.4029
  132OSM    C7S14212   4.505   0.755   6.874  0.4940  0.2788  0.5280
  132OSM    H7S14213   4.506   0.645   6.889 -1.5542  0.3242  1.3064
  132OSM    H7T14214   4.453   0.769   6.777  1.3600  0.3679  0.0715
  132OSM    C8S14215   4.420   0.804   6.987 -0.0211  0.1079 -0.6485
  132OSM    H8S14216   4.414   0.914   6.999  1.0652  0.0320  0.8037
  132OSM    H8T14217   4.474   0.784   7.082  0.4215  3.8859  0.0626
  132OSM    C9S14218   4.285   0.727   6.989 -0.8049  1.0807 -0.1195
  132OSM    H9S14219   4.296   0.616   6.992 -1.0560  1.0484 -0.4161
  132OSM    H9T14220   4.253   0.748   6.885  1.6932  0.1165 -1.1634
  132OSM   C10S14221   4.173   0.766   7.083  0.7188 -0.0166 -0.1513
  132OSM   H10S14222   4.069   0.741   7.053  0.5609 -0.9753  1.1444
  132OSM   H10T14223   4.179   0.875   7.104 -1.8706 -0.2008  1.9152
  132OSM   C11S14224   4.190   0.707   7.224 -0.2142 -0.4012 -0.7773
  132OSM   H11S14225   4.284   0.731   7.279 -1.4088  2.7672  0.1013
  132OSM   H11T14226   4.191   0.597   7.214 -0.9307 -0.4492 -0.3897
  132OSM   C12S14227   4.080   0.757   7.329  0.5039  0.1874  0.3954
  132OSM   H12S14228   3.987   0.707   7.293  0.5370 -1.6881  2.6395
  132OSM   H12T14229   4.078   0.868   7.321 -2.4280  0.2194  0.3423
  132OSM   C13S14230   4.108   0.724   7.468  0.7708  0.6738  0.7712
  132OSM   H13S14231   4.120   0.614   7.476 -1.9661  0.2213 -0.2304
  132OSM   H13T14232   4.013   0.737   7.524  0.5862  0.1728  0.5826
  132OSM   C14S14233   4.221   0.813   7.535  0.3843  0.1358  0.6974
  132OSM   H14S14234   4.193   0.920   7.522  0.0227 -0.0561 -0.2012
  132OSM   H14T14235   4.321   0.809   7.485 -0.3722 -0.3822 -0.8403
  132OSM   C15S14236   4.228   0.794   7.686  0.7983  0.6629  0.0672
  132OSM   H15S14237   4.268   0.691   7.703  2.2619  1.1563 -0.2296
  132OSM   H15T14238   4.122   0.791   7.719  0.8034 -1.6479  0.0598
  132OSM   C16S14239   4.311   0.901   7.758  0.5328 -0.0922  0.8771
  132OSM   H16S14240   4.286   0.996   7.706  1.9454 -1.0478 -1.7675
  132OSM   H16T14241   4.418   0.878   7.735 -0.0142 -2.9709  0.8204
  132OSM   C17S14242   4.278   0.917   7.910 -0.3693  0.4868 -1.1651
  132OSM   H17S14243   4.178   0.964   7.919 -0.5093 -0.1227  1.7405
  132OSM   H17T14244   4.349   0.980   7.967 -2.5240 -0.2720  2.7403
  132OSM   C18S14245   4.275   0.783   7.998 -0.4118  0.1807  0.1627
  132OSM   H18S14246   4.242   0.801   8.102 -0.2790 -1.3307  0.4954
  132OSM   H18T14247   4.380   0.748   7.991 -0.1811  0.4462  1.8935
  132OSM   H18U14248   4.202   0.710   7.956  1.2437 -0.8567 -1.0412
  132OSM    C1F14249   5.192   0.933   6.782  0.2613  0.5980  0.0625
  132OSM     OF14250   5.274   0.987   6.720  0.1134 -0.1887  0.3709
  132OSM    C2F14251   5.205   0.909   6.933 -0.0344  0.2641  0.6727
  132OSM    H2F14252   5.147   0.986   6.987  0.4766 -0.6092  2.5703
  132OSM    H2G14253   5.312   0.930   6.956 -0.2335  1.1470  0.8072
  132OSM    C3F14254   5.159   0.764   6.967  0.6250 -0.2232  0.1041
  132OSM    H3F14255   5.208   0.688   6.903  0.3242 -2.1499  2.0367
  132OSM    H3G14256   5.049   0.753   6.961  0.3894  2.1485 -0.8413
  132OSM    C4F14257   5.192   0.722   7.112  0.1704 -0.0834 -0.2277
  132OSM    H4F14258   5.184   0.805   7.185  3.2066  1.4536 -1.4583
  132OSM    H4G14259   5.301   0.703   7.125  0.2968 -0.3441 -1.5362
  132OSM    C5F14260   5.124   0.594   7.161  0.7038  0.1353  0.4635
  132OSM    H5F14261   5.178   0.557   7.251  2.3212  1.5969  0.1606
  132OSM    H5G14262   5.131   0.513   7.085  0.3654  0.9378 -0.4412
  132OSM    C6F14263   4.973   0.622   7.198 -0.4246 -0.6598 -0.2225
  132OSM    H6F14264   4.920   0.531   7.234 -4.0880  0.1450 -2.9095
  132OSM    H6G14265   4.918   0.647   7.105  2.8766 -0.8086 -2.3652
  132OSM    C7F14266   4.955   0.750   7.296  0.1641 -0.0640  0.0255
  132OSM    H7F14267   4.849   0.781   7.307  0.0140 -1.0736  1.9511
  132OSM    H7G14268   4.998   0.841   7.251  0.7156 -0.5304 -0.4077
  132OSM    C8F14269   5.006   0.725   7.443  0.0938  0.4725  0.0383
  132OSM    H8F14270   5.020   0.825   7.490  0.0911  0.2655  0.4820
  132OSM    H8G14271   5.109   0.686   7.431 -0.4777 -1.0070 -0.2603
  132OSM    C9F14272   4.933   0.629   7.532 -0.0791 -0.7826 -0.4865
  132OSM    H9F14273   4.827   0.614   7.505  0.0989 -0.1879 -1.5565
  132OSM   C10F14274   4.980   0.560   7.637  0.2976 -0.2141 -0.8342
  132OSM   H10F14275   4.909   0.509   7.704 -0.9108 -0.2299 -2.0832
  132OSM   C11F14276   5.130   0.560   7.679 -0.6704 -0.8006  0.1536
  132OSM   H11F14277   5.165   0.666   7.677 -0.3644 -0.9112 -0.3751
  132OSM   H11G14278   5.184   0.491   7.611 -1.1619 -0.7900 -0.2562
  132OSM   C12F14279   5.147   0.498   7.816  0.5239  0.2936  0.3884
  132OSM   H12F14280   5.252   0.515   7.846  1.1877  0.7316 -1.9472
  132OSM   H12G14281   5.139   0.387   7.816 -0.0602  0.3254  0.1616
  132OSM   C13F14282   5.061   0.553   7.933  0.1708  0.2176 -1.0674
  132OSM   H13F14283   4.956   0.545   7.898  0.1015 -1.3523 -0.5961
  132OSM   H13G14284   5.079   0.662   7.934  0.0832  0.2254 -0.4045
  132OSM   C14F14285   5.103   0.511   8.074  0.0297 -0.6129  0.1328
  132OSM   H14F14286   5.043   0.568   8.148 -0.8127  2.0574 -2.4256
  132OSM   H14G14287   5.208   0.540   8.092 -0.6845  2.1894  0.2534
  132OSM   C15F14288   5.091   0.354   8.099  0.6249 -0.1742  0.4056
  132OSM   H15F14289   5.142   0.349   8.198  0.1834  0.7859  0.6976
  132OSM   H15G14290   5.156   0.303   8.025 -0.5434  1.1952 -1.6308
  132OSM   C16F14291   4.950   0.300   8.127  0.2799  0.2935 -0.7211
  132OSM   H16F14292   4.909   0.276   8.027  1.5109 -3.1435 -0.5617
  132OSM   H16G14293   4.895   0.380   8.182  2.2951  0.8023  0.6398
  132OSM   C17F14294   4.944   0.175   8.215 -0.6541  0.7126  0.3780
  132OSM   H17F14295   4.990   0.092   8.158  1.8941  1.7170  0.8460
  132OSM   H17G14296   4.838   0.143   8.230 -0.9131 -0.9736 -3.6694
  132OSM   C18F14297   5.016   0.184   8.351  0.6467  0.2439 -0.2215
  132OSM   H18F14298   5.124   0.212   8.347  0.2196  1.8825 -1.2979
  132OSM   H18G14299   5.015   0.089   8.408  1.7145  0.2814 -0.1070
  132OSM   H18H14300   4.974   0.266   8.414  0.3030  0.9521 -1.3342
  133SAPE     N14301   1.073   5.853  10.641  0.0370 -0.0523  0.1368
  133SAPE   HN114302   1.125   5.915  10.706  2.0755 -0.6546 -0.8479
  133SAPE   HN214303   1.069   5.903  10.550  2.9753  2.4148  1.2099
  133SAPE   HN314304   0.977   5.860  10.679  0.3563  1.1364  0.7697
  133SAPE   C1214305   1.127   5.718  10.631  0.0738  0.1474 -0.2134
  133SAPE  H12A14306   1.115   5.669  10.730 -2.5145  1.9384  0.4545
  133SAPE  H12B14307   1.232   5.739  10.603  0.2777 -0.4356  0.0875
  133SAPE   C1114308   1.058   5.649  10.517  0.0548 -0.2639  0.2770
  133SAPE  H11A14309   1.106   5.551  10.493  2.1986  1.2053 -2.0185
  133SAPE  H11B14310   1.077   5.706  10.423 -0.0113  0.7074  0.8425
  133SAPE     P14311   0.864   5.505  10.616  0.1420 -0.3750 -0.1754
  133SAPE   O1314312   0.929   5.507  10.751 -0.5466 -0.5658  0.3659
  133SAPE   O1414313   0.713   5.508  10.617  0.6209  0.1266  0.2022
  133SAPE   O1214314   0.920   5.630  10.534  0.5684  0.3512  0.0496
  133SAPE   O1114315   0.926   5.387  10.531 -0.1038 -0.0721  0.7894
  133SAPE    C114316   0.855   5.268  10.510  0.4031 -0.2121  0.5279
  133SAPE    HA14317   0.847   5.216  10.608  1.7857  2.3462  2.1292
  133SAPE    HB14318   0.749   5.290  10.486  0.4274 -1.0771 -0.4236
  133SAPE    C214319   0.908   5.180  10.399 -0.2839 -0.0692 -0.6298
  133SAPE    HS14320   0.999   5.131  10.441 -0.9983 -0.5205  0.4465
  133SAPE   O2114321   0.931   5.259  10.278  0.2278 -0.2310 -0.0519
  133SAPE   C2114322   1.060   5.289  10.250  0.5092  0.3928 -0.4525
  133SAPE   O2214323   1.158   5.250  10.305 -0.3551 -1.0620 -0.2392
  133SAPE   C2214324   1.052   5.379  10.125  0.2555 -0.4035 -0.2040
  133SAPE   H2R14325   1.012   5.310  10.048 -1.0753  0.7347 -0.5701
  133SAPE   H2S14326   0.987   5.469  10.134  1.4347  0.6632 -1.7735
  133SAPE    C314327   0.816   5.061  10.382 -0.3734  0.0128  1.1181
  133SAPE    HX14328   0.709   5.069  10.413 -1.0324 -1.1680 -0.6438
  133SAPE    HY14329   0.857   4.986  10.452  2.6698  2.0988  1.7550
  133SAPE   O3114330   0.839   5.002  10.251  0.3956 -1.0757 -0.1261
  133SAPE   C3114331   0.754   5.047  10.160 -0.2964  0.0755 -0.2356
  133SAPE   O3214332   0.662   5.119  10.175 -0.5546 -0.1321 -0.1040
  133SAPE   C3214333   0.789   4.992  10.027  0.5416  0.0690  0.0609
  133SAPE   H2X14334   0.746   4.890  10.031  1.0723 -0.2351 -1.2539
  133SAPE   H2Y14335   0.900   4.996  10.017  0.9786 -1.5805  2.9687
  133SAPE   C2314336   1.194   5.428  10.087  0.7598  0.4492 -0.1693
  133SAPE   H3R14337   1.251   5.442  10.182 -0.3738 -1.8100  0.9318
  133SAPE   H3S14338   1.194   5.525  10.032  2.9187  0.6761  0.1387
  133SAPE   C2414339   1.274   5.320  10.002  0.2489 -0.0365 -0.3195
  133SAPE   H4R14340   1.272   5.223  10.056  1.1611  1.1239  1.9157
  133SAPE   H4S14341   1.381   5.349  10.011  0.7263 -1.8903  0.5811
  133SAPE   C2514342   1.213   5.318   9.861  0.8459 -0.1533 -0.2893
  133SAPE   H5R14343   1.108   5.285   9.858  0.3232  1.1037  1.9158
  133SAPE   C2614344   1.277   5.352   9.746  0.4751  1.0745  0.0606
  133SAPE   H6R14345   1.225   5.338   9.650 -0.8215 -2.8071  1.1024
  133SAPE   C2714346   1.427   5.388   9.725  0.0700 -0.0483  0.2850
  133SAPE   H7R14347   1.476   5.308   9.666 -0.0588 -0.1066  0.2599
  133SAPE   H7S14348   1.471   5.384   9.827  0.5178  0.7986  0.1408
  133SAPE   C2814349   1.464   5.512   9.650  0.0264  0.1553  0.2680
  133SAPE   H8R14350   1.389   5.561   9.586 -0.8358 -0.3571  0.8638
  133SAPE   C2914351   1.591   5.550   9.644  0.0483 -1.6113  0.0950
  133SAPE   H9R14352   1.625   5.639   9.588  1.1083 -1.5398  0.8181
  133SAPE  C21014353   1.710   5.486   9.706 -0.3619  0.6926  0.2388
  133SAPE  H10R14354   1.697   5.376   9.708  1.3093  0.4394 -0.7802
  133SAPE  H10S14355   1.709   5.521   9.812  0.8070 -0.2236  0.5777
  133SAPE  C21114356   1.841   5.522   9.641  0.0838 -0.0377  0.9262
  133SAPE  H11R14357   1.893   5.601   9.697  2.0562 -0.9397  0.4707
  133SAPE  C21214358   1.894   5.484   9.527 -0.4168  0.0808  0.2938
  133SAPE  H12R14359   1.987   5.528   9.488  0.7112 -0.9743  1.7063
  133SAPE  C21314360   1.829   5.380   9.442  0.1466  0.4084  0.0420
  133SAPE  H13R14361   1.739   5.335   9.489  1.4319 -0.5373  1.6890
  133SAPE  H13S14362   1.903   5.300   9.421  2.1089  2.2478 -0.4839
  133SAPE  C21414363   1.797   5.434   9.307  0.4027  0.7337  0.2051
  133SAPE  H14R14364   1.715   5.506   9.317  0.8428  1.2747 -0.0025
  133SAPE  C21514365   1.832   5.414   9.179  0.0966  0.4390  0.4220
  133SAPE  H15R14366   1.771   5.462   9.102  0.7495  1.3869  0.4713
  133SAPE  C21614367   1.945   5.323   9.137 -0.6367 -0.1512 -0.3504
  133SAPE  H16R14368   1.934   5.239   9.209  1.2496  0.6044  0.9243
  133SAPE  H16S14369   2.046   5.370   9.143 -1.0168  1.4548 -4.0123
  133SAPE  C21714370   1.914   5.280   8.990  0.0113 -0.1390 -0.6093
  133SAPE  H17R14371   1.919   5.368   8.923 -1.4237  0.3273 -0.1340
  133SAPE  H17S14372   1.815   5.230   8.987 -1.3904  2.3906  0.5336
  133SAPE  C21814373   2.014   5.181   8.936  0.2925 -0.0747  0.1020
  133SAPE  H18R14374   2.020   5.091   9.001  1.3887 -0.1751 -0.1082
  133SAPE  H18S14375   2.118   5.220   8.938  0.7167 -1.0807 -0.9185
  133SAPE  C21914376   1.999   5.140   8.790  0.3060 -0.1598  0.4306
  133SAPE  H19R14377   2.006   5.233   8.729 -3.5128  0.5855  0.9307
  133SAPE  H19S14378   1.892   5.112   8.781  0.5021 -0.9813  0.5731
  133SAPE  C22014379   2.099   5.037   8.746  0.1764 -0.4239 -0.2468
  133SAPE  H20R14380   2.071   4.936   8.782  0.2252 -0.3235  0.0699
  133SAPE  H20S14381   2.199   5.069   8.782 -0.3580  1.9967 -0.7583
  133SAPE  H20T14382   2.106   5.035   8.635 -3.6276  2.5383 -0.7584
  133SAPE   C3314383   0.721   5.073   9.911  0.1326 -0.0502  0.5238
  133SAPE   H3X14384   0.762   5.176   9.905 -0.3883  0.2031  1.1695
  133SAPE   H3Y14385   0.611   5.085   9.919 -0.6321 -2.6110 -3.3126
  133SAPE   C3414386   0.739   4.998   9.779 -0.3900 -0.0925  0.6285
  133SAPE   H4X14387   0.687   5.050   9.696  1.8070  0.2207 -0.6406
  133SAPE   H4Y14388   0.691   4.898   9.782  0.5935 -0.5954  3.4213
  133SAPE   C3514389   0.884   4.995   9.732 -0.1600 -0.0372  0.4918
  133SAPE   H5X14390   0.901   4.887   9.712  1.3474  0.5573 -2.0196
  133SAPE   H5Y14391   0.955   5.031   9.810 -0.2437  0.7046  0.2339
  133SAPE   C3614392   0.910   5.074   9.603  0.4212  0.1314  0.5487
  133SAPE   H6X14393   1.018   5.079   9.578  0.0845  1.7190 -0.7837
  133SAPE   H6Y14394   0.880   5.180   9.622  1.6092  0.1104  2.8618
  133SAPE   C3714395   0.844   5.019   9.479  0.2701 -0.2936  0.0540
  133SAPE   H7X14396   0.737   4.996   9.497  0.7818 -1.4873  1.7774
  133SAPE   H7Y14397   0.891   4.920   9.463  0.0362 -0.6686  1.5762
  133SAPE   C3814398   0.868   5.111   9.351 -0.1189 -0.2407 -0.2845
  133SAPE   H8X14399   0.975   5.140   9.342  0.6956 -2.6184  0.7734
  133SAPE   H8Y14400   0.805   5.202   9.356  0.0898  0.0285 -2.0172
  133SAPE   C3914401   0.824   5.047   9.219 -0.5618 -0.1578 -0.1384
  133SAPE   H9X14402   0.713   5.043   9.208 -0.4124 -2.2546 -1.2979
  133SAPE   H9Y14403   0.871   4.948   9.232  1.8321  1.0505  0.9795
  133SAPE  C31014404   0.892   5.105   9.097  0.1282 -0.4886  0.5884
  133SAPE  H10X14405   0.874   5.036   9.012 -1.1952 -0.4129  0.7990
  133SAPE  H10Y14406   1.002   5.117   9.111 -0.1910  2.1304  1.4083
  133SAPE  C31114407   0.828   5.239   9.045 -0.2962 -0.0254  0.0409
  133SAPE  H11X14408   0.847   5.329   9.107  0.6775 -0.6209  0.6372
  133SAPE  H11Y14409   0.718   5.228   9.030 -0.1181 -0.8871 -0.7309
  133SAPE  C31214410   0.889   5.286   8.911 -0.8517  0.3846  0.3007
  133SAPE  H12X14411   0.898   5.201   8.840  0.9217  1.3833 -0.7488
  133SAPE  H12Y14412   0.995   5.314   8.928 -0.5177  0.7874 -2.1303
  133SAPE  C31314413   0.809   5.400   8.853  0.3373 -0.3330 -0.6269
  133SAPE  H13X14414   0.796   5.471   8.937  0.9619 -0.6068 -0.2861
  133SAPE  H13Y14415   0.706   5.362   8.841  1.1587 -3.8533  1.6346
  133SAPE  C31414416   0.860   5.456   8.725  0.2040 -0.1851  0.2046
  133SAPE  H14X14417   0.860   5.383   8.642  2.3846  3.0718 -2.9872
  133SAPE  H14Y14418   0.969   5.468   8.744  0.4080 -0.8600 -0.4865
  133SAPE  C31514419   0.777   5.568   8.672  0.1232  0.0218  0.0748
  133SAPE  H15X14420   0.758   5.658   8.734  0.6469  0.2691 -0.1147
  133SAPE  H15Y14421   0.678   5.529   8.639  0.5675 -1.1749  0.1018
  133SAPE  C31614422   0.839   5.619   8.537  0.1259  0.1812  0.5823
  133SAPE  H16X14423   0.764   5.636   8.458  0.0129 -0.8406  0.4512
  133SAPE  H16Y14424   0.901   5.536   8.497 -0.6877 -0.7213  1.1255
  133SAPE  C31714425   0.926   5.740   8.548  0.0457 -0.0423 -0.9282
  133SAPE  H17X14426   1.016   5.708   8.605 -0.3725  0.8024  0.2414
  133SAPE  H17Y14427   0.874   5.824   8.599 -0.2006 -0.8212  0.1259
  133SAPE  C31814428   0.962   5.805   8.412 -0.0269  0.1585  0.5578
  133SAPE  H18X14429   1.015   5.900   8.432  1.9212 -0.3382 -1.6890
  133SAPE  H18Y14430   0.870   5.834   8.357 -0.5069 -0.5032  0.9959
  133SAPE  H18Z14431   1.030   5.733   8.361 -0.4199 -1.5329  2.3147
  134SAPE     N14432   3.462   5.861  10.956  0.2428 -0.2254 -0.1559
  134SAPE   HN114433   3.517   5.917  11.024  0.5785  2.3650 -2.3820
  134SAPE   HN214434   3.492   5.899  10.864 -0.1415  1.1924  0.2731
  134SAPE   HN314435   3.359   5.872  10.967 -0.0153 -0.4547 -2.0954
  134SAPE   C1214436   3.487   5.715  10.961 -0.6210 -0.2537 -0.6122
  134SAPE  H12A14437   3.431   5.672  11.047  0.7831 -2.0542 -0.5473
  134SAPE  H12B14438   3.591   5.698  10.994 -0.7630 -0.3667 -0.2155
  134SAPE   C1114439   3.446   5.643  10.833 -0.6817  0.2856 -0.2494
  134SAPE  H11A14440   3.470   5.535  10.825 -1.4484  0.2434 -2.3768
  134SAPE  H11B14441   3.504   5.699  10.757 -0.0035  1.7010  1.2272
  134SAPE     P14442   3.219   5.730  10.720 -0.0121 -0.4177  0.8366
  134SAPE   O1314443   3.140   5.636  10.640  0.6173 -0.4860 -0.3432
  134SAPE   O1414444   3.148   5.836  10.793 -0.1815  0.0340 -1.1196
  134SAPE   O1214445   3.306   5.653  10.828  0.4802  0.0318 -0.4793
  134SAPE   O1114446   3.332   5.799  10.629  1.0627 -0.0712  0.1987
  134SAPE    C114447   3.304   5.894  10.533  0.0569 -0.6842  0.7929
  134SAPE    HA14448   3.238   5.971  10.579  0.1389 -0.6397  0.8381
  134SAPE    HB14449   3.400   5.940  10.498 -0.1698 -2.3741 -2.4623
  134SAPE    C214450   3.234   5.841  10.406  0.1721 -0.0381 -0.2914
  134SAPE    HS14451   3.132   5.807  10.434  0.2498 -0.3597 -0.3886
  134SAPE   O2114452   3.311   5.727  10.375  0.1409 -0.4938  0.7027
  134SAPE   C2114453   3.250   5.633  10.309  0.7211 -0.3203  0.3715
  134SAPE   O2214454   3.132   5.633  10.276 -0.0923  0.3285  0.7654
  134SAPE   C2214455   3.353   5.527  10.275 -0.5352 -0.3950 -0.1602
  134SAPE   H2R14456   3.455   5.565  10.298 -1.5173  1.8552  0.7333
  134SAPE   H2S14457   3.329   5.449  10.351  0.6636 -0.9996 -0.3778
  134SAPE    C314458   3.227   5.937  10.286  0.1053 -0.1623  0.6428
  134SAPE    HX14459   3.326   5.966  10.246 -0.8694  0.3173 -1.5964
  134SAPE    HY14460   3.187   6.036  10.320 -0.5224  0.0387 -0.6462
  134SAPE   O3114461   3.144   5.891  10.176  0.5311 -0.0972  0.1542
  134SAPE   C3114462   3.016   5.928  10.176  0.0096 -0.2028  0.3602
  134SAPE   O3214463   2.963   5.987  10.265  0.0611 -0.2470  0.2405
  134SAPE   C3214464   2.953   5.887  10.040  0.7935  0.3820 -0.2714
  134SAPE   H2X14465   2.858   5.830  10.042  0.4999  0.8425 -1.0573
  134SAPE   H2Y14466   3.025   5.840   9.970 -0.7677 -0.9291 -1.0712
  134SAPE   C2314467   3.338   5.485  10.129  0.1273 -1.0049  0.0251
  134SAPE   H3R14468   3.233   5.450  10.121 -0.2478  0.1819 -0.3935
  134SAPE   H3S14469   3.407   5.400  10.111  0.3330 -0.7568 -0.3660
  134SAPE   C2414470   3.355   5.594  10.029 -0.1119  0.5836  0.0180
  134SAPE   H4R14471   3.284   5.675  10.054 -1.3421 -0.8310  1.3240
  134SAPE   H4S14472   3.310   5.544   9.940 -1.4384 -0.1656  1.0751
  134SAPE   C2514473   3.501   5.636  10.013 -0.2817 -0.0111  1.0742
  134SAPE   H5R14474   3.545   5.651  10.113 -1.8839 -0.2314  1.8490
  134SAPE   C2614475   3.576   5.656   9.902  0.1261  0.4316 -0.7028
  134SAPE   H6R14476   3.679   5.690   9.918  0.5419 -1.6460  1.7148
  134SAPE   C2714477   3.527   5.641   9.760 -0.3230  0.0928  0.0072
  134SAPE   H7R14478   3.418   5.663   9.749 -0.1755  0.5183 -0.6026
  134SAPE   H7S14479   3.552   5.540   9.721  1.4039  1.1555 -1.8020
  134SAPE   C2814480   3.590   5.736   9.666  0.0795 -0.1534  0.2073
  134SAPE   H8R14481   3.584   5.834   9.714  1.6026 -0.4149  1.0048
  134SAPE   C2914482   3.644   5.721   9.547  0.5077 -0.8008  0.6461
  134SAPE   H9R14483   3.688   5.807   9.493  3.2533 -3.0897 -1.0184
  134SAPE  C21014484   3.654   5.598   9.460 -0.4728  0.1996 -0.1430
  134SAPE  H10R14485   3.681   5.526   9.540  1.0380  0.8642 -0.0089
  134SAPE  H10S14486   3.744   5.610   9.396 -0.8859 -1.2633 -1.0279
  134SAPE  C21114487   3.524   5.570   9.395 -0.2337 -0.6947 -0.7471
  134SAPE  H11R14488   3.442   5.565   9.468 -0.6489 -2.7189 -1.2761
  134SAPE  C21214489   3.495   5.533   9.269 -0.8143 -0.4217  0.0212
  134SAPE  H12R14490   3.390   5.526   9.235 -1.5096  0.3159  1.8457
  134SAPE  C21314491   3.605   5.511   9.156 -0.3981  0.3352  0.2191
  134SAPE  H13R14492   3.706   5.523   9.200 -1.3102  1.4158  2.1195
  134SAPE  H13S14493   3.608   5.588   9.075 -0.0503 -0.5240 -0.6146
  134SAPE  C21414494   3.589   5.372   9.097 -0.5642 -0.0035 -0.3381
  134SAPE  H14R14495   3.633   5.294   9.162 -2.1531  0.0839  0.9029
  134SAPE  C21514496   3.539   5.334   8.981  0.1775 -0.5611  0.1504
  134SAPE  H15R14497   3.561   5.236   8.935  1.8609 -1.4239  2.5840
  134SAPE  C21614498   3.472   5.424   8.879 -0.1844 -0.2834 -0.3931
  134SAPE  H16R14499   3.545   5.439   8.797  0.3460 -3.0168 -0.5231
  134SAPE  H16S14500   3.441   5.512   8.939 -1.4520 -0.8783 -0.1262
  134SAPE  C21714501   3.343   5.357   8.823 -0.0589 -0.3835  0.1234
  134SAPE  H17R14502   3.272   5.435   8.789  1.3136  1.3977  1.1798
  134SAPE  H17S14503   3.289   5.315   8.911  0.9780  1.0250  1.4822
  134SAPE  C21814504   3.354   5.246   8.716 -0.1008 -0.2064 -1.1767
  134SAPE  H18R14505   3.259   5.189   8.718 -0.0178 -0.3561 -1.4011
  134SAPE  H18S14506   3.431   5.169   8.740  0.0113  0.3172  0.2269
  134SAPE  C21914507   3.366   5.298   8.567  0.5445  0.6167 -0.2959
  134SAPE  H19R14508   3.447   5.373   8.574  0.5440  0.6073 -0.1775
  134SAPE  H19S14509   3.265   5.334   8.539 -0.2011 -1.3489 -0.3125
  134SAPE  C22014510   3.412   5.188   8.478  0.6514 -0.0660 -0.1852
  134SAPE  H20R14511   3.505   5.145   8.521 -0.8199 -2.7339  0.5659
  134SAPE  H20S14512   3.427   5.209   8.370  0.7889 -2.6583 -0.7592
  134SAPE  H20T14513   3.334   5.111   8.499 -0.2580  1.4820  2.6815
  134SAPE   C3314514   2.886   6.005   9.970 -0.4391 -0.4233 -0.0985
  134SAPE   H3X14515   2.950   6.094   9.951  0.0187 -0.2122  2.1237
  134SAPE   H3Y14516   2.807   6.046  10.036  0.7553  1.1537  0.4246
  134SAPE   C3414517   2.840   5.955   9.834  0.4978 -0.8872 -0.4543
  134SAPE   H4X14518   2.774   5.865   9.834 -1.9104  0.8035 -0.3675
  134SAPE   H4Y14519   2.929   5.920   9.777  0.7661 -3.0658  1.1416
  134SAPE   C3514520   2.770   6.060   9.744 -0.4556  0.1894  0.0403
  134SAPE   H5X14521   2.838   6.148   9.743  0.5740 -0.5880 -0.6717
  134SAPE   H5Y14522   2.674   6.091   9.789 -1.0499 -0.1118 -1.0013
  134SAPE   C3614523   2.749   6.011   9.604 -0.0049 -0.2744  0.2219
  134SAPE   H6X14524   2.675   6.067   9.543 -0.8635 -0.5640  0.9774
  134SAPE   H6Y14525   2.705   5.909   9.610  1.4163 -0.9846 -0.8244
  134SAPE   C3714526   2.881   5.996   9.528  0.4918  1.0555  0.4353
  134SAPE   H7X14527   2.948   5.920   9.574  0.2769  0.5585 -0.0509
  134SAPE   H7Y14528   2.935   6.092   9.539 -1.0465  2.0366 -0.2976
  134SAPE   C3814529   2.850   5.962   9.382  0.3821 -0.1600  0.2385
  134SAPE   H8X14530   2.743   5.931   9.379 -0.0918  1.1504  2.0569
  134SAPE   H8Y14531   2.911   5.875   9.349 -0.5282 -1.4867  1.9141
  134SAPE   C3914532   2.854   6.076   9.287 -0.0041 -0.2688 -0.6091
  134SAPE   H9X14533   2.956   6.103   9.252 -0.8764  0.9084 -2.3602
  134SAPE   H9Y14534   2.806   6.165   9.332  1.1440  1.3504 -2.4361
  134SAPE  C31014535   2.780   6.058   9.153  0.2221  0.4643  0.1917
  134SAPE  H10X14536   2.764   6.154   9.100 -0.9881  0.9892  1.4484
  134SAPE  H10Y14537   2.679   6.016   9.174 -0.1261  1.1483 -0.0883
  134SAPE  C31114538   2.859   5.957   9.064 -0.4947  0.4354 -0.5362
  134SAPE  H11X14539   2.851   5.869   9.131 -0.9252  1.0631  0.2488
  134SAPE  H11Y14540   2.968   5.976   9.056 -0.1951 -0.2000  1.5637
  134SAPE  C31214541   2.803   5.938   8.922 -0.1546 -0.5220  0.2556
  134SAPE  H12X14542   2.828   6.031   8.866  0.4813 -0.5232  0.5206
  134SAPE  H12Y14543   2.694   5.925   8.914 -0.1809  0.6371 -2.0322
  134SAPE  C31314544   2.872   5.820   8.853  0.1200 -0.3263 -0.3896
  134SAPE  H13X14545   2.845   5.725   8.903  0.8118  0.2784  1.1939
  134SAPE  H13Y14546   2.983   5.828   8.854  0.1754 -0.9850 -0.7511
  134SAPE  C31414547   2.825   5.807   8.707  1.2671  0.2435 -0.3199
  134SAPE  H14X14548   2.881   5.719   8.669  0.9378 -0.4810  0.8016
  134SAPE  H14Y14549   2.853   5.897   8.649 -0.0682  1.3577  0.6904
  134SAPE  C31514550   2.671   5.795   8.683 -0.3145  1.0195  0.2104
  134SAPE  H15X14551   2.616   5.888   8.707 -0.3056  0.3405  3.1833
  134SAPE  H15Y14552   2.641   5.732   8.769  0.5330  1.7712  1.0752
  134SAPE  C31614553   2.635   5.738   8.550 -0.1719  0.5299 -0.1137
  134SAPE  H16X14554   2.664   5.631   8.562 -1.4819  0.2726  0.9120
  134SAPE  H16Y14555   2.698   5.780   8.468  1.3856  0.1821  0.8555
  134SAPE  C31714556   2.491   5.731   8.505  0.7292 -0.3093 -0.0898
  134SAPE  H17X14557   2.456   5.837   8.499 -0.8248 -0.7270  1.1203
  134SAPE  H17Y14558   2.443   5.678   8.590  1.8749 -0.6577  0.3508
  134SAPE  C31814559   2.457   5.676   8.369 -0.1145  0.4852  0.2693
  134SAPE  H18X14560   2.350   5.676   8.342  0.3258  0.2241 -1.6337
  134SAPE  H18Y14561   2.492   5.571   8.361 -0.9859  0.1864  0.2853
  134SAPE  H18Z14562   2.517   5.723   8.288 -0.5658  2.1143  0.8419
  135SAPE     N14563   2.717   3.191  10.459  0.2765  0.2713 -0.6475
  135SAPE   HN114564   2.671   3.141  10.380 -2.0099  1.2662 -0.0530
  135SAPE   HN214565   2.752   3.120  10.526  0.4453 -1.1789 -2.2186
  135SAPE   HN314566   2.633   3.238  10.500 -0.6595  0.2741 -2.4473
  135SAPE   C1214567   2.824   3.280  10.402 -0.0078  0.3352 -0.1306
  135SAPE  H12A14568   2.880   3.329  10.484 -0.7793 -1.3825  1.5146
  135SAPE  H12B14569   2.770   3.360  10.347 -2.4400 -2.1271 -1.6349
  135SAPE   C1114570   2.931   3.206  10.315 -0.2662 -0.5500 -0.2145
  135SAPE  H11A14571   3.003   3.280  10.272 -0.7282 -0.2777 -0.5232
  135SAPE  H11B14572   2.881   3.164  10.225 -1.1801 -0.8272  0.4133
  135SAPE     P14573   3.110   3.124  10.494 -0.3238  0.3807 -0.0773
  135SAPE   O1314574   3.113   3.267  10.529 -0.2759 -0.0595  0.2939
  135SAPE   O1414575   3.073   3.042  10.609  0.2080  0.5584 -0.2233
  135SAPE   O1214576   3.001   3.104  10.383 -0.4358  0.2787  0.1425
  135SAPE   O1114577   3.260   3.088  10.433  0.8462 -0.0908 -0.5922
  135SAPE    C114578   3.269   2.983  10.343 -0.5900 -0.2968 -0.2330
  135SAPE    HA14579   3.349   2.911  10.373 -0.9104  0.2275  2.0359
  135SAPE    HB14580   3.179   2.924  10.318  0.2712 -1.5578 -0.4851
  135SAPE    C214581   3.319   3.032  10.200  0.0309 -0.6055  0.1122
  135SAPE    HS14582   3.415   3.087  10.205  0.1279 -0.6925 -0.7391
  135SAPE   O2114583   3.219   3.118  10.148  0.4421  0.1215 -0.3854
  135SAPE   C2114584   3.263   3.216  10.068 -0.4033 -0.5116  0.8021
  135SAPE   O2214585   3.377   3.245  10.047  0.3302  0.0621 -0.5185
  135SAPE   C2214586   3.144   3.289   9.995 -0.0781  0.1735 -0.0670
  135SAPE   H2R14587   3.078   3.345  10.064 -0.2860  0.0601 -0.1745
  135SAPE   H2S14588   3.203   3.362   9.936  3.3843 -0.9060  1.7651
  135SAPE    C314589   3.331   2.908  10.108 -0.9840  0.1271  0.2328
  135SAPE    HX14590   3.234   2.860  10.084 -1.6277  0.6851  1.5846
  135SAPE    HY14591   3.400   2.844  10.166  0.1410  0.5175 -0.6207
  135SAPE   O3114592   3.400   2.937   9.986  0.3589 -0.1770  0.2011
  135SAPE   C3114593   3.526   2.982   9.986  0.0393  0.1414  0.6148
  135SAPE   O3214594   3.593   2.990  10.087 -0.5647 -0.7885 -0.1181
  135SAPE   C3214595   3.564   3.035   9.843 -0.0759 -0.3814  0.1100
  135SAPE   H2X14596   3.499   3.122   9.819  0.2407 -0.0658  0.3924
  135SAPE   H2Y14597   3.533   2.957   9.770 -0.6171  0.4724 -0.6047
  135SAPE   C2314598   3.059   3.199   9.905 -0.3374 -0.0161  0.8908
  135SAPE   H3R14599   2.990   3.257   9.841 -0.6312 -2.3747 -1.0781
  135SAPE   H3S14600   2.997   3.131   9.968 -1.3408 -1.3146 -1.3816
  135SAPE   C2414601   3.142   3.104   9.810  0.4449  0.3013 -0.0353
  135SAPE   H4R14602   3.072   3.028   9.768 -0.3254  1.5166 -1.0215
  135SAPE   H4S14603   3.206   3.039   9.872  0.5170 -0.4122 -0.8315
  135SAPE   C2514604   3.226   3.176   9.706  0.9059 -0.3038  0.3091
  135SAPE   H5R14605   3.268   3.265   9.756 -0.7335 -0.0530  1.2918
  135SAPE   C2614606   3.252   3.145   9.574  0.0161  0.2639 -0.0821
  135SAPE   H6R14607   3.286   3.229   9.512  0.0726  1.3910  1.4079
  135SAPE   C2714608   3.198   3.026   9.494 -0.2176  0.3024  0.3540
  135SAPE   H7R14609   3.195   3.052   9.386  0.2582 -2.1580 -0.2997
  135SAPE   H7S14610   3.090   3.010   9.513 -0.1241  0.6099  1.1706
  135SAPE   C2814611   3.288   2.898   9.511  0.8433 -0.3266 -0.2184
  135SAPE   H8R14612   3.322   2.879   9.614 -0.4025  1.3830  0.5655
  135SAPE   C2914613   3.318   2.796   9.423  0.2960 -0.6580 -0.4052
  135SAPE   H9R14614   3.375   2.715   9.471  0.7810 -0.2676 -0.3202
  135SAPE  C21014615   3.271   2.787   9.282  0.2165  0.0049 -0.5453
  135SAPE  H10R14616   3.162   2.805   9.288  0.2034  0.2042 -1.3056
  135SAPE  H10S14617   3.277   2.683   9.243 -0.4043  0.3534 -1.5866
  135SAPE  C21114618   3.328   2.897   9.186  0.8669  0.1149  0.1092
  135SAPE  H11R14619   3.382   2.974   9.243 -2.2551  0.3367  3.0866
  135SAPE  C21214620   3.303   2.920   9.051 -0.3347 -0.4048  0.1544
  135SAPE  H12R14621   3.359   2.997   8.996  0.1999 -0.4230  0.6571
  135SAPE  C21314622   3.222   2.834   8.956 -0.1398 -0.2556 -0.2126
  135SAPE  H13R14623   3.189   2.895   8.869 -2.0168 -0.1726  0.5211
  135SAPE  H13S14624   3.133   2.798   9.012 -0.3812  2.4429  1.2856
  135SAPE  C21414625   3.296   2.710   8.917 -0.7522 -0.5636  0.2266
  135SAPE  H14R14626   3.353   2.672   9.003  0.3093  0.9183  0.2082
  135SAPE  C21514627   3.304   2.644   8.800  0.0583  0.3559  0.7610
  135SAPE  H15R14628   3.386   2.572   8.790 -1.3167 -1.0406 -1.4242
  135SAPE  C21614629   3.249   2.684   8.664  0.7609 -0.2628 -0.3329
  135SAPE  H16R14630   3.202   2.784   8.676  3.9959  1.4927 -1.2482
  135SAPE  H16S14631   3.170   2.613   8.633  0.4675  0.6016 -1.6106
  135SAPE  C21714632   3.354   2.706   8.557  0.2378 -0.3312  0.4991
  135SAPE  H17R14633   3.451   2.732   8.603 -0.3885 -1.0743  2.3603
  135SAPE  H17S14634   3.315   2.792   8.499 -2.9979 -1.8019  0.2672
  135SAPE  C21814635   3.369   2.596   8.463 -0.5257  0.5165  0.0929
  135SAPE  H18R14636   3.386   2.501   8.518 -1.8676  0.8115  1.0741
  135SAPE  H18S14637   3.454   2.618   8.395 -1.7323  1.5387 -1.1456
  135SAPE  C21914638   3.257   2.590   8.357  0.1957  0.0656  0.3446
  135SAPE  H19R14639   3.152   2.590   8.393 -1.0066 -1.2141 -2.7998
  135SAPE  H19S14640   3.266   2.492   8.305  0.1608 -0.0270  0.5108
  135SAPE  C22014641   3.269   2.696   8.249  0.1794  0.1263 -0.3469
  135SAPE  H20R14642   3.270   2.796   8.299 -0.8116 -0.6733  1.3333
  135SAPE  H20S14643   3.186   2.683   8.175 -1.4032  0.1543  1.3571
  135SAPE  H20T14644   3.368   2.691   8.199  1.4898  3.2242  1.6367
  135SAPE   C3314645   3.714   3.073   9.824  0.2882 -0.3571  0.2481
  135SAPE   H3X14646   3.766   2.977   9.846 -0.0880 -0.7604 -0.5743
  135SAPE   H3Y14647   3.733   3.153   9.898 -3.7020  1.7613 -0.7330
  135SAPE   C3414648   3.756   3.128   9.681  0.1395 -0.5181  0.0558
  135SAPE   H4X14649   3.864   3.154   9.685 -0.0888  0.4236  0.4025
  135SAPE   H4Y14650   3.704   3.226   9.668  0.0328 -0.6776 -0.7194
  135SAPE   C3514651   3.703   3.054   9.557 -0.4393 -1.0432  1.4759
  135SAPE   H5X14652   3.595   3.039   9.578 -0.2330 -0.3237  3.2348
  135SAPE   H5Y14653   3.755   2.956   9.563  1.4421 -0.2584 -0.7113
  135SAPE   C3614654   3.728   3.124   9.416  0.2037  0.3723 -0.6151
  135SAPE   H6X14655   3.837   3.137   9.403  0.6927 -1.2141  1.3829
  135SAPE   H6Y14656   3.680   3.224   9.409  0.3368  0.6382  1.5273
  135SAPE   C3714657   3.674   3.035   9.302  0.9036  0.1769 -0.1393
  135SAPE   H7X14658   3.576   2.998   9.340  1.4430 -3.2045 -1.6550
  135SAPE   H7Y14659   3.738   2.945   9.295  0.6912  0.1705 -2.8093
  135SAPE   C3814660   3.650   3.095   9.165  0.1571  0.5530 -0.1709
  135SAPE   H8X14661   3.729   3.170   9.145 -1.4846  2.7580  1.1522
  135SAPE   H8Y14662   3.557   3.155   9.153  1.1796  2.3405  0.5094
  135SAPE   C3914663   3.654   2.987   9.052  0.2718  0.3998  0.0227
  135SAPE   H9X14664   3.592   2.899   9.080  1.3578 -1.5156 -3.0649
  135SAPE   H9Y14665   3.758   2.955   9.031 -0.0745 -0.1111 -0.9766
  135SAPE  C31014666   3.635   3.052   8.908 -0.1506  0.4580 -0.2704
  135SAPE  H10X14667   3.712   3.132   8.905 -0.0049  0.2813 -1.8267
  135SAPE  H10Y14668   3.533   3.094   8.897 -0.8608 -1.0950  0.0230
  135SAPE  C31114669   3.640   2.932   8.807 -0.2250  0.0827 -0.3577
  135SAPE  H11X14670   3.554   2.864   8.827 -0.7367  0.5297 -1.0008
  135SAPE  H11Y14671   3.727   2.865   8.824 -0.3688  0.3453  1.7851
  135SAPE  C31214672   3.643   2.991   8.665 -0.9072  0.1905 -0.0306
  135SAPE  H12X14673   3.641   2.910   8.590 -1.4282  0.0914  0.0832
  135SAPE  H12Y14674   3.739   3.045   8.655 -0.5738 -0.7296 -2.1816
  135SAPE  C31314675   3.527   3.080   8.630  0.3402  0.4709 -0.5347
  135SAPE  H13X14676   3.524   3.164   8.702 -0.0848  1.1324 -1.3187
  135SAPE  H13Y14677   3.431   3.023   8.637 -0.5303  2.0501  1.0185
  135SAPE  C31414678   3.523   3.147   8.486 -0.2339  0.7740 -0.4691
  135SAPE  H14X14679   3.459   3.238   8.495 -0.1687  0.7180  0.6495
  135SAPE  H14Y14680   3.471   3.080   8.414 -0.0718  0.6261 -0.4502
  135SAPE  C31514681   3.662   3.184   8.438  0.4578 -0.2198  0.8184
  135SAPE  H15X14682   3.644   3.220   8.334 -1.5642  0.5790  1.4133
  135SAPE  H15Y14683   3.737   3.102   8.432 -1.1589 -1.7502  0.7352
  135SAPE  C31614684   3.724   3.301   8.517  0.0244  0.8019 -0.2800
  135SAPE  H16X14685   3.720   3.276   8.626  2.3272  1.3512 -0.0111
  135SAPE  H16Y14686   3.670   3.395   8.494  2.1093  2.2173  0.3128
  135SAPE  C31714687   3.874   3.325   8.500 -0.0817  0.1862  0.9403
  135SAPE  H17X14688   3.884   3.349   8.392 -0.5840 -1.9932  0.3424
  135SAPE  H17Y14689   3.932   3.231   8.512 -3.0121 -2.0024 -0.4841
  135SAPE  C31814690   3.929   3.439   8.578  0.0933 -0.0915  0.1324
  135SAPE  H18X14691   3.870   3.530   8.556 -4.7186 -1.7198  4.3458
  135SAPE  H18Y14692   4.037   3.453   8.557  0.7455 -2.0424  1.7778
  135SAPE  H18Z14693   3.900   3.435   8.685 -0.0729  0.1516  0.0969
  136SAPE     N14694   0.330   3.165  11.251 -0.0745 -0.0714  0.2488
  136SAPE   HN114695   0.345   3.168  11.354 -1.3280 -2.8383  0.5923
  136SAPE   HN214696   0.252   3.098  11.235 -1.0927  0.1757  3.5016
  136SAPE   HN314697   0.419   3.126  11.212  0.1224  0.8705 -0.2807
  136SAPE   C1214698   0.310   3.301  11.193  0.5292  0.0503  0.2870
  136SAPE  H12A14699   0.240   3.351  11.264  1.5060  0.1467  1.2240
  136SAPE  H12B14700   0.266   3.296  11.092  2.8206  0.6660 -0.8161
  136SAPE   C1114701   0.434   3.382  11.170 -0.1384  0.3597  0.2507
  136SAPE  H11A14702   0.478   3.412  11.268  0.8574 -0.6206  0.1234
  136SAPE  H11B14703   0.410   3.476  11.116  0.0049  0.0692 -0.3224
  136SAPE     P14704   0.619   3.371  10.977 -0.5044 -0.0207  0.4597
  136SAPE   O1314705   0.705   3.478  11.033  0.2880 -0.0690  0.1468
  136SAPE   O1414706   0.684   3.267  10.890  0.1171  0.6965 -0.5172
  136SAPE   O1214707   0.528   3.307  11.092 -0.2380  0.2314  0.9903
  136SAPE   O1114708   0.507   3.449  10.887  0.6853 -0.0446 -0.6642
  136SAPE    C114709   0.390   3.388  10.831 -0.2079  1.1052 -0.2915
  136SAPE    HA14710   0.393   3.278  10.843 -1.0584  1.0882 -0.1238
  136SAPE    HB14711   0.297   3.425  10.880  0.0545  2.4713 -0.7761
  136SAPE    C214712   0.376   3.429  10.685 -0.8403  0.3469  0.3195
  136SAPE    HS14713   0.278   3.394  10.647 -0.1982 -1.1916  0.0227
  136SAPE   O2114714   0.487   3.370  10.610 -0.1895  0.0553 -0.3472
  136SAPE   C2114715   0.474   3.242  10.595  0.2874 -0.0526 -0.0915
  136SAPE   O2214716   0.386   3.169  10.646 -0.1761 -0.3997 -0.2473
  136SAPE   C2214717   0.592   3.190  10.511 -0.1975  0.0045 -0.3963
  136SAPE   H2R14718   0.653   3.278  10.484  1.3891 -0.5448  1.2288
  136SAPE   H2S14719   0.652   3.122  10.575  0.2556 -0.1053 -0.9349
  136SAPE    C314720   0.383   3.590  10.674  0.4195  0.3133 -0.5847
  136SAPE    HX14721   0.485   3.613  10.711 -0.4061  2.2409  0.6537
  136SAPE    HY14722   0.309   3.632  10.746  1.5474  0.0217  0.7910
  136SAPE   O3114723   0.363   3.634  10.538 -0.5601 -0.0759  0.5004
  136SAPE   C3114724   0.402   3.760  10.518  0.2192 -0.0818 -0.4996
  136SAPE   O3214725   0.444   3.840  10.597 -0.3359 -0.3068  0.7439
  136SAPE   C3214726   0.353   3.783  10.376 -0.3729 -0.4854  0.7747
  136SAPE   H2X14727   0.243   3.783  10.391 -0.1305  0.1894  2.7322
  136SAPE   H2Y14728   0.377   3.692  10.316 -1.3931  0.0244 -0.4546
  136SAPE   C2314729   0.546   3.110  10.389  0.1789 -0.0938  0.9070
  136SAPE   H3R14730   0.476   3.028  10.414  1.1120 -1.6705 -1.3253
  136SAPE   H3S14731   0.627   3.042  10.354 -1.3752 -1.3046 -0.4566
  136SAPE   C2414732   0.472   3.206  10.290 -0.9626  0.5716  0.1965
  136SAPE   H4R14733   0.386   3.252  10.344  0.1880  1.0101  1.7152
  136SAPE   H4S14734   0.428   3.145  10.209  0.1343 -0.4400  0.3294
  136SAPE   C2514735   0.567   3.306  10.242  0.3975 -0.3817  0.1147
  136SAPE   H5R14736   0.596   3.387  10.311  3.2433  0.3382 -1.7401
  136SAPE   C2614737   0.624   3.322  10.121  0.6679 -0.4586  0.4392
  136SAPE   H6R14738   0.710   3.388  10.105 -0.6003  0.5026 -3.8669
  136SAPE   C2714739   0.606   3.225   9.999  0.3782 -0.3817 -0.5220
  136SAPE   H7R14740   0.623   3.292   9.912 -3.0935  0.9696 -0.3156
  136SAPE   H7S14741   0.496   3.208   9.991  0.3426 -0.2602 -0.3160
  136SAPE   C2814742   0.666   3.085   9.988 -0.0680 -0.1963 -0.3002
  136SAPE   H8R14743   0.593   3.003   9.976  0.9611 -0.9807 -1.3985
  136SAPE   C2914744   0.795   3.065   9.985  0.0024  0.2281  0.0096
  136SAPE   H9R14745   0.822   2.961   9.965 -1.0948 -0.3223  1.2704
  136SAPE  C21014746   0.895   3.172   9.993 -0.4734  0.4303 -0.5148
  136SAPE  H10R14747   0.851   3.273  10.000 -0.2583  0.5447 -0.8237
  136SAPE  H10S14748   0.965   3.166   9.907  1.0913  0.8026  0.6729
  136SAPE  C21114749   0.978   3.154  10.124  0.1728 -0.6215 -0.5388
  136SAPE  H11R14750   0.914   3.187  10.207 -1.4413 -1.7456 -1.2905
  136SAPE  C21214751   1.099   3.102  10.156 -0.8179  0.5437 -0.5839
  136SAPE  H12R14752   1.137   3.116  10.259  1.0733 -0.3399 -1.1290
  136SAPE  C21314753   1.201   3.041  10.062 -0.6004  0.8700  0.1440
  136SAPE  H13R14754   1.199   3.083   9.960  1.0475 -3.0517 -1.7057
  136SAPE  H13S14755   1.154   2.943  10.039  0.1384  0.8007 -1.1525
  136SAPE  C21414756   1.338   3.022  10.123 -0.0206 -0.0173  0.3925
  136SAPE  H14R14757   1.364   3.044  10.227 -1.5206  1.0885  0.5623
  136SAPE  C21514758   1.446   2.999  10.045 -0.2473 -0.6452 -0.6906
  136SAPE  H15R14759   1.543   2.992  10.095  0.5975  3.3182 -1.4575
  136SAPE  C21614760   1.454   2.976   9.895  0.1442 -0.7644  0.3684
  136SAPE  H16R14761   1.469   3.074   9.846  1.9116 -0.9440  0.4982
  136SAPE  H16S14762   1.359   2.925   9.866  0.4212 -1.2828  0.3611
  136SAPE  C21714763   1.566   2.881   9.859 -1.0292 -0.5958  0.0998
  136SAPE  H17R14764   1.557   2.789   9.921 -1.3108  0.3897  1.5991
  136SAPE  H17S14765   1.663   2.932   9.877 -0.7015 -0.8213 -0.9650
  136SAPE  C21814766   1.565   2.833   9.718 -0.6399  0.0266  0.7960
  136SAPE  H18R14767   1.475   2.773   9.692 -0.4200 -0.0964  0.3052
  136SAPE  H18S14768   1.659   2.777   9.695 -0.2938  0.8140  0.2743
  136SAPE  C21914769   1.569   2.943   9.610  0.0776  0.3798 -0.1737
  136SAPE  H19R14770   1.668   2.995   9.602 -0.2838  0.8730 -1.7919
  136SAPE  H19S14771   1.502   3.027   9.640  0.7812  0.7436  0.4206
  136SAPE  C22014772   1.537   2.903   9.463  0.2100 -0.0681  0.5631
  136SAPE  H20R14773   1.573   2.803   9.431 -0.7538  0.3433 -2.0454
  136SAPE  H20S14774   1.572   2.984   9.395 -0.7325 -0.0805  0.0506
  136SAPE  H20T14775   1.427   2.920   9.458  0.4177  1.1571 -0.5805
  136SAPE   C3314776   0.400   3.921  10.311  0.3216  0.9677  0.2419
  136SAPE   H3X14777   0.510   3.930  10.318  0.5758 -0.9552 -0.6409
  136SAPE   H3Y14778   0.364   4.005  10.374  0.7179  1.0222  0.3961
  136SAPE   C3414779   0.340   3.949  10.168  0.0060  0.2485 -0.6689
  136SAPE   H4X14780   0.370   4.055  10.153 -1.6310  1.0384  1.1595
  136SAPE   H4Y14781   0.230   3.941  10.175  0.0312 -0.4331 -1.0431
  136SAPE   C3514782   0.392   3.858  10.056  0.2451  0.7482 -0.1802
  136SAPE   H5X14783   0.380   3.750  10.082  0.9792  0.5712 -0.5294
  136SAPE   H5Y14784   0.500   3.883  10.044  0.1559  0.4096 -2.0183
  136SAPE   C3614785   0.314   3.880   9.925  0.2320  0.1033  0.1305
  136SAPE   H6X14786   0.313   3.988   9.900  0.9472  0.4119  1.3304
  136SAPE   H6Y14787   0.216   3.827   9.929  0.3986 -0.1703  0.7470
  136SAPE   C3714788   0.379   3.807   9.805  0.2750 -0.2564  0.8182
  136SAPE   H7X14789   0.354   3.699   9.809 -2.1526  0.1739 -0.5151
  136SAPE   H7Y14790   0.488   3.820   9.819 -0.0311  2.0009  1.6688
  136SAPE   C3814791   0.322   3.852   9.672 -0.0027 -0.0869 -0.0602
  136SAPE   H8X14792   0.346   3.960   9.662 -0.1217  0.1716  1.8860
  136SAPE   H8Y14793   0.212   3.842   9.676  0.1763 -3.3242 -1.0245
  136SAPE   C3914794   0.368   3.767   9.553 -0.1643  0.6417 -0.3226
  136SAPE   H9X14795   0.370   3.658   9.574  1.5843  1.1024  2.4186
  136SAPE   H9Y14796   0.472   3.797   9.527  0.2939 -1.1322 -0.6398
  136SAPE  C31014797   0.281   3.787   9.424 -0.1138 -0.1675  0.1399
  136SAPE  H10X14798   0.265   3.896   9.408  0.0222 -0.3866 -1.7004
  136SAPE  H10Y14799   0.178   3.749   9.440 -0.2085 -0.0794 -0.2463
  136SAPE  C31114800   0.363   3.724   9.305 -0.4400 -0.1325 -0.2287
  136SAPE  H11X14801   0.376   3.617   9.331  4.4372  0.2908 -0.0699
  136SAPE  H11Y14802   0.463   3.770   9.317 -0.6763  0.1724  0.6354
  136SAPE  C31214803   0.289   3.752   9.178 -0.0709 -0.3427 -0.1416
  136SAPE  H12X14804   0.294   3.860   9.150  2.4385  0.0572  1.5398
  136SAPE  H12Y14805   0.183   3.728   9.200 -0.7212  3.1446  1.1596
  136SAPE  C31314806   0.323   3.665   9.051  0.3530  0.1338 -0.4104
  136SAPE  H13X14807   0.419   3.695   9.004  0.3349 -0.8978 -1.1498
  136SAPE  H13Y14808   0.243   3.684   8.976  1.0593  0.5725 -1.0645
  136SAPE  C31414809   0.316   3.516   9.087  0.5606 -0.3225 -0.3635
  136SAPE  H14X14810   0.230   3.507   9.156 -0.1819 -1.0050 -1.3561
  136SAPE  H14Y14811   0.409   3.490   9.142  0.8888 -0.2501 -0.8699
  136SAPE  C31514812   0.305   3.435   8.955  0.6507  0.1540  0.2984
  136SAPE  H15X14813   0.401   3.467   8.908  0.6795 -1.1569 -0.6136
  136SAPE  H15Y14814   0.224   3.466   8.885 -1.3640 -2.5787  1.2594
  136SAPE  C31614815   0.292   3.282   8.985  0.5881 -0.3618 -0.2860
  136SAPE  H16X14816   0.274   3.229   8.889  0.9766  1.2231 -1.2711
  136SAPE  H16Y14817   0.208   3.279   9.058  2.1793 -0.7893  1.6042
  136SAPE  C31714818   0.412   3.210   9.040 -0.0870  0.3610  0.6442
  136SAPE  H17X14819   0.438   3.257   9.137 -1.4993  0.7739  0.8501
  136SAPE  H17Y14820   0.498   3.228   8.971 -1.1439 -2.5810 -1.6523
  136SAPE  C31814821   0.394   3.055   9.059 -0.3700  0.3117  0.6786
  136SAPE  H18X14822   0.486   3.002   9.092  0.0945  1.1390  0.7460
  136SAPE  H18Y14823   0.364   3.005   8.964  0.6961 -0.6345  0.8179
  136SAPE  H18Z14824   0.313   3.044   9.135 -1.1264  0.3690 -0.1002
  137SAPE     N14825   3.885   6.699  10.988  0.2085  0.3706  0.2774
  137SAPE   HN114826   3.810   6.676  11.057  0.6309  0.4977  0.7884
  137SAPE   HN214827   3.886   6.622  10.919 -0.7557  1.3863 -0.9187
  137SAPE   HN314828   3.980   6.700  11.029 -0.3016  0.8185  1.5077
  137SAPE   C1214829   3.851   6.828  10.917 -0.0995  0.2354  0.0688
  137SAPE  H12A14830   3.815   6.903  10.991 -0.2159  0.6939 -0.4474
  137SAPE  H12B14831   3.771   6.800  10.846  0.4963 -0.6715 -0.2599
  137SAPE   C1114832   3.972   6.888  10.837 -0.2500  0.1012 -0.1189
  137SAPE  H11A14833   3.937   6.977  10.781 -1.7299  0.0316  0.6441
  137SAPE  H11B14834   4.000   6.810  10.763  1.0754 -0.4274  0.8964
  137SAPE     P14835   4.234   6.926  10.885 -0.2921  0.3634 -0.0712
  137SAPE   O1314836   4.301   7.020  10.970 -0.2362  0.1379 -0.1862
  137SAPE   O1414837   4.291   6.787  10.894  0.2370 -0.4236 -0.3303
  137SAPE   O1214838   4.084   6.920  10.926  0.0219 -0.2786  0.3043
  137SAPE   O1114839   4.237   6.980  10.737  0.2034  0.9152  0.1053
  137SAPE    C114840   4.179   7.111  10.706 -0.9911  0.0369 -0.0734
  137SAPE    HA14841   4.077   7.130  10.745 -0.3226 -2.2321  3.2095
  137SAPE    HB14842   4.229   7.189  10.769 -0.5880  0.2281 -0.6185
  137SAPE    C214843   4.198   7.152  10.562  0.2870  1.1155 -0.0522
  137SAPE    HS14844   4.149   7.251  10.549 -1.8337  0.0116 -1.1519
  137SAPE   O2114845   4.141   7.048  10.483  0.2377 -0.0370  0.3394
  137SAPE   C2114846   4.017   7.021  10.491  0.0909 -0.6081  0.1706
  137SAPE   O2214847   3.931   7.083  10.553  0.1665  0.2428 -0.3243
  137SAPE   C2214848   3.987   6.896  10.403 -0.8404  0.1842  0.4622
  137SAPE   H2R14849   4.068   6.850  10.344 -0.9852  0.0557  0.3612
  137SAPE   H2S14850   3.960   6.813  10.471 -1.8163  0.0570 -0.0506
  137SAPE    C314851   4.342   7.173  10.506 -0.3681 -0.2591 -0.5367
  137SAPE    HX14852   4.382   7.071  10.525  0.4159  0.0457 -0.5373
  137SAPE    HY14853   4.387   7.250  10.572  0.9081 -1.2806 -0.1742
  137SAPE   O3114854   4.338   7.210  10.369  0.1810 -0.0383  0.6065
  137SAPE   C3114855   4.451   7.228  10.313 -0.7377 -0.3456  0.2670
  137SAPE   O3214856   4.559   7.199  10.372  0.0632  0.3713  0.9123
  137SAPE   C3214857   4.443   7.309  10.182  0.3229  0.1061  0.2847
  137SAPE   H2X14858   4.466   7.414  10.210 -2.7692  0.9506  0.0013
  137SAPE   H2Y14859   4.340   7.314  10.141 -0.8198  1.1233  3.0291
  137SAPE   C2314860   3.868   6.923  10.311  0.2119 -0.1132 -0.7627
  137SAPE   H3R14861   3.880   7.017  10.253 -0.4783  0.1934 -0.4198
  137SAPE   H3S14862   3.778   6.938  10.376  0.7348 -1.6495  0.3870
  137SAPE   C2414863   3.834   6.805  10.219 -0.1475 -0.0673  0.3736
  137SAPE   H4R14864   3.739   6.842  10.174  0.9798  0.8306 -1.3312
  137SAPE   H4S14865   3.811   6.715  10.281  2.4964 -0.8366  0.3343
  137SAPE   C2514866   3.934   6.770  10.113  0.7061  0.1674 -0.4027
  137SAPE   H5R14867   4.012   6.699  10.140  1.0999  0.7593  0.0438
  137SAPE   C2614868   3.941   6.826   9.990 -0.3999  0.3811 -0.4175
  137SAPE   H6R14869   4.003   6.771   9.918  0.2187  1.2242 -0.5391
  137SAPE   C2714870   3.836   6.917   9.941 -0.0308 -0.0289 -0.5223
  137SAPE   H7R14871   3.814   6.996  10.017 -0.6449 -0.4832 -0.2215
  137SAPE   H7S14872   3.742   6.860   9.932 -1.1945  1.9473 -1.6597
  137SAPE   C2814873   3.889   6.989   9.817  0.4164 -0.8470 -0.1388
  137SAPE   H8R14874   3.913   7.095   9.838 -1.2099 -0.6809  1.0604
  137SAPE   C2914875   3.916   6.944   9.692 -0.0541  0.0493  0.2662
  137SAPE   H9R14876   3.948   7.021   9.620 -1.4129  0.2153 -0.1885
  137SAPE  C21014877   3.896   6.808   9.636  0.0375 -0.1700  0.3964
  137SAPE  H10R14878   3.806   6.794   9.572  0.6271 -0.7460 -0.3401
  137SAPE  H10S14879   3.876   6.736   9.718 -0.0546  1.6939  2.0651
  137SAPE  C21114880   4.024   6.756   9.574 -0.3559 -0.4895 -0.1426
  137SAPE  H11R14881   4.112   6.751   9.640 -1.2900  1.4382  1.3830
  137SAPE  C21214882   4.035   6.734   9.438  0.6289 -1.1506  0.1929
  137SAPE  H12R14883   4.128   6.691   9.399  0.4765 -1.5693  0.2866
  137SAPE  C21314884   3.936   6.769   9.329  0.2016  0.2205  0.0167
  137SAPE  H13R14885   3.828   6.764   9.354  0.3181  0.4883  0.5992
  137SAPE  H13S14886   3.944   6.695   9.247 -2.2156  1.0549 -1.0835
  137SAPE  C21414887   3.959   6.902   9.265  0.9851 -0.2890 -0.2752
  137SAPE  H14R14888   3.877   6.967   9.299  0.2611 -0.8926 -0.8277
  137SAPE  C21514889   4.061   6.947   9.191  0.1212  0.9549  0.2851
  137SAPE  H15R14890   4.066   7.046   9.142 -1.1134  0.1790 -1.4879
  137SAPE  C21614891   4.173   6.861   9.151 -0.6201  0.3429 -0.8173
  137SAPE  H16R14892   4.198   6.779   9.222  1.2945  2.3783  1.0314
  137SAPE  H16S14893   4.267   6.920   9.158 -1.0646  0.9092  1.0420
  137SAPE  C21714894   4.140   6.803   9.012  0.7598  0.2407  0.5756
  137SAPE  H17R14895   4.038   6.759   9.017  1.4902 -1.3978  2.0522
  137SAPE  H17S14896   4.216   6.723   8.996  1.6143  0.9917  0.7733
  137SAPE  C21814897   4.151   6.902   8.892  0.4792 -0.0836  0.4615
  137SAPE  H18R14898   4.242   6.964   8.910 -0.9364  1.8034  1.4487
  137SAPE  H18S14899   4.065   6.971   8.904  0.3938  0.3328 -2.0623
  137SAPE  C21914900   4.168   6.846   8.757  0.1487  0.4714  0.1666
  137SAPE  H19R14901   4.257   6.781   8.756 -0.9325 -1.0580 -0.0570
  137SAPE  H19S14902   4.183   6.928   8.684  1.7001 -0.1079 -0.1907
  137SAPE  C22014903   4.055   6.752   8.707  0.3883  0.8434 -0.3825
  137SAPE  H20R14904   3.965   6.806   8.670  0.7859  1.7853 -0.0004
  137SAPE  H20S14905   4.025   6.691   8.795  0.1504 -0.3991 -1.2909
  137SAPE  H20T14906   4.087   6.682   8.626 -1.8854  0.5183 -1.0812
  137SAPE   C3314907   4.543   7.264  10.069 -0.1856  0.1742  0.3444
  137SAPE   H3X14908   4.505   7.161  10.052  0.2147 -0.1636  1.4114
  137SAPE   H3Y14909   4.648   7.261  10.105  0.2560 -2.1905 -0.9238
  137SAPE   C3414910   4.531   7.345   9.942  0.0047 -0.3353 -0.3505
  137SAPE   H4X14911   4.530   7.453   9.968 -1.3726  0.4490 -3.2853
  137SAPE   H4Y14912   4.432   7.324   9.896 -0.9782 -2.9509  2.5935
  137SAPE   C3514913   4.645   7.323   9.844 -0.0867 -0.4034  0.4755
  137SAPE   H5X14914   4.617   7.242   9.774 -2.2030  0.3538  0.3537
  137SAPE   H5Y14915   4.738   7.300   9.899 -0.8038 -3.7147  0.4800
  137SAPE   C3614916   4.658   7.442   9.738 -0.3139  0.6505 -0.0748
  137SAPE   H6X14917   4.684   7.531   9.799  4.4568 -1.3590  1.2865
  137SAPE   H6Y14918   4.560   7.467   9.690 -1.1563 -1.3431  0.4934
  137SAPE   C3714919   4.761   7.407   9.625 -0.2946 -0.5514  0.1871
  137SAPE   H7X14920   4.751   7.301   9.592 -0.8234 -0.0173 -1.4707
  137SAPE   H7Y14921   4.856   7.410   9.683 -0.8974 -0.8027  1.2075
  137SAPE   C3814922   4.763   7.517   9.520  0.4078  0.1426 -0.2329
  137SAPE   H8X14923   4.818   7.611   9.544  1.8448 -0.3725 -1.3378
  137SAPE   H8Y14924   4.658   7.538   9.491 -0.5751 -1.4527  1.9013
  137SAPE   C3914925   4.830   7.474   9.386  0.5150 -0.4423 -0.4305
  137SAPE   H9X14926   4.809   7.367   9.366  2.4178 -1.0289  0.5625
  137SAPE   H9Y14927   4.941   7.475   9.384  0.5647 -2.6906 -1.9653
  137SAPE  C31014928   4.784   7.561   9.271 -0.1927  0.5758  0.0425
  137SAPE  H10X14929   4.826   7.663   9.275  0.4617  0.3125 -0.0376
  137SAPE  H10Y14930   4.674   7.575   9.269 -0.3334 -0.5011 -2.3139
  137SAPE  C31114931   4.840   7.518   9.131  0.0729 -0.7596 -0.4736
  137SAPE  H11X14932   4.832   7.407   9.130  0.7846 -0.9327  2.6795
  137SAPE  H11Y14933   4.949   7.541   9.128  0.3306 -1.5904  1.0258
  137SAPE  C31214934   4.751   7.583   9.023 -0.0645  0.4350 -0.2102
  137SAPE  H12X14935   4.781   7.690   9.026  0.9976  0.1618 -0.4845
  137SAPE  H12Y14936   4.650   7.586   9.067  0.9936  3.1776  2.3805
  137SAPE  C31314937   4.764   7.521   8.879  0.0370 -0.0402 -0.9164
  137SAPE  H13X14938   4.725   7.417   8.886  0.1132  0.0281  1.8368
  137SAPE  H13Y14939   4.870   7.503   8.851  0.3095  1.2557 -0.7735
  137SAPE  C31414940   4.674   7.604   8.785 -0.3305 -0.1817  0.0706
  137SAPE  H14X14941   4.727   7.693   8.745  1.3600 -0.9026  0.6272
  137SAPE  H14Y14942   4.592   7.645   8.849  2.1194  1.9915  2.0343
  137SAPE  C31514943   4.616   7.521   8.668  0.2344  0.3713 -0.1822
  137SAPE  H15X14944   4.547   7.450   8.719 -0.4317  2.0286  1.3413
  137SAPE  H15Y14945   4.698   7.466   8.618  2.3413  0.6643  2.6814
  137SAPE  C31614946   4.526   7.596   8.574 -0.1542  0.3097 -0.0028
  137SAPE  H16X14947   4.592   7.662   8.513 -2.6985  2.3294 -0.7324
  137SAPE  H16Y14948   4.458   7.665   8.629 -1.2998  2.2906 -3.5496
  137SAPE  C31714949   4.457   7.496   8.481 -0.4639 -0.2792  0.0148
  137SAPE  H17X14950   4.410   7.413   8.539  2.0761 -1.8291  0.0150
  137SAPE  H17Y14951   4.531   7.447   8.415 -1.6747  0.0407 -1.6276
  137SAPE  C31814952   4.348   7.553   8.390 -0.2745 -0.4917 -0.2137
  137SAPE  H18X14953   4.272   7.608   8.450 -0.6620 -0.1120 -1.0274
  137SAPE  H18Y14954   4.301   7.473   8.329  1.6097 -2.1744  0.4547
  137SAPE  H18Z14955   4.406   7.619   8.321 -0.3497  0.8963  0.9916
  138SAPE     N14956   2.478   0.974  11.127  0.4321 -0.1798  0.6264
  138SAPE   HN114957   2.560   0.914  11.103 -0.3184 -0.0529 -2.7854
  138SAPE   HN214958   2.496   1.009  11.223  0.3602  2.6525 -0.3207
  138SAPE   HN314959   2.399   0.907  11.139  0.3677  0.1221  2.1664
  138SAPE   C1214960   2.452   1.092  11.040  1.1509 -0.4458  0.1885
  138SAPE  H12A14961   2.502   1.179  11.087  1.6009  0.2555 -1.5113
  138SAPE  H12B14962   2.342   1.106  11.040  0.9709 -1.6529 -0.1829
  138SAPE   C1114963   2.520   1.062  10.910  0.1276  0.1877 -0.2619
  138SAPE  H11A14964   2.631   1.054  10.919  0.0698  0.3946  0.7329
  138SAPE  H11B14965   2.497   1.152  10.848  1.3019  0.1136 -0.8464
  138SAPE     P14966   2.532   0.879  10.726  0.0980 -0.1656 -0.0907
  138SAPE   O1314967   2.602   0.765  10.788  0.6765 -0.3423 -0.9575
  138SAPE   O1414968   2.444   0.847  10.607 -0.1403  0.5875  0.5075
  138SAPE   O1214969   2.449   0.958  10.835 -0.2123 -0.3300 -0.4278
  138SAPE   O1114970   2.652   0.976  10.691  0.2353 -0.3469 -0.1759
  138SAPE    C114971   2.641   1.089  10.612 -0.5371  0.3573  0.0271
  138SAPE    HA14972   2.540   1.127  10.588  0.1509  3.8859  2.0178
  138SAPE    HB14973   2.692   1.169  10.669 -1.9071  1.4954 -0.2917
  138SAPE    C214974   2.719   1.063  10.481  1.2153  0.4386  0.1165
  138SAPE    HS14975   2.763   1.154  10.435  2.4198 -0.5062 -0.6683
  138SAPE   O2114976   2.638   0.982  10.393  0.0035  0.4638  0.5632
  138SAPE   C2114977   2.570   1.042  10.303  0.0768  0.2140  0.1006
  138SAPE   O2214978   2.526   1.155  10.313 -0.4293  0.3875  0.2251
  138SAPE   C2214979   2.569   0.958  10.170 -0.5912  0.6164 -0.6771
  138SAPE   H2R14980   2.670   0.911  10.167 -1.8353 -2.8361  3.2197
  138SAPE   H2S14981   2.488   0.882  10.172  0.4827 -0.5478  0.0117
  138SAPE    C314982   2.854   0.997  10.518 -0.6229 -0.1073  0.2484
  138SAPE    HX14983   2.841   0.910  10.586  3.5226  0.2731  1.8055
  138SAPE    HY14984   2.909   1.076  10.573 -0.4364  0.4048 -0.6558
  138SAPE   O3114985   2.945   0.964  10.411 -0.2562  0.0521  0.1805
  138SAPE   C3114986   2.941   0.846  10.363 -0.3955  0.6294  0.1295
  138SAPE   O3214987   2.865   0.759  10.408 -0.2738 -0.0408 -0.4203
  138SAPE   C3214988   3.030   0.834  10.248  0.8084  0.9907  0.3351
  138SAPE   H2X14989   2.982   0.765  10.177  3.2479 -0.1497 -0.3064
  138SAPE   H2Y14990   3.125   0.791  10.287 -0.8501 -1.3028  2.1033
  138SAPE   C2314991   2.550   1.049  10.048 -0.0722  0.2219  0.0876
  138SAPE   H3R14992   2.603   1.008   9.960  0.4793 -1.3481  1.1215
  138SAPE   H3S14993   2.605   1.144  10.064  0.5180  0.1159 -1.1259
  138SAPE   C2414994   2.405   1.094  10.014  0.3551 -0.5149  0.2787
  138SAPE   H4R14995   2.419   1.180   9.945  0.7240  0.9930  2.1691
  138SAPE   H4S14996   2.363   1.141  10.105 -1.0061 -2.0888  0.4941
  138SAPE   C2514997   2.314   0.981   9.971  0.1469 -0.0764 -0.7230
  138SAPE   H5R14998   2.324   0.893  10.037 -1.4106 -0.6852 -1.2641
  138SAPE   C2614999   2.242   0.983   9.864 -0.1318 -0.1314  0.4470
  138SAPE   H6R15000   2.181   0.898   9.830  0.0930 -0.1428  0.0635
  138SAPE   C2715001   2.244   1.097   9.760 -0.1074  0.6890  0.3597
  138SAPE   H7R15002   2.339   1.103   9.703 -0.3055 -1.4215 -0.2730
  138SAPE   H7S15003   2.235   1.192   9.818 -1.5502  0.5928  0.3275
  138SAPE   C2815004   2.133   1.088   9.665  0.2360 -0.2922  0.0647
  138SAPE   H8R15005   2.040   1.054   9.712  1.2887 -1.4902  1.3433
  138SAPE   C2915006   2.127   1.119   9.538 -0.0182 -0.0311  0.6488
  138SAPE   H9R15007   2.039   1.090   9.481  0.7062 -1.0153  0.0063
  138SAPE  C21015008   2.235   1.166   9.439  0.3206  0.9685  0.1153
  138SAPE  H10R15009   2.301   1.083   9.405 -0.7318  0.1909 -0.0550
  138SAPE  H10S15010   2.310   1.230   9.490  1.4584 -0.7788  0.7410
  138SAPE  C21115011   2.173   1.241   9.320 -0.0297  0.6135 -0.1787
  138SAPE  H11R15012   2.113   1.326   9.355  0.1695  0.3719  0.7716
  138SAPE  C21215013   2.157   1.190   9.194  0.1304 -0.7428  0.2606
  138SAPE  H12R15014   2.080   1.225   9.124 -3.1457 -4.8402  1.3834
  138SAPE  C21315015   2.211   1.053   9.150  0.1125  0.4725  0.8558
  138SAPE  H13R15016   2.221   0.982   9.235  1.6725 -3.0469 -1.9794
  138SAPE  H13S15017   2.311   1.072   9.105  0.0586 -0.4446  0.3218
  138SAPE  C21415018   2.131   0.982   9.041 -0.7154  0.5003  0.3939
  138SAPE  H14R15019   2.056   0.911   9.079  1.3487 -0.5126  2.9615
  138SAPE  C21515020   2.127   1.009   8.907  1.0392 -0.5301 -0.2446
  138SAPE  H15R15021   2.052   0.955   8.847  2.5103 -0.0865 -2.6164
  138SAPE  C21615022   2.209   1.106   8.835 -0.5580 -0.2749  0.1500
  138SAPE  H16R15023   2.285   1.157   8.898  0.5749 -0.1308 -1.2756
  138SAPE  H16S15024   2.154   1.193   8.794 -0.3715 -0.2146  0.0258
  138SAPE  C21715025   2.271   1.036   8.715 -0.8685 -0.3601  0.1392
  138SAPE  H17R15026   2.194   0.977   8.660 -0.3147 -0.9758  0.0140
  138SAPE  H17S15027   2.336   0.957   8.758  1.3754  0.8216 -0.9609
  138SAPE  C21815028   2.371   1.122   8.630 -0.2479 -0.2791  0.3033
  138SAPE  H18R15029   2.435   1.190   8.690  0.2727 -0.6104  0.1240
  138SAPE  H18S15030   2.312   1.194   8.569 -0.5116 -1.5038 -0.9374
  138SAPE  C21915031   2.452   1.044   8.525 -0.7881 -0.0440  0.5533
  138SAPE  H19R15032   2.380   0.987   8.462 -0.4431  1.2490 -1.1100
  138SAPE  H19S15033   2.512   0.974   8.586  0.5682 -0.2784 -0.9873
  138SAPE  C22015034   2.536   1.137   8.437  0.1288  0.5396  0.1229
  138SAPE  H20R15035   2.612   1.180   8.506  1.7558 -0.6203 -0.8708
  138SAPE  H20S15036   2.478   1.213   8.381 -2.3571 -0.4750  1.2039
  138SAPE  H20T15037   2.591   1.074   8.363  2.1430  0.9775  1.1585
  138SAPE   C3315038   3.062   0.963  10.167  0.2398  0.0750 -0.3799
  138SAPE   H3X15039   3.156   1.003  10.209  1.2339 -1.7250 -0.7723
  138SAPE   H3Y15040   2.974   1.029  10.179 -0.4916 -0.9571  0.0730
  138SAPE   C3415041   3.085   0.941  10.019  0.1120 -0.1099  0.5625
  138SAPE   H4X15042   3.160   0.862  10.002  1.0186  0.9553 -0.5751
  138SAPE   H4Y15043   3.120   1.039   9.979 -2.9625  1.0810  0.5223
  138SAPE   C3515044   2.946   0.920   9.952 -0.5834  0.2188  0.5280
  138SAPE   H5X15045   2.880   1.002   9.985 -0.2152  1.5463 -1.8036
  138SAPE   H5Y15046   2.893   0.831   9.993 -0.9137  0.3693  0.4239
  138SAPE   C3615047   2.950   0.916   9.804  0.2418 -0.2059  0.1501
  138SAPE   H6X15048   3.038   0.865   9.760  0.8579 -1.0794  2.2819
  138SAPE   H6Y15049   2.957   1.022   9.774 -2.8406  0.0713  0.0936
  138SAPE   C3715050   2.831   0.838   9.747  0.3812 -0.2634 -0.4683
  138SAPE   H7X15051   2.737   0.890   9.774  0.2308 -0.6467 -0.2612
  138SAPE   H7Y15052   2.824   0.743   9.804  0.2012  0.2599  0.4046
  138SAPE   C3815053   2.852   0.806   9.595  1.1494  0.1612 -0.1732
  138SAPE   H8X15054   2.754   0.762   9.566  0.3831  1.8467 -0.2941
  138SAPE   H8Y15055   2.927   0.729   9.570 -2.4627 -3.3241 -1.3941
  138SAPE   C3915056   2.876   0.929   9.515  0.2850 -0.0705 -0.2936
  138SAPE   H9X15057   2.956   0.987   9.565 -0.5228  1.6397 -0.9133
  138SAPE   H9Y15058   2.789   0.998   9.515 -0.1930 -0.6631 -0.8849
  138SAPE  C31015059   2.948   0.910   9.378 -0.3336 -0.2109 -0.7359
  138SAPE  H10X15060   3.043   0.858   9.403  1.5762  3.5908  0.6832
  138SAPE  H10Y15061   2.989   1.010   9.351 -0.0739 -0.4780 -1.3389
  138SAPE  C31115062   2.857   0.839   9.277  0.7785 -0.1782  0.1766
  138SAPE  H11X15063   2.785   0.920   9.252  3.0297  1.9739  0.2021
  138SAPE  H11Y15064   2.809   0.758   9.336  0.7907 -0.0810  0.3209
  138SAPE  C31215065   2.925   0.792   9.149 -0.5616 -0.0231  0.1716
  138SAPE  H12X15066   3.015   0.734   9.180  0.2474 -2.0337 -4.8718
  138SAPE  H12Y15067   2.974   0.881   9.103 -0.3387  1.4741  3.1103
  138SAPE  C31315068   2.834   0.711   9.050  0.7588 -0.3189 -0.0134
  138SAPE  H13X15069   2.768   0.781   8.994  2.4665  1.5447  0.2067
  138SAPE  H13Y15070   2.791   0.634   9.117 -0.2933  0.8505  0.7041
  138SAPE  C31415071   2.916   0.657   8.931  0.5196  0.1897 -0.4993
  138SAPE  H14X15072   2.999   0.598   8.975  1.6619 -0.3047 -3.1006
  138SAPE  H14Y15073   2.952   0.742   8.869 -0.0354  0.0471 -1.0289
  138SAPE  C31515074   2.825   0.563   8.846  0.3002 -0.0714  0.7844
  138SAPE  H15X15075   2.753   0.528   8.922 -2.7830  1.7771 -1.0466
  138SAPE  H15Y15076   2.879   0.479   8.796 -2.9465  0.1349 -3.7111
  138SAPE  C31615077   2.720   0.640   8.754  0.2025  0.0364  0.4003
  138SAPE  H16X15078   2.792   0.681   8.680  0.2487  1.4033  1.1652
  138SAPE  H16Y15079   2.666   0.724   8.803  0.2097 -0.7320  1.8034
  138SAPE  C31715080   2.624   0.552   8.674 -0.1974 -0.4847  0.0833
  138SAPE  H17X15081   2.582   0.483   8.751  2.4331 -1.2892  0.9238
  138SAPE  H17Y15082   2.675   0.482   8.604  0.7545 -0.7144  0.9757
  138SAPE  C31815083   2.521   0.645   8.607  0.1878  0.6866 -0.1116
  138SAPE  H18X15084   2.436   0.582   8.574  0.6601  0.4939 -0.9721
  138SAPE  H18Y15085   2.572   0.695   8.522 -0.8152 -0.1089 -1.2181
  138SAPE  H18Z15086   2.492   0.723   8.681 -1.3037  0.2270 -0.1799
  139SAPE     N15087   0.814   6.363  10.545  0.3044 -0.1063 -0.6132
  139SAPE   HN115088   0.834   6.431  10.621 -2.5673  1.4602 -1.1246
  139SAPE   HN215089   0.776   6.279  10.592  1.4386  0.2491  1.0139
  139SAPE   HN315090   0.904   6.337  10.500  0.3184 -2.8943  0.8287
  139SAPE   C1215091   0.719   6.413  10.441  0.3096 -0.7928 -0.6932
  139SAPE  H12A15092   0.630   6.455  10.493  2.1924  0.3195  1.9075
  139SAPE  H12B15093   0.680   6.326  10.384  0.0310  0.1493 -1.9783
  139SAPE   C1115094   0.781   6.515  10.345  0.0644  0.4055  0.7119
  139SAPE  H11A15095   0.700   6.561  10.283 -0.8628 -1.3814  0.5421
  139SAPE  H11B15096   0.850   6.456  10.281 -0.2795  0.4213  0.3189
  139SAPE     P15097   0.776   6.736  10.494 -0.3173  0.1020 -0.1819
  139SAPE   O1315098   0.679   6.667  10.581  0.9011 -0.5520 -0.6135
  139SAPE   O1415099   0.868   6.832  10.549 -0.6296 -0.1401  0.2634
  139SAPE   O1215100   0.856   6.623  10.410 -0.2876  0.0141  0.2362
  139SAPE   O1115101   0.687   6.812  10.379 -0.6504  0.5196  0.1727
  139SAPE    C115102   0.769   6.867  10.271 -0.4914 -0.2963 -0.4478
  139SAPE    HA15103   0.872   6.826  10.269 -0.9347 -1.5495  0.8310
  139SAPE    HB15104   0.714   6.831  10.181 -0.6736 -3.5235  0.8294
  139SAPE    C215105   0.773   7.024  10.277 -0.1867  0.6337 -0.4183
  139SAPE    HS15106   0.726   7.042  10.376 -0.4621  0.8466 -0.5895
  139SAPE   O2115107   0.687   7.076  10.167  0.2664  0.0816 -0.4281
  139SAPE   C2115108   0.624   7.186  10.201 -0.1926  1.1515  1.2561
  139SAPE   O2215109   0.648   7.244  10.302  0.0807 -0.2238 -0.5485
  139SAPE   C2215110   0.535   7.222  10.084  0.1457  0.6238 -0.2127
  139SAPE   H2R15111   0.592   7.195   9.993  0.8495  1.2457  0.0265
  139SAPE   H2S15112   0.455   7.147  10.098 -0.2614  1.1349  0.2557
  139SAPE    C315113   0.911   7.093  10.256 -0.4713 -0.6362  0.4797
  139SAPE    HX15114   0.983   7.059  10.334  1.5260  0.6306 -0.7203
  139SAPE    HY15115   0.898   7.200  10.283  1.3691 -0.3551  0.3912
  139SAPE   O3115116   0.963   7.084  10.122 -0.2234 -0.0874  0.4466
  139SAPE   C3115117   1.058   6.996  10.104 -0.1470 -0.3801  0.1704
  139SAPE   O3215118   1.103   6.926  10.189 -0.1846  0.0140  0.1866
  139SAPE   C3215119   1.088   6.984   9.953 -0.5947 -0.0673 -0.4770
  139SAPE   H2X15120   1.142   7.076   9.919 -0.6970 -0.4878 -1.8718
  139SAPE   H2Y15121   0.991   6.981   9.900 -0.5250  2.9630 -0.9586
  139SAPE   C2315122   0.491   7.374  10.083  0.0363  0.6795 -0.2823
  139SAPE   H3R15123   0.583   7.437  10.077  0.0574  1.1045  2.9304
  139SAPE   H3S15124   0.443   7.397  10.180  1.0749 -0.0625  0.4326
  139SAPE   C2415125   0.397   7.405   9.961 -0.0537 -0.5958  0.5129
  139SAPE   H4R15126   0.355   7.508   9.953  1.9027  0.1941 -0.0454
  139SAPE   H4S15127   0.304   7.345   9.969  0.3281 -1.3406 -0.4873
  139SAPE   C2515128   0.458   7.370   9.825 -0.2498  0.5428 -0.2296
  139SAPE   H5R15129   0.531   7.445   9.791  0.6586  0.1973  0.8695
  139SAPE   C2615130   0.441   7.260   9.746 -0.6033  0.2899  0.5154
  139SAPE   H6R15131   0.490   7.249   9.649 -0.5894  1.1289  0.4202
  139SAPE   C2715132   0.345   7.155   9.775  0.1249 -0.3671 -0.1786
  139SAPE   H7R15133   0.321   7.160   9.883 -1.0093  2.2012 -0.4880
  139SAPE   H7S15134   0.393   7.056   9.761 -1.0934 -1.0064  0.0628
  139SAPE   C2815135   0.220   7.164   9.695  0.0336  0.1408 -0.4476
  139SAPE   H8R15136   0.156   7.246   9.730  1.6774  1.0279  0.6588
  139SAPE   C2915137   0.179   7.074   9.600 -0.2724 -0.1862  0.6347
  139SAPE   H9R15138   0.078   7.086   9.559  0.4113  1.6697 -0.5899
  139SAPE  C21015139   0.257   6.960   9.547  0.9840  0.0469 -0.0135
  139SAPE  H10R15140   0.181   6.881   9.531  1.3870  0.2346 -3.5897
  139SAPE  H10S15141   0.335   6.914   9.613 -0.3335 -2.6982 -0.2107
  139SAPE  C21115142   0.307   7.001   9.413 -0.2851 -0.7429 -0.7037
  139SAPE  H11R15143   0.372   7.089   9.423 -0.6177 -0.4538 -1.0467
  139SAPE  C21215144   0.276   6.961   9.288  0.3787  0.3785  0.3344
  139SAPE  H12R15145   0.323   7.009   9.200 -0.2189 -0.7918 -0.6523
  139SAPE  C21315146   0.176   6.853   9.252 -0.4953  0.7764  0.7458
  139SAPE  H13R15147   0.075   6.897   9.241 -0.3901  1.3967  2.0291
  139SAPE  H13S15148   0.161   6.793   9.345 -0.7515 -0.6197 -0.1650
  139SAPE  C21415149   0.214   6.780   9.120 -0.5165 -0.1868  0.4556
  139SAPE  H14R15150   0.279   6.693   9.133 -1.1452 -0.5501  1.2310
  139SAPE  C21515151   0.170   6.821   8.997 -0.7830 -0.0845  0.0243
  139SAPE  H15R15152   0.218   6.778   8.908 -0.4361 -0.2539  0.2939
  139SAPE  C21615153   0.086   6.946   8.969 -0.3157  0.0820 -0.4818
  139SAPE  H16R15154   0.131   7.001   8.883  1.1660  0.3147  0.3926
  139SAPE  H16S15155   0.092   7.016   9.055 -0.7396 -2.9650  2.2420
  139SAPE  C21715156  -0.056   6.918   8.942 -0.4058  0.7666 -0.7762
  139SAPE  H17R15157  -0.103   7.014   8.912 -2.7623  1.0209  3.0688
  139SAPE  H17S15158  -0.100   6.885   9.038 -0.8922 -1.7069 -1.7788
  139SAPE  C21815159  -0.095   6.808   8.842  0.1272 -0.0453 -1.0459
  139SAPE  H18R15160  -0.046   6.711   8.861 -1.5429 -0.7165  0.0418
  139SAPE  H18S15161  -0.060   6.836   8.740  1.0891 -3.4973 -1.7748
  139SAPE  C21915162  -0.250   6.783   8.859 -0.3901 -0.1452 -0.4275
  139SAPE  H19R15163  -0.304   6.879   8.846 -1.3900 -0.4863  0.9228
  139SAPE  H19S15164  -0.261   6.743   8.963 -2.9479 -3.2606 -1.7035
  139SAPE  C22015165  -0.304   6.686   8.759 -0.6614  1.1861  1.3580
  139SAPE  H20R15166  -0.232   6.602   8.758 -1.9102  0.0493  2.6626
  139SAPE  H20S15167  -0.305   6.728   8.656  0.5106 -1.3727  0.2215
  139SAPE  H20T15168  -0.407   6.655   8.787 -0.7607 -0.8740 -0.9457
  139SAPE   C3315169   1.177   6.858   9.911  0.4652 -0.2748 -0.0387
  139SAPE   H3X15170   1.117   6.765   9.913 -0.6624  0.4127 -1.0123
  139SAPE   H3Y15171   1.262   6.859   9.982  1.0913  2.4404 -0.7157
  139SAPE   C3415172   1.219   6.886   9.770 -0.0863  0.0612  0.4545
  139SAPE   H4X15173   1.275   6.982   9.764 -1.5282  0.9268  0.3939
  139SAPE   H4Y15174   1.131   6.901   9.704  0.2894  0.7458  0.0904
  139SAPE   C3515175   1.282   6.763   9.695 -0.2337 -0.6781  0.0706
  139SAPE   H5X15176   1.213   6.679   9.717 -1.7528 -0.3474 -2.8551
  139SAPE   H5Y15177   1.383   6.738   9.732 -0.1926 -0.7168 -0.0690
  139SAPE   C3615178   1.283   6.792   9.540  0.4821 -0.2841  0.6608
  139SAPE   H6X15179   1.352   6.871   9.504  1.0276 -0.8389  0.4577
  139SAPE   H6Y15180   1.184   6.813   9.496  0.9939  0.2901 -0.2617
  139SAPE   C3715181   1.338   6.668   9.461 -0.0428 -0.2333  0.2091
  139SAPE   H7X15182   1.276   6.584   9.499  1.4269 -0.8232  1.4277
  139SAPE   H7Y15183   1.442   6.657   9.499 -0.3516  2.3905  2.0860
  139SAPE   C3815184   1.328   6.678   9.309 -0.1535 -0.0266  0.3914
  139SAPE   H8X15185   1.370   6.768   9.259 -0.7243 -0.4000 -0.7894
  139SAPE   H8Y15186   1.221   6.677   9.278  0.4147  0.9497 -1.7784
  139SAPE   C3915187   1.392   6.553   9.254 -0.6439 -0.1783 -0.2872
  139SAPE   H9X15188   1.349   6.465   9.307 -0.7103 -0.1146 -0.2366
  139SAPE   H9Y15189   1.502   6.550   9.271 -0.5830  0.1906 -0.5963
  139SAPE  C31015190   1.364   6.540   9.104  0.0703 -0.0775 -0.4346
  139SAPE  H10X15191   1.368   6.640   9.057 -2.4015  0.5414  0.5311
  139SAPE  H10Y15192   1.266   6.495   9.079 -0.2302  0.2580  0.1382
  139SAPE  C31115193   1.455   6.444   9.041 -0.4551  1.0523 -0.6449
  139SAPE  H11X15194   1.460   6.356   9.109  2.3590  1.3785 -0.3273
  139SAPE  H11Y15195   1.564   6.461   9.033  0.0041 -1.9379 -2.0621
  139SAPE  C31215196   1.423   6.381   8.898  0.9241 -0.0589 -0.4455
  139SAPE  H12X15197   1.330   6.319   8.904  1.8979 -1.5309 -0.1257
  139SAPE  H12Y15198   1.509   6.318   8.869 -0.2438 -1.7156 -0.4737
  139SAPE  C31315199   1.399   6.496   8.797 -0.2932  0.1458  0.0043
  139SAPE  H13X15200   1.476   6.576   8.810  1.3173 -1.1022 -1.4131
  139SAPE  H13Y15201   1.299   6.541   8.810  0.3484  1.8860 -0.7121
  139SAPE  C31415202   1.422   6.436   8.656 -0.2936  0.0093  0.3048
  139SAPE  H14X15203   1.362   6.349   8.624 -2.6537  0.8934  2.0672
  139SAPE  H14Y15204   1.530   6.410   8.664 -0.5278 -0.9474  0.4466
  139SAPE  C31515205   1.442   6.549   8.557 -0.0183  0.4850  0.1285
  139SAPE  H15X15206   1.535   6.608   8.575  0.2203  0.3140 -0.5218
  139SAPE  H15Y15207   1.351   6.612   8.560 -0.1979  0.2651 -0.6420
  139SAPE  C31615208   1.460   6.510   8.407  0.0747  0.2643  0.1976
  139SAPE  H16X15209   1.549   6.446   8.391  1.4098  1.5399  1.9831
  139SAPE  H16Y15210   1.373   6.453   8.369  1.9118 -2.1699 -0.5553
  139SAPE  C31715211   1.490   6.622   8.306 -0.2524  0.1480 -0.8452
  139SAPE  H17X15212   1.600   6.642   8.304 -0.3749  1.0705  0.6510
  139SAPE  H17Y15213   1.432   6.709   8.343 -0.4119 -0.6610  0.9003
  139SAPE  C31815214   1.433   6.598   8.166  0.0441  0.0410 -0.1423
  139SAPE  H18X15215   1.479   6.658   8.085  0.3432  1.1099  0.8004
  139SAPE  H18Y15216   1.322   6.594   8.166 -0.1135  2.0737  2.6025
  139SAPE  H18Z15217   1.464   6.496   8.135  1.1357  0.3266 -0.0345
  140SAPE     N15218   3.821   2.465  10.895 -0.4469 -0.2373 -0.2005
  140SAPE   HN115219   3.740   2.404  10.870  0.4371 -1.2582 -0.6776
  140SAPE   HN215220   3.788   2.555  10.934 -3.0895  0.1103 -2.7933
  140SAPE   HN315221   3.867   2.475  10.802  1.4452  0.7557  0.7968
  140SAPE   C1215222   3.907   2.388  10.992  0.0241 -0.5448 -0.4565
  140SAPE  H12A15223   3.866   2.397  11.095 -1.2833  1.1127 -1.0660
  140SAPE  H12B15224   4.007   2.432  11.006 -0.7937  1.0929  0.5088
  140SAPE   C1115225   3.923   2.236  10.955 -0.3793 -0.2909 -0.0963
  140SAPE  H11A15226   3.986   2.205  11.041 -0.0086 -0.1970 -0.3297
  140SAPE  H11B15227   3.985   2.225  10.863 -0.6376  1.0556 -0.4519
  140SAPE     P15228   3.724   2.146  10.811 -0.2898 -0.2379 -0.1937
  140SAPE   O1315229   3.651   2.015  10.820 -0.3186  0.5809  0.0145
  140SAPE   O1415230   3.641   2.262  10.787  0.1546 -0.0952 -0.9730
  140SAPE   O1215231   3.806   2.165  10.943  0.1142 -0.2501 -0.1244
  140SAPE   O1115232   3.833   2.130  10.702 -0.3942 -0.5450  0.1680
  140SAPE    C115233   3.828   2.186  10.573 -0.4339  0.1425 -0.1458
  140SAPE    HA15234   3.788   2.289  10.580 -2.6671 -0.3539 -3.5718
  140SAPE    HB15235   3.932   2.197  10.533 -0.1511  2.1170  0.9954
  140SAPE    C215236   3.732   2.113  10.470 -0.3169 -0.1232  0.5692
  140SAPE    HS15237   3.630   2.109  10.512 -0.4415  1.1412  0.4336
  140SAPE   O2115238   3.781   1.979  10.443 -0.1695 -0.4837  0.6457
  140SAPE   C2115239   3.693   1.899  10.375 -0.0086  0.3817  0.3306
  140SAPE   O2215240   3.575   1.920  10.360 -0.3223  0.1899  0.2579
  140SAPE   C2215241   3.783   1.790  10.313 -0.2175  0.2587  0.3132
  140SAPE   H2R15242   3.859   1.835  10.246  2.3946 -1.8897  1.6231
  140SAPE   H2S15243   3.840   1.754  10.402 -0.1108 -2.2021 -0.6504
  140SAPE    C315244   3.709   2.192  10.338  0.0791 -0.8340  0.5323
  140SAPE    HX15245   3.654   2.288  10.345  0.3321 -0.7236  1.0419
  140SAPE    HY15246   3.652   2.136  10.261 -1.1569  0.2670  0.6144
  140SAPE   O3115247   3.841   2.215  10.288  0.3911 -0.1764 -0.1981
  140SAPE   C3115248   3.891   2.137  10.195  1.0527  0.0355  0.4531
  140SAPE   O3215249   3.827   2.047  10.137  0.3154  0.1366  0.1601
  140SAPE   C3215250   4.040   2.164  10.183 -0.1962  0.1034  0.1314
  140SAPE   H2X15251   4.091   2.065  10.190  0.8000  0.4909 -1.2763
  140SAPE   H2Y15252   4.070   2.228  10.269 -0.6609 -2.2113  2.1259
  140SAPE   C2315253   3.695   1.676  10.252 -0.0398  0.3639 -0.2501
  140SAPE   H3R15254   3.606   1.656  10.315  0.6741 -1.3457  0.2578
  140SAPE   H3S15255   3.757   1.586  10.235  0.7886  1.2352 -2.1372
  140SAPE   C2415256   3.651   1.726  10.114  0.2041  0.7073 -0.0242
  140SAPE   H4R15257   3.746   1.752  10.064  1.0718 -1.6373  0.3053
  140SAPE   H4S15258   3.581   1.812  10.127  0.5413  1.0851 -0.6579
  140SAPE   C2515259   3.573   1.623  10.038  0.1801 -0.4486  0.4303
  140SAPE   H5R15260   3.483   1.590  10.091 -0.1833 -0.7436 -0.3663
  140SAPE   C2615261   3.608   1.586   9.917 -0.1503  0.0041  0.3139
  140SAPE   H6R15262   3.548   1.511   9.865  2.2960  0.2852 -3.3092
  140SAPE   C2715263   3.736   1.623   9.848 -0.2416 -0.6019  0.4124
  140SAPE   H7R15264   3.821   1.638   9.919 -0.0893  1.9266 -0.2155
  140SAPE   H7S15265   3.741   1.728   9.811  0.8163 -0.2074  1.6070
  140SAPE   C2815266   3.792   1.514   9.761  0.4653 -0.7550  0.3642
  140SAPE   H8R15267   3.850   1.435   9.812  3.2684 -0.1133 -1.6125
  140SAPE   C2915268   3.783   1.512   9.628  0.4626 -0.0192  0.0741
  140SAPE   H9R15269   3.830   1.423   9.583  0.0251 -0.4173  0.3900
  140SAPE  C21015270   3.731   1.621   9.544 -0.0203  0.5961 -0.4886
  140SAPE  H10R15271   3.637   1.654   9.592  0.7358  0.5524  1.0901
  140SAPE  H10S15272   3.702   1.579   9.446 -0.1740  0.7848 -0.5253
  140SAPE  C21115273   3.834   1.730   9.515 -0.4524 -0.6501  0.0919
  140SAPE  H11R15274   3.863   1.791   9.602  0.1787  0.0972 -0.6182
  140SAPE  C21215275   3.910   1.748   9.405 -0.0858 -0.8537 -0.4728
  140SAPE  H12R15276   3.982   1.831   9.402 -0.6062 -0.4162 -0.9254
  140SAPE  C21315277   3.903   1.661   9.280 -0.6179 -0.4724  0.4836
  140SAPE  H13R15278   3.797   1.628   9.279 -1.8664  2.9823  1.6523
  140SAPE  H13S15279   3.952   1.567   9.313  1.2738  0.0712 -0.6682
  140SAPE  C21415280   3.982   1.700   9.151  0.4568  0.5906  0.1973
  140SAPE  H14R15281   4.035   1.796   9.166  0.4692  0.5257  0.5683
  140SAPE  C21515282   3.987   1.633   9.033  0.5030  0.6073  0.0385
  140SAPE  H15R15283   4.038   1.676   8.945 -1.2390  1.0712 -0.7818
  140SAPE  C21615284   3.921   1.500   9.000 -0.5413  0.2508  0.4503
  140SAPE  H16R15285   3.881   1.466   9.098 -1.5420 -0.3605 -0.1500
  140SAPE  H16S15286   3.998   1.427   8.967  0.5894  1.4098  0.4282
  140SAPE  C21715287   3.797   1.498   8.914  0.4235  0.4696 -0.5538
  140SAPE  H17R15288   3.733   1.585   8.940 -1.1232 -0.7476 -0.1565
  140SAPE  H17S15289   3.725   1.417   8.940  3.0420 -2.0039 -0.4595
  140SAPE  C21815290   3.827   1.490   8.765  0.3920  0.8583  0.5014
  140SAPE  H18R15291   3.901   1.409   8.748  0.0848  0.5862  0.4520
  140SAPE  H18S15292   3.885   1.584   8.753  0.9490  0.8608  2.7813
  140SAPE  C21915293   3.699   1.474   8.684 -0.1931 -0.0543  0.6423
  140SAPE  H19R15294   3.620   1.550   8.701 -1.1127 -0.9623  0.5685
  140SAPE  H19S15295   3.649   1.380   8.717 -1.0133 -0.1525 -0.7920
  140SAPE  C22015296   3.717   1.443   8.532 -0.3831 -1.1068 -0.2168
  140SAPE  H20R15297   3.784   1.357   8.512  3.7242  2.0813 -1.4739
  140SAPE  H20S15298   3.757   1.529   8.475  1.8765 -1.7290  0.3300
  140SAPE  H20T15299   3.613   1.417   8.502  0.1134 -0.6048 -2.5206
  140SAPE   C3315300   4.085   2.211  10.039  0.0107  0.1313  0.2492
  140SAPE   H3X15301   4.194   2.233  10.036  0.0566 -0.1914 -2.5628
  140SAPE   H3Y15302   4.038   2.308  10.017  0.5769  0.3164 -0.1839
  140SAPE   C3415303   4.056   2.125   9.917  0.2907  0.4776 -0.5718
  140SAPE   H4X15304   3.953   2.083   9.923  0.1063  0.7072 -1.9062
  140SAPE   H4Y15305   4.119   2.034   9.929 -1.0593 -0.3364  0.8306
  140SAPE   C3515306   4.082   2.187   9.789 -0.3298 -0.1390  0.8415
  140SAPE   H5X15307   4.176   2.247   9.789 -0.9053  0.7861  0.6274
  140SAPE   H5Y15308   3.997   2.257   9.774 -1.5746 -1.6155  0.8234
  140SAPE   C3615309   4.105   2.091   9.673 -0.8505 -0.3437 -0.0627
  140SAPE   H6X15310   4.020   2.019   9.670  0.4828 -1.9956  0.2730
  140SAPE   H6Y15311   4.199   2.036   9.693  1.1127  2.1908 -1.7348
  140SAPE   C3715312   4.121   2.172   9.548 -0.0235  0.3276  0.5039
  140SAPE   H7X15313   4.207   2.242   9.543  2.0579 -2.1291 -3.8239
  140SAPE   H7Y15314   4.026   2.228   9.533 -1.9183 -3.0686 -1.5920
  140SAPE   C3815315   4.135   2.096   9.412  0.1080  0.4006  0.0654
  140SAPE   H8X15316   4.114   2.172   9.333 -1.3144 -1.7541 -1.7585
  140SAPE   H8Y15317   4.068   2.007   9.412 -0.5853  0.9099  0.4730
  140SAPE   C3915318   4.272   2.042   9.376  0.1323 -0.9581  0.4088
  140SAPE   H9X15319   4.318   1.993   9.465  1.0933 -3.1396 -1.2129
  140SAPE   H9Y15320   4.335   2.132   9.356  0.7174 -1.1670  1.2479
  140SAPE  C31015321   4.276   1.943   9.258 -0.3989 -0.2509 -0.2887
  140SAPE  H10X15322   4.228   1.847   9.288 -0.6441 -0.2273 -0.6067
  140SAPE  H10Y15323   4.381   1.915   9.236  0.1145 -0.3536  2.0000
  140SAPE  C31115324   4.200   1.993   9.140 -0.4444  0.0990 -0.7055
  140SAPE  H11X15325   4.092   2.011   9.160 -0.9745 -0.3748 -2.8356
  140SAPE  H11Y15326   4.197   1.913   9.062  2.0468 -2.0666  1.2271
  140SAPE  C31215327   4.271   2.111   9.073  0.4924  0.3473  0.4361
  140SAPE  H12X15328   4.252   2.201   9.135 -2.6603  0.0492  0.0263
  140SAPE  H12Y15329   4.216   2.128   8.979  2.2531 -0.2073 -0.7488
  140SAPE  C31315330   4.415   2.089   9.035 -0.1917  0.1667 -0.4087
  140SAPE  H13X15331   4.423   1.987   8.992 -0.2003  0.9732 -2.4639
  140SAPE  H13Y15332   4.494   2.108   9.110 -0.7553  0.7112  0.0604
  140SAPE  C31415333   4.440   2.182   8.923  0.6808 -0.3716 -0.1015
  140SAPE  H14X15334   4.433   2.290   8.948  1.0565 -0.2335 -0.5743
  140SAPE  H14Y15335   4.365   2.168   8.843  0.5285  1.6013 -0.3425
  140SAPE  C31515336   4.577   2.142   8.853 -0.4341  0.1590  1.0028
  140SAPE  H15X15337   4.575   2.040   8.809  0.7107  0.5178  0.0665
  140SAPE  H15Y15338   4.660   2.141   8.926  0.5943 -0.7184 -0.1315
  140SAPE  C31615339   4.608   2.242   8.740 -0.3758 -0.7489  0.2797
  140SAPE  H16X15340   4.582   2.341   8.783  2.7906  0.2994  0.0684
  140SAPE  H16Y15341   4.556   2.206   8.649  0.8867 -2.1699  0.0744
  140SAPE  C31715342   4.755   2.252   8.709  0.0613  0.0060  0.3966
  140SAPE  H17X15343   4.814   2.281   8.799  0.6971  0.0308 -0.0251
  140SAPE  H17Y15344   4.764   2.333   8.633 -0.6631 -0.3977 -0.1321
  140SAPE  C31815345   4.828   2.130   8.650 -1.4191 -0.2986  0.9477
  140SAPE  H18X15346   4.789   2.089   8.555  3.8260 -1.0064 -1.2268
  140SAPE  H18Y15347   4.839   2.056   8.733  1.8575 -0.8196  0.1517
  140SAPE  H18Z15348   4.930   2.165   8.624 -1.5649 -0.3178  0.3462
  141SAPE     N15349   4.773   3.837  10.958 -0.1695 -0.0238  0.4581
  141SAPE   HN115350   4.835   3.759  10.987  1.2237  1.0925  0.6346
  141SAPE   HN215351   4.834   3.922  10.961 -0.8762  0.4703  1.1272
  141SAPE   HN315352   4.692   3.844  11.022 -0.9129  0.9946 -0.5575
  141SAPE   C1215353   4.735   3.803  10.820  0.1767  0.7067 -0.0575
  141SAPE  H12A15354   4.829   3.784  10.764  0.4910 -0.2166  0.7568
  141SAPE  H12B15355   4.669   3.872  10.765 -0.7872 -0.3983 -0.3279
  141SAPE   C1115356   4.665   3.663  10.817 -0.3700  0.4255 -0.1276
  141SAPE  H11A15357   4.729   3.575  10.840 -2.2426 -0.0947  3.9989
  141SAPE  H11B15358   4.621   3.650  10.716  1.6494  3.1435 -1.4973
  141SAPE     P15359   4.492   3.538  10.959  0.5906  0.1479 -0.4003
  141SAPE   O1315360   4.584   3.492  11.066 -0.1009  0.1978  0.5568
  141SAPE   O1415361   4.353   3.548  11.010 -0.5220  0.4230  0.3694
  141SAPE   O1215362   4.548   3.666  10.902  0.2845 -0.3052  0.1253
  141SAPE   O1115363   4.505   3.432  10.846  0.3049  0.1385 -0.4168
  141SAPE    C115364   4.415   3.430  10.731  0.2979 -0.2022 -0.0416
  141SAPE    HA15365   4.313   3.395  10.756  0.5442 -1.0276 -0.1693
  141SAPE    HB15366   4.412   3.534  10.694 -0.7151  0.5506  2.0033
  141SAPE    C215367   4.467   3.340  10.614  0.5658  0.0074 -0.0785
  141SAPE    HS15368   4.472   3.233  10.642  1.0903 -0.5600 -2.1628
  141SAPE   O2115369   4.594   3.385  10.565 -0.5534  0.0859  0.4715
  141SAPE   C2115370   4.690   3.352  10.652 -0.6328  0.1690 -0.4668
  141SAPE   O2215371   4.684   3.271  10.745 -0.0971  0.2497  0.2437
  141SAPE   C2215372   4.806   3.442  10.605  0.1937 -0.6763  0.1959
  141SAPE   H2R15373   4.832   3.426  10.498 -3.6669  1.5297 -1.2779
  141SAPE   H2S15374   4.770   3.547  10.600 -1.4273 -1.1134  1.6365
  141SAPE    C315375   4.359   3.336  10.506 -0.1283  0.6140  0.0112
  141SAPE    HX15376   4.328   3.438  10.474 -1.0682  0.3746  0.1471
  141SAPE    HY15377   4.270   3.283  10.546 -0.1548 -0.1888 -1.0718
  141SAPE   O3115378   4.408   3.249  10.411 -0.2321  0.1577  1.2118
  141SAPE   C3115379   4.433   3.288  10.289  0.1834  0.2020  0.0306
  141SAPE   O3215380   4.406   3.398  10.237 -0.8163 -0.6613 -0.4568
  141SAPE   C3215381   4.506   3.173  10.217 -0.5222  0.7795  0.4622
  141SAPE   H2X15382   4.453   3.076  10.231  0.7811 -0.0741 -0.2276
  141SAPE   H2Y15383   4.602   3.155  10.270 -1.2050  0.9644  1.7962
  141SAPE   C2315384   4.938   3.430  10.692  0.3831  1.2569  0.2838
  141SAPE   H3R15385   4.919   3.437  10.801  1.7957  0.7499  0.5804
  141SAPE   H3S15386   5.013   3.506  10.661  2.0361 -0.0765  0.8444
  141SAPE   C2415387   5.000   3.286  10.676  0.6195 -0.5982  0.1186
  141SAPE   H4R15388   4.925   3.204  10.672  1.9941 -1.8746 -2.4166
  141SAPE   H4S15389   5.059   3.254  10.764 -0.0345 -1.0716  0.3930
  141SAPE   C2515390   5.071   3.281  10.543  0.1566  0.3288  0.1086
  141SAPE   H5R15391   5.162   3.342  10.530  1.0741 -1.1005 -0.4103
  141SAPE   C2615392   5.034   3.204  10.437  0.0861 -0.6633  0.5354
  141SAPE   H6R15393   5.111   3.211  10.359  1.7129  2.2441  2.2433
  141SAPE   C2715394   4.918   3.109  10.417 -0.6468  0.9169 -0.1419
  141SAPE   H7R15395   4.920   3.083  10.309  0.1001 -2.2286  0.5144
  141SAPE   H7S15396   4.821   3.151  10.452 -0.6011  2.0478 -1.2846
  141SAPE   C2815397   4.944   2.976  10.494 -0.5032  0.2995  0.3036
  141SAPE   H8R15398   5.045   2.971  10.537 -0.0018  0.6737 -0.7949
  141SAPE   C2915399   4.858   2.874  10.520 -0.0988 -0.0428  0.2407
  141SAPE   H9R15400   4.893   2.781  10.568 -0.6005 -0.2886  0.1406
  141SAPE  C21015401   4.719   2.872  10.461 -0.0133 -0.1660  0.2041
  141SAPE  H10R15402   4.679   2.774  10.493 -1.6748  0.7583  1.0928
  141SAPE  H10S15403   4.721   2.886  10.351  2.3992 -0.0150  0.2155
  141SAPE  C21115404   4.615   2.970  10.518 -0.1197 -0.2163 -0.2285
  141SAPE  H11R15405   4.644   3.067  10.561 -0.4475 -1.2193  2.4421
  141SAPE  C21215406   4.482   2.946  10.511  0.5128 -0.0071  0.1928
  141SAPE  H12R15407   4.415   3.023  10.553 -0.2542  0.0225 -1.0451
  141SAPE  C21315408   4.419   2.819  10.459 -0.0754 -0.6838  0.0433
  141SAPE  H13R15409   4.477   2.790  10.368  0.7435  0.2851  0.2392
  141SAPE  H13S15410   4.319   2.843  10.418  0.5905  1.4522 -0.4437
  141SAPE  C21415411   4.414   2.707  10.561 -0.9005 -0.4419 -0.1663
  141SAPE  H14R15412   4.448   2.721  10.665 -1.5860 -0.2229  0.0352
  141SAPE  C21515413   4.369   2.584  10.528 -0.6324 -0.8433 -0.2258
  141SAPE  H15R15414   4.373   2.502  10.600  0.2921 -1.3596 -0.8433
  141SAPE  C21615415   4.309   2.543  10.398 -0.6614  0.0746  0.1474
  141SAPE  H16R15416   4.271   2.621  10.329 -2.6176 -0.5598  0.4376
  141SAPE  H16S15417   4.218   2.482  10.418  0.1886 -1.4853 -0.5275
  141SAPE  C21715418   4.403   2.446  10.325  0.9175  0.8353 -0.2676
  141SAPE  H17R15419   4.343   2.406  10.241  1.1027  0.3464 -0.1721
  141SAPE  H17S15420   4.447   2.359  10.379  0.8553 -0.3105 -1.9909
  141SAPE  C21815421   4.518   2.517  10.250  0.3614  1.1579 -0.3877
  141SAPE  H18R15422   4.597   2.442  10.229 -0.7199 -0.3985  0.8658
  141SAPE  H18S15423   4.559   2.596  10.317 -1.0991 -0.0179  2.0578
  141SAPE  C21915424   4.486   2.575  10.104 -0.1036 -0.5683 -0.4456
  141SAPE  H19R15425   4.407   2.511  10.059 -1.8259  1.4532 -0.4553
  141SAPE  H19S15426   4.579   2.580  10.044  0.0689  0.6001 -0.0999
  141SAPE  C22015427   4.442   2.721  10.103 -0.5907 -0.2442  0.0352
  141SAPE  H20R15428   4.420   2.748   9.998  2.1999 -2.4885 -1.2820
  141SAPE  H20S15429   4.526   2.791  10.123 -1.0738  0.8540 -1.6223
  141SAPE  H20T15430   4.347   2.752  10.150 -0.7044 -0.4651 -0.0492
  141SAPE   C3315431   4.518   3.182  10.060 -0.2864 -0.3046  0.6575
  141SAPE   H3X15432   4.590   3.264  10.042 -1.9775  0.8729 -1.2132
  141SAPE   H3Y15433   4.422   3.218  10.017  0.2243  0.7848  0.3870
  141SAPE   C3415434   4.545   3.058   9.985  0.1992  0.3767 -0.2877
  141SAPE   H4X15435   4.453   2.997   9.997  0.6502 -0.2975 -0.2008
  141SAPE   H4Y15436   4.638   3.012  10.026 -0.8975 -1.6598  0.0617
  141SAPE   C3515437   4.558   3.079   9.835  0.5549 -0.6790  0.1854
  141SAPE   H5X15438   4.656   3.131   9.822  0.4682 -0.0870  1.7856
  141SAPE   H5Y15439   4.481   3.152   9.804 -0.7110 -0.4384  3.5008
  141SAPE   C3615440   4.558   2.951   9.752  0.2136 -0.0466  0.3190
  141SAPE   H6X15441   4.459   2.902   9.764 -1.3791  2.5629 -1.1976
  141SAPE   H6Y15442   4.635   2.874   9.777  0.3976 -0.2443 -0.7939
  141SAPE   C3715443   4.584   2.994   9.606 -0.4484  0.2358  0.0971
  141SAPE   H7X15444   4.675   3.058   9.603 -1.9308  2.4261 -1.0151
  141SAPE   H7Y15445   4.506   3.068   9.577  1.1177  2.0758  0.3318
  141SAPE   C3815446   4.581   2.874   9.515 -0.9145  0.5217  1.2044
  141SAPE   H8X15447   4.483   2.820   9.518 -1.6275  1.7135  0.3323
  141SAPE   H8Y15448   4.664   2.810   9.552  0.9100  1.8644 -0.3851
  141SAPE   C3915449   4.625   2.906   9.369 -0.3072 -0.2260 -0.2845
  141SAPE   H9X15450   4.677   2.815   9.332  1.1863  0.1238  0.8241
  141SAPE   H9Y15451   4.704   2.985   9.368  0.8045 -1.2594 -2.7134
  141SAPE  C31015452   4.509   2.955   9.271  0.4029 -0.1078  0.3624
  141SAPE  H10X15453   4.493   3.063   9.290 -1.0056  0.1931 -2.1006
  141SAPE  H10Y15454   4.425   2.885   9.293  0.9371 -0.9871 -0.2973
  141SAPE  C31115455   4.525   2.947   9.118 -0.4529 -0.2631 -0.1198
  141SAPE  H11X15456   4.606   3.017   9.089  0.4116 -1.7788 -1.5402
  141SAPE  H11Y15457   4.441   2.982   9.054  1.1746  0.0686 -2.1891
  141SAPE  C31215458   4.556   2.807   9.072 -0.0351  0.3714  0.2842
  141SAPE  H12X15459   4.468   2.745   9.099  0.0470  0.4630  0.7562
  141SAPE  H12Y15460   4.650   2.777   9.122  1.1897  1.4139 -1.2780
  141SAPE  C31315461   4.577   2.797   8.924 -0.0252 -0.1987  0.7683
  141SAPE  H13X15462   4.665   2.862   8.904  1.2525 -1.4889  1.9574
  141SAPE  H13Y15463   4.491   2.810   8.855 -1.4586 -1.5329  2.2160
  141SAPE  C31415464   4.627   2.652   8.898 -0.1476 -0.3315 -0.8914
  141SAPE  H14X15465   4.534   2.592   8.901 -1.4551  1.5030  3.4206
  141SAPE  H14Y15466   4.695   2.628   8.982 -1.5277 -0.9175  0.0925
  141SAPE  C31515467   4.705   2.639   8.775  0.2783 -0.6021  0.6843
  141SAPE  H15X15468   4.655   2.701   8.697  0.8285  0.4189  1.1165
  141SAPE  H15Y15469   4.696   2.539   8.728  1.7494 -0.5404  0.2174
  141SAPE  C31615470   4.852   2.679   8.761 -0.3338  0.3540  0.0095
  141SAPE  H16X15471   4.900   2.591   8.810 -1.2161 -1.6243 -2.4839
  141SAPE  H16Y15472   4.871   2.774   8.816  2.2834  0.4469 -0.9516
  141SAPE  C31715473   4.904   2.682   8.615  0.6886  0.3947  0.0946
  141SAPE  H17X15474   4.858   2.781   8.594 -1.3692 -0.4030  0.5783
  141SAPE  H17Y15475   4.867   2.594   8.557  1.8848  1.0494 -1.7873
  141SAPE  C31815476   5.050   2.693   8.601 -0.6068 -0.4390  0.1394
  141SAPE  H18X15477   5.085   2.690   8.495 -3.8197  1.0871 -1.1372
  141SAPE  H18Y15478   5.095   2.610   8.659 -1.0926 -0.1979  0.8649
  141SAPE  H18Z15479   5.089   2.788   8.642  0.3464 -1.4851  1.7642
  142SAPE     N15480   5.270   1.417  11.083 -0.1814  0.0189 -0.7694
  142SAPE   HN115481   5.304   1.327  11.124 -0.8483  0.7647  1.5676
  142SAPE   HN215482   5.347   1.455  11.024 -1.4313 -0.4666 -2.8238
  142SAPE   HN315483   5.252   1.493  11.152  0.1438  0.7617 -1.4919
  142SAPE   C1215484   5.153   1.406  10.995 -0.1425  0.2170 -0.2189
  142SAPE  H12A15485   5.066   1.375  11.056  0.7492 -2.2491 -0.0902
  142SAPE  H12B15486   5.170   1.326  10.920  2.2872  0.4491  0.0144
  142SAPE   C1115487   5.127   1.544  10.932  0.0092  0.4021 -0.7926
  142SAPE  H11A15488   5.049   1.527  10.855  0.1183 -0.8935 -0.6351
  142SAPE  H11B15489   5.213   1.589  10.879  0.9706  0.8716  1.0681
  142SAPE     P15490   4.932   1.669  11.062  0.0069  0.5719  0.2204
  142SAPE   O1315491   4.876   1.552  11.135 -0.2354 -0.1302  0.2867
  142SAPE   O1415492   4.925   1.796  11.137 -0.2309 -0.7167  1.0630
  142SAPE   O1215493   5.082   1.636  11.030  0.3617 -0.0450  1.0817
  142SAPE   O1115494   4.859   1.678  10.923 -0.3083 -0.0428 -0.7278
  142SAPE    C115495   4.883   1.795  10.843  0.6204  0.3623 -0.0227
  142SAPE    HA15496   4.803   1.866  10.875  0.2200  0.2416 -0.7293
  142SAPE    HB15497   4.984   1.839  10.852  0.5927  0.5298 -0.5108
  142SAPE    C215498   4.853   1.756  10.696  0.0152  0.0930  1.0896
  142SAPE    HS15499   4.743   1.741  10.704  0.0833 -0.0081  2.0079
  142SAPE   O2115500   4.930   1.637  10.660  0.0083 -0.0710 -0.7359
  142SAPE   C2115501   4.856   1.547  10.588  0.9381 -0.3705 -1.0081
  142SAPE   O2215502   4.749   1.580  10.534 -0.2997 -0.1742 -0.0943
  142SAPE   C2215503   4.934   1.426  10.573  0.0243  0.2361  0.9392
  142SAPE   H2R15504   4.977   1.380  10.665  2.1716 -0.3402 -0.2737
  142SAPE   H2S15505   4.864   1.351  10.529  0.1909  0.1715  0.7797
  142SAPE    C315506   4.907   1.871  10.603 -1.0468  0.2328  0.0469
  142SAPE    HX15507   5.018   1.865  10.607 -0.9159  1.8246 -0.4781
  142SAPE    HY15508   4.879   1.968  10.650 -1.2173 -0.6226  1.8223
  142SAPE   O3115509   4.870   1.867  10.468 -0.3988 -0.1868 -0.1983
  142SAPE   C3115510   4.747   1.903  10.439 -0.0013 -0.1933 -0.6096
  142SAPE   O3215511   4.670   1.949  10.517 -0.7232 -0.8990  0.6317
  142SAPE   C3215512   4.720   1.870  10.294 -0.0496  0.7404 -0.5640
  142SAPE   H2X15513   4.746   1.762  10.287  3.2807  1.5078 -2.1286
  142SAPE   H2Y15514   4.789   1.928  10.229  1.0853  1.1907  0.9650
  142SAPE   C2315515   5.052   1.463  10.487 -0.7006 -0.9224 -0.4256
  142SAPE   H3R15516   5.129   1.387  10.513 -0.0021  0.0334  0.3762
  142SAPE   H3S15517   5.101   1.557  10.521  2.2358 -1.8674 -1.6688
  142SAPE   C2415518   5.019   1.473  10.339 -0.0957 -0.7128 -0.0094
  142SAPE   H4R15519   4.934   1.543  10.328  1.2027  0.8669 -0.2693
  142SAPE   H4S15520   4.975   1.375  10.309  2.0169 -1.9545  0.6661
  142SAPE   C2515521   5.131   1.499  10.243  0.2631  0.0454 -0.5386
  142SAPE   H5R15522   5.209   1.422  10.247 -0.3925 -0.5865  1.7635
  142SAPE   C2615523   5.135   1.600  10.151  0.0981 -0.1055 -0.1851
  142SAPE   H6R15524   5.214   1.598  10.075 -1.2446 -0.1082 -1.6194
  142SAPE   C2715525   5.038   1.702  10.122 -0.1338 -0.2567 -0.5028
  142SAPE   H7R15526   4.938   1.669  10.156 -0.4767 -0.0360 -1.2624
  142SAPE   H7S15527   5.038   1.711  10.011 -0.3081 -3.5494 -0.8763
  142SAPE   C2815528   5.079   1.823  10.202 -0.3182  0.1298  0.3321
  142SAPE   H8R15529   5.083   1.801  10.309 -1.3480  0.6487  0.4884
  142SAPE   C2915530   5.114   1.949  10.158 -0.1039 -0.0906  0.3769
  142SAPE   H9R15531   5.140   2.026  10.232 -1.1185 -0.2635  0.9253
  142SAPE  C21015532   5.117   1.995  10.011 -0.1921  0.3452 -0.3333
  142SAPE  H10R15533   5.081   1.918   9.939  0.3349  0.4127 -0.6759
  142SAPE  H10S15534   5.221   2.030   9.992 -0.6302  1.3611 -0.9335
  142SAPE  C21115535   5.033   2.117   9.990 -0.0874 -0.3967 -0.1593
  142SAPE  H11R15536   4.968   2.138  10.076  0.9216 -0.2856  0.5949
  142SAPE  C21215537   5.031   2.198   9.884 -0.3072 -0.0775  0.5486
  142SAPE  H12R15538   4.957   2.279   9.882 -0.7180 -0.4555 -0.9087
  142SAPE  C21315539   5.120   2.184   9.755 -0.0453  0.0235  0.5829
  142SAPE  H13R15540   5.209   2.121   9.775  0.3115 -0.1171 -1.2263
  142SAPE  H13S15541   5.177   2.277   9.733  1.3705 -0.7462  0.8508
  142SAPE  C21415542   5.063   2.130   9.627 -0.3463 -0.1234  0.0877
  142SAPE  H14R15543   5.036   2.024   9.632  2.0426 -0.9077 -1.6941
  142SAPE  C21515544   5.057   2.198   9.510  0.5424 -0.2875 -0.5200
  142SAPE  H15R15545   5.017   2.155   9.417 -0.4257 -0.5130 -0.0147
  142SAPE  C21615546   5.100   2.347   9.496 -0.2809  0.7151 -1.0976
  142SAPE  H16R15547   5.080   2.397   9.593 -1.8237 -0.1881 -0.9038
  142SAPE  H16S15548   5.027   2.392   9.424 -2.0139 -1.9273 -1.1505
  142SAPE  C21715549   5.244   2.373   9.452 -0.0826 -0.3435 -0.0153
  142SAPE  H17R15550   5.259   2.313   9.360  2.1197  1.9278 -1.2621
  142SAPE  H17S15551   5.304   2.334   9.537 -0.7686 -1.1482  0.1085
  142SAPE  C21815552   5.276   2.521   9.425 -0.4423  0.1836 -0.1718
  142SAPE  H18R15553   5.249   2.583   9.513  1.1500  1.7376 -0.7282
  142SAPE  H18S15554   5.217   2.552   9.336  0.1206  1.8578  0.0129
  142SAPE  C21915555   5.425   2.542   9.393  0.9885 -0.1000 -0.1245
  142SAPE  H19R15556   5.434   2.639   9.340 -2.0820 -0.7015 -2.0022
  142SAPE  H19S15557   5.469   2.460   9.332  0.5090  0.1596 -0.8371
  142SAPE  C22015558   5.505   2.558   9.521  0.1828 -0.0221 -1.2030
  142SAPE  H20R15559   5.484   2.476   9.594  2.3764 -1.5121 -2.1398
  142SAPE  H20S15560   5.468   2.652   9.568 -2.9462 -2.1483  1.0086
  142SAPE  H20T15561   5.615   2.560   9.507  0.3837 -2.1793 -0.3431
  142SAPE   C3315562   4.572   1.887  10.252  0.3719  0.0128  0.2353
  142SAPE   H3X15563   4.501   1.849  10.329  2.6416 -0.6227  2.1455
  142SAPE   H3Y15564   4.552   1.836  10.156  0.2552  0.9597 -0.2587
  142SAPE   C3415565   4.541   2.034  10.229 -0.6461  0.2343 -0.5398
  142SAPE   H4X15566   4.562   2.100  10.316  0.9700 -0.5016 -0.3375
  142SAPE   H4Y15567   4.432   2.044  10.214 -0.4010  0.6555 -2.1866
  142SAPE   C3515568   4.605   2.089  10.107  0.7554  0.1559 -0.1865
  142SAPE   H5X15569   4.586   2.012  10.029  1.9183 -0.1765 -0.1614
  142SAPE   H5Y15570   4.714   2.090  10.127  0.7511  0.0710 -0.1613
  142SAPE   C3615571   4.530   2.214  10.052  0.0094  0.2036 -0.0860
  142SAPE   H6X15572   4.543   2.298  10.124  0.6731 -0.3541  0.4584
  142SAPE   H6Y15573   4.426   2.178  10.041 -1.2494  2.9749  1.6134
  142SAPE   C3715574   4.578   2.252   9.915 -0.2163 -0.3388  0.3769
  142SAPE   H7X15575   4.608   2.159   9.861  0.6566 -0.0478  0.3402
  142SAPE   H7Y15576   4.670   2.315   9.915 -0.6560  0.3160  0.1967
  142SAPE   C3815577   4.475   2.328   9.818 -0.5952  0.3372 -0.9376
  142SAPE   H8X15578   4.459   2.430   9.860 -0.5183  0.3025 -0.8221
  142SAPE   H8Y15579   4.383   2.269   9.838  0.7430 -1.6550 -0.2518
  142SAPE   C3915580   4.512   2.334   9.667 -0.1008 -0.4838 -0.5813
  142SAPE   H9X15581   4.416   2.345   9.612 -0.1038  0.4550 -0.4022
  142SAPE   H9Y15582   4.557   2.247   9.614  1.5094  0.5076 -0.8851
  142SAPE  C31015583   4.600   2.458   9.637 -0.5120 -0.3263 -0.2027
  142SAPE  H10X15584   4.677   2.477   9.715 -0.4477  0.9348 -0.5436
  142SAPE  H10Y15585   4.529   2.543   9.626  0.6607  0.5651 -1.1007
  142SAPE  C31115586   4.676   2.458   9.508  0.1441  0.2492 -0.1000
  142SAPE  H11X15587   4.729   2.360   9.515  2.7014  1.6878  2.5435
  142SAPE  H11Y15588   4.754   2.536   9.503  0.5921  0.0752  2.6371
  142SAPE  C31215589   4.585   2.467   9.386  0.3427  0.4620  0.3751
  142SAPE  H12X15590   4.515   2.552   9.396  0.1794  0.2422  1.2347
  142SAPE  H12Y15591   4.530   2.371   9.379  1.5268 -0.2891  0.9828
  142SAPE  C31315592   4.657   2.510   9.259 -0.5843  0.2213  0.1103
  142SAPE  H13X15593   4.712   2.606   9.262  0.4059 -0.3010 -0.5438
  142SAPE  H13Y15594   4.582   2.535   9.181  1.1606  0.6463 -1.5308
  142SAPE  C31415595   4.748   2.391   9.208  0.3073 -0.1752 -0.6464
  142SAPE  H14X15596   4.687   2.299   9.192  1.6157 -1.0379 -0.8723
  142SAPE  H14Y15597   4.821   2.377   9.290  0.3384 -0.9015 -0.7857
  142SAPE  C31515598   4.819   2.416   9.077 -0.6797  0.2124  0.3727
  142SAPE  H15X15599   4.870   2.513   9.090  1.6536 -0.9059  0.1210
  142SAPE  H15Y15600   4.755   2.433   8.988  0.3434  0.0273 -0.4170
  142SAPE  C31615601   4.935   2.311   9.067  1.1070 -0.0913  0.3509
  142SAPE  H16X15602   4.878   2.217   9.050 -2.0185  2.0610 -2.2695
  142SAPE  H16Y15603   4.981   2.292   9.166 -3.9085 -2.9001  2.5212
  142SAPE  C31715604   5.042   2.330   8.969 -1.2340 -0.0600 -0.5063
  142SAPE  H17X15605   4.997   2.357   8.871  0.9804  0.3502 -1.4882
  142SAPE  H17Y15606   5.103   2.237   8.959 -0.0698  0.5390  0.7370
  142SAPE  C31815607   5.130   2.450   9.006 -0.6943  0.2286  0.0897
  142SAPE  H18X15608   5.204   2.434   9.087  1.8874  2.4374 -1.6323
  142SAPE  H18Y15609   5.077   2.534   9.056 -1.4093 -0.8962  1.2771
  142SAPE  H18Z15610   5.186   2.492   8.920 -1.4424  1.0312 -0.0133
  143SAPE     N15611   5.871   2.799  11.099  0.2339  0.0523  0.0782
  143SAPE   HN115612   5.845   2.898  11.118  1.0147  0.1634  0.6203
  143SAPE   HN215613   5.789   2.741  11.124 -0.0010  0.9946  1.6268
  143SAPE   HN315614   5.948   2.757  11.155  0.0057 -0.6759 -0.1431
  143SAPE   C1215615   5.911   2.789  10.957  0.0126  0.0178 -0.2550
  143SAPE  H12A15616   5.830   2.839  10.899 -1.2250 -2.7673 -1.1266
  143SAPE  H12B15617   5.904   2.683  10.922  0.1133  0.6777 -2.4480
  143SAPE   C1115618   6.046   2.845  10.928 -0.3178  0.2794  0.1155
  143SAPE  H11A15619   6.047   2.956  10.934 -0.5751  0.3553 -1.0579
  143SAPE  H11B15620   6.073   2.820  10.823  1.0807 -3.7094  1.2273
  143SAPE     P15621   6.256   2.690  10.976 -0.0209  0.3797  0.1738
  143SAPE   O1315622   6.307   2.627  11.099 -0.0986  0.7818 -0.2939
  143SAPE   O1415623   6.201   2.605  10.871 -0.1437 -0.2370 -0.4518
  143SAPE   O1215624   6.142   2.793  11.018 -0.3296  0.5139  0.4399
  143SAPE   O1115625   6.373   2.775  10.918 -0.3368  0.7562 -0.0260
  143SAPE    C115626   6.367   2.858  10.805  0.1251 -0.1946 -0.1252
  143SAPE    HA15627   6.262   2.859  10.768 -0.4848 -2.3542  1.3295
  143SAPE    HB15628   6.391   2.962  10.836  0.5048 -1.2140  3.3930
  143SAPE    C215629   6.448   2.798  10.681 -0.5094  1.3492 -0.2223
  143SAPE    HS15630   6.426   2.861  10.592  0.0899  0.7563 -0.8063
  143SAPE   O2115631   6.410   2.662  10.645  0.0554 -0.2773 -0.0489
  143SAPE   C2115632   6.288   2.653  10.600 -0.1433  0.0880  0.0478
  143SAPE   O2215633   6.208   2.741  10.574 -0.0056 -0.0538  0.5580
  143SAPE   C2215634   6.254   2.507  10.571  0.6052 -0.3262  0.1354
  143SAPE   H2R15635   6.238   2.454  10.667  1.3218 -1.6163 -0.4187
  143SAPE   H2S15636   6.157   2.502  10.516 -0.6633 -1.3937  2.3612
  143SAPE    C315637   6.594   2.788  10.718  0.0520  0.2773  0.5123
  143SAPE    HX15638   6.606   2.702  10.788 -0.1573  0.8857  1.3089
  143SAPE    HY15639   6.620   2.881  10.773  0.0593  1.1684 -0.9435
  143SAPE   O3115640   6.671   2.775  10.594  0.4554 -0.3043 -0.1483
  143SAPE   C3115641   6.734   2.670  10.566 -0.6873 -0.3967 -0.0407
  143SAPE   O3215642   6.744   2.568  10.637 -0.1712 -0.1111  0.2190
  143SAPE   C3215643   6.772   2.692  10.416  0.2412 -0.1700 -0.4302
  143SAPE   H2X15644   6.856   2.765  10.409 -1.0601  1.5904  1.1772
  143SAPE   H2Y15645   6.675   2.720  10.370  0.4259 -0.0166 -0.7300
  143SAPE   C2315646   6.378   2.438  10.498  0.6970  0.8475  0.4335
  143SAPE   H3R15647   6.369   2.327  10.507  0.9172  0.3929 -3.3354
  143SAPE   H3S15648   6.460   2.453  10.571  0.2903 -0.5135  1.2169
  143SAPE   C2415649   6.404   2.481  10.354  0.4030 -0.2496  0.1037
  143SAPE   H4R15650   6.498   2.433  10.318 -0.9071 -1.9255 -1.2371
  143SAPE   H4S15651   6.442   2.585  10.350 -0.4658  0.1742  1.7050
  143SAPE   C2515652   6.295   2.462  10.256  1.3148 -0.0374 -0.9140
  143SAPE   H5R15653   6.219   2.385  10.274  1.2050  0.0931 -0.8053
  143SAPE   C2615654   6.266   2.551  10.154 -0.6898  0.9158  0.1322
  143SAPE   H6R15655   6.177   2.533  10.092  0.0827  1.8254 -1.2896
  143SAPE   C2715656   6.347   2.671  10.120  0.9871  0.0947  1.0368
  143SAPE   H7R15657   6.454   2.643  10.131  1.8635  2.0839 -1.3386
  143SAPE   H7S15658   6.327   2.762  10.181  2.7358  1.4670 -0.3344
  143SAPE   C2815659   6.319   2.702   9.978  0.1905  0.2521  0.6797
  143SAPE   H8R15660   6.335   2.622   9.905 -0.3560  0.1229  0.6913
  143SAPE   C2915661   6.261   2.811   9.931 -0.8492 -0.5802  0.0888
  143SAPE   H9R15662   6.254   2.825   9.822  1.1819 -0.4077 -0.0404
  143SAPE  C21015663   6.207   2.936  10.000 -0.3071  0.4035 -0.2194
  143SAPE  H10R15664   6.283   3.016   9.987  0.0133 -0.1170 -1.7509
  143SAPE  H10S15665   6.210   2.910  10.108  2.5800 -3.5689 -1.0297
  143SAPE  C21115666   6.074   2.982   9.952 -0.2617  0.4443 -0.5698
  143SAPE  H11R15667   5.991   2.940  10.011  1.3725  0.4388  1.8260
  143SAPE  C21215668   6.043   3.048   9.840 -0.3231  0.0990 -0.0127
  143SAPE  H12R15669   5.942   3.090   9.834  0.2093  1.8426  2.0204
  143SAPE  C21315670   6.140   3.099   9.734  0.5763 -0.7688  0.8272
  143SAPE  H13R15671   6.242   3.116   9.774  0.0745  0.9516  1.4508
  143SAPE  H13S15672   6.101   3.201   9.717 -0.0519 -0.3742  4.0901
  143SAPE  C21415673   6.161   3.030   9.601  0.5799  0.1422  0.2111
  143SAPE  H14R15674   6.124   2.927   9.599  1.8773 -0.3772 -3.1068
  143SAPE  C21515675   6.206   3.069   9.484  0.5494 -0.2030  0.1021
  143SAPE  H15R15676   6.209   2.998   9.400 -0.6086 -0.2417  0.0769
  143SAPE  C21615677   6.253   3.209   9.457 -0.1125 -0.2087 -0.0748
  143SAPE  H16R15678   6.191   3.285   9.508 -1.3226 -0.5040 -1.0564
  143SAPE  H16S15679   6.234   3.232   9.350 -0.2386  1.1785  0.2324
  143SAPE  C21715680   6.410   3.221   9.470 -0.2866  0.1717  0.2890
  143SAPE  H17R15681   6.443   3.324   9.447  0.9912 -0.0573  1.0015
  143SAPE  H17S15682   6.442   3.156   9.386 -0.1402  0.8286 -0.1687
  143SAPE  C21815683   6.459   3.176   9.612 -0.3155 -0.3824  0.8338
  143SAPE  H18R15684   6.428   3.069   9.622  0.4114 -0.6558  0.3097
  143SAPE  H18S15685   6.407   3.223   9.698 -0.0998  0.3414  0.5743
  143SAPE  C21915686   6.617   3.193   9.641  0.4372  0.0224 -0.6292
  143SAPE  H19R15687   6.653   3.297   9.623 -0.2152  0.2541 -0.6298
  143SAPE  H19S15688   6.659   3.135   9.556 -2.5615 -2.2097 -0.7839
  143SAPE  C22015689   6.666   3.131   9.777 -0.2223 -0.3449  0.1352
  143SAPE  H20R15690   6.649   3.203   9.860  1.0824  2.1652 -1.6339
  143SAPE  H20S15691   6.777   3.125   9.776 -0.1801 -0.3549  1.8987
  143SAPE  H20T15692   6.619   3.031   9.791 -1.2251 -0.1607 -1.7608
  143SAPE   C3315693   6.818   2.557  10.365 -0.3734  0.7644  0.5658
  143SAPE   H3X15694   6.745   2.474  10.376 -0.5231  0.5924 -1.2968
  143SAPE   H3Y15695   6.913   2.535  10.418 -0.2213  1.4802  0.6017
  143SAPE   C3415696   6.861   2.560  10.217  0.2022 -0.0239  1.0650
  143SAPE   H4X15697   6.905   2.461  10.194  0.9841  0.7184 -0.7996
  143SAPE   H4Y15698   6.941   2.637  10.206 -0.3772  0.2475 -2.0118
  143SAPE   C3515699   6.745   2.590  10.123 -0.0562  0.0264  0.2366
  143SAPE   H5X15700   6.692   2.679  10.163  0.8781  0.1999  1.1104
  143SAPE   H5Y15701   6.666   2.512  10.111  0.8201 -0.5614 -2.2724
  143SAPE   C3615702   6.795   2.631   9.978  0.4319  0.0558  0.3839
  143SAPE   H6X15703   6.856   2.558   9.922 -0.0058  1.3027 -1.8049
  143SAPE   H6Y15704   6.865   2.717   9.981  0.4053  0.2434 -2.2562
  143SAPE   C3715705   6.673   2.659   9.885 -0.5076 -0.1722  0.3407
  143SAPE   H7X15706   6.607   2.741   9.920  0.0960  0.8274 -0.8210
  143SAPE   H7Y15707   6.612   2.567   9.872 -0.2106 -0.8546  3.0618
  143SAPE   C3815708   6.707   2.709   9.740  0.7667  0.4837  0.0572
  143SAPE   H8X15709   6.763   2.628   9.690 -0.8405 -0.1606 -0.7878
  143SAPE   H8Y15710   6.785   2.787   9.743  0.7496  0.5006  0.0519
  143SAPE   C3915711   6.583   2.739   9.657  0.1451 -0.1643 -0.4197
  143SAPE   H9X15712   6.622   2.803   9.575  1.7900 -0.7357 -0.1144
  143SAPE   H9Y15713   6.513   2.801   9.718  1.2536  0.9984 -0.2820
  143SAPE  C31015714   6.506   2.617   9.598  0.1285 -0.0592  1.1042
  143SAPE  H10X15715   6.468   2.559   9.685  0.1932  0.4683  1.4871
  143SAPE  H10Y15716   6.585   2.562   9.542 -2.1450 -0.0649 -2.4535
  143SAPE  C31115717   6.390   2.655   9.506  0.1972  0.4934 -0.1019
  143SAPE  H11X15718   6.307   2.701   9.564  0.9076  0.3896  1.0390
  143SAPE  H11Y15719   6.342   2.562   9.468  1.1571 -1.5801  3.2116
  143SAPE  C31215720   6.429   2.738   9.387 -0.3348  0.1353 -0.6954
  143SAPE  H12X15721   6.495   2.824   9.412  0.3134  0.2380 -2.6060
  143SAPE  H12Y15722   6.343   2.777   9.329  0.6179 -0.2381 -2.4215
  143SAPE  C31315723   6.522   2.664   9.289  0.2322  0.0213 -0.4197
  143SAPE  H13X15724   6.473   2.567   9.268 -0.4634 -0.2675  2.2389
  143SAPE  H13Y15725   6.620   2.646   9.338 -1.4098  0.4862  3.3083
  143SAPE  C31415726   6.545   2.733   9.150  0.1554 -0.2030 -1.1211
  143SAPE  H14X15727   6.450   2.753   9.097  1.1403  0.4374 -2.7220
  143SAPE  H14Y15728   6.599   2.654   9.093  2.3814 -0.5995  1.2955
  143SAPE  C31515729   6.640   2.857   9.150  0.3151  0.2030 -0.4738
  143SAPE  H15X15730   6.588   2.942   9.199  2.0717  0.6405  0.7159
  143SAPE  H15Y15731   6.653   2.890   9.045 -0.7175  1.3773 -0.2593
  143SAPE  C31615732   6.775   2.833   9.206 -0.3401  0.4884 -0.2038
  143SAPE  H16X15733   6.829   2.754   9.150 -0.6958 -0.9041  1.3415
  143SAPE  H16Y15734   6.763   2.792   9.309 -3.0884  0.9596 -0.2600
  143SAPE  C31715735   6.863   2.964   9.185 -0.1208  0.0852  0.0603
  143SAPE  H17X15736   6.872   3.003   9.081  1.6797  1.8262  0.7824
  143SAPE  H17Y15737   6.964   2.934   9.221 -0.4503  0.2383  1.1746
  143SAPE  C31815738   6.813   3.083   9.271  1.0317  0.4180  0.1180
  143SAPE  H18X15739   6.740   3.132   9.205  0.1665 -0.1801  0.6145
  143SAPE  H18Y15740   6.894   3.153   9.303  0.8308  1.2445 -1.1266
  143SAPE  H18Z15741   6.772   3.048   9.368 -0.5977 -1.9353 -1.3073
  144SAPE     N15742   2.186   0.435  11.168 -0.5730  0.2039  0.3486
  144SAPE   HN115743   2.090   0.474  11.173  0.2941  2.2801  3.0913
  144SAPE   HN215744   2.204   0.375  11.251  3.4296 -1.0816 -1.1928
  144SAPE   HN315745   2.256   0.512  11.174  0.3801 -0.6058 -0.0722
  144SAPE   C1215746   2.207   0.344  11.059 -0.1812  0.1349  0.6186
  144SAPE  H12A15747   2.311   0.308  11.077 -0.2191 -0.0081  0.5542
  144SAPE  H12B15748   2.204   0.408  10.969 -1.5292  1.9083  1.8555
  144SAPE   C1115749   2.107   0.232  11.066 -1.2159  0.1696 -0.6669
  144SAPE  H11A15750   2.130   0.180  11.162  3.6653 -1.1867 -2.2737
  144SAPE  H11B15751   2.133   0.155  10.991  0.6830  0.0364  0.0614
  144SAPE     P15752   1.909   0.322  10.924 -0.3064 -0.3074 -0.0260
  144SAPE   O1315753   1.763   0.310  10.928 -0.1233 -0.0233  0.3494
  144SAPE   O1415754   1.967   0.452  10.881 -0.1740  0.1466 -0.2601
  144SAPE   O1215755   1.969   0.280  11.063  0.6092  0.3307 -0.2426
  144SAPE   O1115756   1.980   0.223  10.828  0.3686 -0.0145 -0.2980
  144SAPE    C115757   1.926   0.218  10.693  0.3122  0.0596 -0.2378
  144SAPE    HA15758   1.917   0.110  10.666  2.6005  0.3569 -2.6202
  144SAPE    HB15759   1.818   0.241  10.690  0.5540  2.1902  2.7757
  144SAPE    C215760   2.013   0.279  10.581 -0.4725 -0.1065  0.0038
  144SAPE    HS15761   2.029   0.386  10.606  1.2865 -0.3983  0.2481
  144SAPE   O2115762   1.944   0.252  10.454 -0.0190  0.2685 -0.2034
  144SAPE   C2115763   1.853   0.349  10.425 -0.0955  0.7437 -0.7471
  144SAPE   O2215764   1.826   0.445  10.493 -0.1870  0.2562  0.7124
  144SAPE   C2215765   1.798   0.329  10.278  0.6834  0.5011  0.2135
  144SAPE   H2R15766   1.728   0.244  10.289 -0.6440  1.4191 -0.8626
  144SAPE   H2S15767   1.730   0.414  10.255  1.5079  0.9905 -0.4839
  144SAPE    C315768   2.160   0.219  10.580 -0.5418 -0.0231 -0.3626
  144SAPE    HX15769   2.147   0.109  10.576 -1.6892  0.0885 -4.1450
  144SAPE    HY15770   2.220   0.241  10.670  0.7411  2.6645 -1.7610
  144SAPE   O3115771   2.238   0.256  10.460 -0.3010  0.5491  0.4664
  144SAPE   C3115772   2.307   0.362  10.467  0.0376 -0.2183 -0.7022
  144SAPE   O3215773   2.321   0.432  10.567  0.6012  0.0956 -0.1938
  144SAPE   C3215774   2.381   0.392  10.329  0.7941 -0.3546 -0.2260
  144SAPE   H2X15775   2.429   0.299  10.293  4.2095  2.3543 -3.5321
  144SAPE   H2Y15776   2.467   0.456  10.357  0.5124 -1.2272  3.0142
  144SAPE   C2315777   1.903   0.306  10.162  0.0613  0.6722  0.5906
  144SAPE   H3R15778   1.886   0.208  10.112 -0.1575  0.6218  0.7628
  144SAPE   H3S15779   2.004   0.298  10.207  0.3624 -1.6819 -0.3612
  144SAPE   C2415780   1.905   0.430  10.067 -0.3295  0.2062 -0.7681
  144SAPE   H4R15781   1.804   0.432  10.021 -0.2692 -0.0817 -0.9148
  144SAPE   H4S15782   1.968   0.401   9.980 -1.8605 -1.2388 -1.4431
  144SAPE   C2515783   1.933   0.574  10.115 -0.1919  0.4526 -0.9671
  144SAPE   H5R15784   1.979   0.585  10.214  1.5833  1.3263 -1.8308
  144SAPE   C2615785   1.915   0.680  10.039  0.0708  0.5716 -0.4557
  144SAPE   H6R15786   1.940   0.781  10.077 -1.8727  0.5439  1.1052
  144SAPE   C2715787   1.864   0.676   9.897  0.0340  0.5217  0.6032
  144SAPE   H7R15788   1.771   0.737   9.896 -0.2648  0.0697  0.5249
  144SAPE   H7S15789   1.831   0.574   9.865  1.7510  0.4970 -1.2384
  144SAPE   C2815790   1.965   0.746   9.810  0.0167  0.2590  0.1713
  144SAPE   H8R15791   2.020   0.820   9.870 -1.7197  0.9162  1.0233
  144SAPE   C2915792   1.981   0.733   9.678  0.5452  0.4130 -0.0358
  144SAPE   H9R15793   2.062   0.786   9.626 -0.0913  1.2844 -0.1509
  144SAPE  C21015794   1.890   0.654   9.593  0.1195  0.6576  0.4650
  144SAPE  H10R15795   1.846   0.724   9.519  0.6032 -0.0585 -0.5260
  144SAPE  H10S15796   1.808   0.613   9.656 -0.0624  0.7155  0.2688
  144SAPE  C21115797   1.958   0.545   9.508  0.4970  0.3106 -0.0602
  144SAPE  H11R15798   2.050   0.510   9.556 -0.6629 -1.2704  1.0948
  144SAPE  C21215799   1.911   0.500   9.389  0.0553  0.5298 -0.0042
  144SAPE  H12R15800   1.958   0.411   9.343  2.8222  0.8001  2.0573
  144SAPE  C21315801   1.785   0.558   9.326  0.1051  0.1945 -0.1015
  144SAPE  H13R15802   1.725   0.624   9.391 -1.5108 -0.6344 -0.7122
  144SAPE  H13S15803   1.716   0.474   9.302 -1.1232  0.7149  1.4909
  144SAPE  C21415804   1.827   0.618   9.193 -0.3706 -0.3297 -0.0974
  144SAPE  H14R15805   1.935   0.631   9.180  0.0895  0.9424  3.8417
  144SAPE  C21515806   1.741   0.648   9.100 -0.4007  0.3806 -0.0027
  144SAPE  H15R15807   1.784   0.701   9.013  1.0917  1.1985  1.1809
  144SAPE  C21615808   1.592   0.623   9.106  0.1121  0.2092 -0.3363
  144SAPE  H16R15809   1.537   0.716   9.085  1.7533  1.1861 -0.5067
  144SAPE  H16S15810   1.564   0.601   9.211  0.4168 -0.2723 -0.3495
  144SAPE  C21715811   1.540   0.511   9.012  0.0571 -0.1158  0.4050
  144SAPE  H17R15812   1.432   0.495   9.035 -0.1973 -1.3878 -1.4762
  144SAPE  H17S15813   1.595   0.415   9.027  0.1300  0.0846  1.5300
  144SAPE  C21815814   1.539   0.553   8.869 -0.5682  0.5529  0.8821
  144SAPE  H18R15815   1.644   0.576   8.842  0.2284  0.7353  3.8749
  144SAPE  H18S15816   1.488   0.651   8.852 -1.9905  0.0386  1.9563
  144SAPE  C21915817   1.498   0.443   8.769 -0.1931 -1.1376  0.3200
  144SAPE  H19R15818   1.387   0.452   8.772 -0.0563  0.7828  0.9588
  144SAPE  H19S15819   1.521   0.342   8.809 -2.8237 -2.2165 -0.6772
  144SAPE  C22015820   1.555   0.476   8.628 -0.1242 -0.0524 -0.1594
  144SAPE  H20R15821   1.491   0.549   8.575 -0.9008  0.4214  1.3619
  144SAPE  H20S15822   1.555   0.385   8.565  2.3861  0.2223 -0.6724
  144SAPE  H20T15823   1.656   0.519   8.644 -0.7268  1.1945  0.4571
  144SAPE   C3315824   2.283   0.448  10.226 -0.1381 -0.5574 -0.4468
  144SAPE   H3X15825   2.229   0.534  10.272 -1.4981 -1.0237 -1.1391
  144SAPE   H3Y15826   2.211   0.376  10.184  0.8896 -0.4570 -2.4909
  144SAPE   C3415827   2.358   0.496  10.101  0.2866  0.6396 -0.4036
  144SAPE   H4X15828   2.379   0.406  10.040 -2.4037  0.5680 -1.3377
  144SAPE   H4Y15829   2.450   0.552  10.129  0.3621 -1.0258  3.2176
  144SAPE   C3515830   2.274   0.589  10.007 -0.1375 -0.1288 -0.2454
  144SAPE   H5X15831   2.237   0.669  10.075 -0.6421 -0.5381 -0.0223
  144SAPE   H5Y15832   2.186   0.536   9.965  1.2207 -0.7632 -2.4250
  144SAPE   C3615833   2.357   0.647   9.892 -0.2705 -0.3682  0.0709
  144SAPE   H6X15834   2.449   0.694   9.932 -1.1467 -0.1381  1.9093
  144SAPE   H6Y15835   2.296   0.723   9.838  2.7628  2.5950  0.5606
  144SAPE   C3715836   2.398   0.542   9.790 -0.4743  0.2902  0.0727
  144SAPE   H7X15837   2.323   0.465   9.761 -2.0305 -0.6903  5.4969
  144SAPE   H7Y15838   2.484   0.491   9.840  0.0640 -0.5757 -1.6768
  144SAPE   C3815839   2.460   0.590   9.653 -0.3205 -0.8487 -0.2506
  144SAPE   H8X15840   2.528   0.511   9.613 -0.5815 -2.1217  1.6747
  144SAPE   H8Y15841   2.514   0.685   9.673 -0.8014 -0.8620  1.2354
  144SAPE   C3915842   2.350   0.617   9.552  0.4981  0.1618  0.3513
  144SAPE   H9X15843   2.287   0.704   9.578 -0.1048  0.1881 -1.1004
  144SAPE   H9Y15844   2.288   0.526   9.537 -2.5477  2.1912 -0.1436
  144SAPE  C31015845   2.403   0.667   9.413 -0.0979 -0.2683  0.5361
  144SAPE  H10X15846   2.481   0.592   9.386 -1.0532 -0.9016 -0.5304
  144SAPE  H10Y15847   2.447   0.769   9.415 -0.0517 -0.2718 -0.0804
  144SAPE  C31115848   2.296   0.648   9.309  0.1650  0.6566  0.4660
  144SAPE  H11X15849   2.208   0.715   9.327 -1.6318 -1.4161 -0.1616
  144SAPE  H11Y15850   2.258   0.546   9.331 -1.3478  1.1119  0.1414
  144SAPE  C31215851   2.348   0.667   9.164  0.6578  0.2641 -0.1627
  144SAPE  H12X15852   2.445   0.614   9.152 -0.6136 -2.0492 -0.8936
  144SAPE  H12Y15853   2.367   0.775   9.146  2.1884 -0.1504 -1.2271
  144SAPE  C31315854   2.255   0.587   9.071 -0.0815  0.4799  0.4692
  144SAPE  H13X15855   2.150   0.620   9.076 -0.9840 -1.8958 -1.0831
  144SAPE  H13Y15856   2.242   0.480   9.099  0.6977  0.0894 -0.5851
  144SAPE  C31415857   2.286   0.601   8.919  0.5522 -0.1536 -0.5080
  144SAPE  H14X15858   2.396   0.611   8.908  0.7805  0.3887  1.8725
  144SAPE  H14Y15859   2.251   0.695   8.872  0.2201  0.4993  1.0114
  144SAPE  C31515860   2.241   0.472   8.848 -0.2770  0.2187  0.4967
  144SAPE  H15X15861   2.290   0.383   8.894 -2.6020 -0.1695  2.4162
  144SAPE  H15Y15862   2.275   0.475   8.742 -2.8300  0.7793 -0.3712
  144SAPE  C31615863   2.100   0.433   8.840  0.0958 -0.4896 -0.3604
  144SAPE  H16X15864   2.055   0.513   8.777  2.1373  0.4023 -0.7611
  144SAPE  H16Y15865   2.067   0.462   8.943  0.3142 -0.0372 -0.4165
  144SAPE  C31715866   2.069   0.298   8.801  0.4491  0.3381  0.6119
  144SAPE  H17X15867   1.960   0.277   8.813  0.7710 -1.1741  1.1760
  144SAPE  H17Y15868   2.120   0.225   8.867  0.8271  0.3115  0.2956
  144SAPE  C31815869   2.107   0.263   8.655 -0.0387  0.0328  0.7566
  144SAPE  H18X15870   2.068   0.161   8.636 -2.7618  0.7784  1.8986
  144SAPE  H18Y15871   2.217   0.273   8.639  0.0662 -0.2838  1.2841
  144SAPE  H18Z15872   2.053   0.337   8.592  1.6449  0.2629 -0.4857
  145SAPE     N15873   0.060   1.247  11.243 -1.3538 -0.0511 -0.1060
  145SAPE   HN115874   0.056   1.172  11.315 -0.7005  1.3320  1.4206
  145SAPE   HN215875   0.072   1.200  11.151 -1.6245  0.0900 -0.2153
  145SAPE   HN315876   0.139   1.313  11.257 -2.3425  1.6135 -1.8543
  145SAPE   C1215877  -0.057   1.332  11.248  0.0879  0.3473 -0.7186
  145SAPE  H12A15878  -0.051   1.398  11.337 -0.6950  1.3006 -1.3631
  145SAPE  H12B15879  -0.145   1.266  11.260  0.9505 -1.0013 -1.5037
  145SAPE   C1115880  -0.059   1.415  11.116 -0.5135 -0.0339 -0.5642
  145SAPE  H11A15881  -0.149   1.479  11.121 -0.0831  0.8740 -2.9648
  145SAPE  H11B15882  -0.072   1.344  11.032 -0.2167 -0.2217 -0.4550
  145SAPE     P15883   0.071   1.639  11.044 -0.2611  0.1157 -0.2866
  145SAPE   O1315884   0.065   1.722  11.162  0.0472 -0.4765 -0.3915
  145SAPE   O1415885   0.185   1.653  10.948 -0.0239  0.4141  0.1466
  145SAPE   O1215886   0.054   1.491  11.084 -0.2356  0.4361 -0.8597
  145SAPE   O1115887  -0.063   1.675  10.968 -0.0200  0.1271 -0.0162
  145SAPE    C115888  -0.097   1.629  10.833 -0.7349 -0.5787  0.2307
  145SAPE    HA15889  -0.074   1.520  10.829 -1.0747 -0.6961  1.3472
  145SAPE    HB15890  -0.206   1.644  10.820 -0.6949  3.7554  3.0757
  145SAPE    C215891  -0.016   1.694  10.718 -0.3786 -0.4873 -0.2367
  145SAPE    HS15892   0.091   1.703  10.746 -0.6519  0.8002  0.4715
  145SAPE   O2115893  -0.082   1.815  10.695 -0.1959  0.0033 -0.1035
  145SAPE   C2115894  -0.012   1.926  10.701  0.4299 -0.9416  0.5506
  145SAPE   O2215895   0.108   1.936  10.708  0.0372  0.3234 -0.3937
  145SAPE   C2215896  -0.117   2.044  10.698  0.0506 -0.1018  0.0146
  145SAPE   H2R15897  -0.218   1.997  10.699 -0.6624  1.0896 -3.1030
  145SAPE   H2S15898  -0.103   2.098  10.793  1.7976 -1.8995  0.8514
  145SAPE    C315899  -0.026   1.608  10.588  0.3373  0.7627 -0.1187
  145SAPE    HX15900  -0.132   1.581  10.568  0.9085 -1.7838  0.0375
  145SAPE    HY15901   0.019   1.508  10.603 -1.7721 -0.1138  0.7972
  145SAPE   O3115902   0.025   1.680  10.473  0.4006  0.4316  0.6954
  145SAPE   C3115903   0.157   1.705  10.475  0.1707 -0.2704  0.0358
  145SAPE   O3215904   0.234   1.672  10.565  0.1774 -0.3419  0.1173
  145SAPE   C3215905   0.204   1.783  10.350  0.2974  0.4237  0.5111
  145SAPE   H2X15906   0.138   1.870  10.332 -0.6700 -0.2118  0.9476
  145SAPE   H2Y15907   0.198   1.711  10.266 -0.1669  0.8854  0.1468
  145SAPE   C2315908  -0.102   2.165  10.592 -0.4719  0.1041  0.4009
  145SAPE   H3R15909  -0.003   2.152  10.545 -0.2426 -1.7029  1.3163
  145SAPE   H3S15910  -0.089   2.265  10.639  2.9105 -0.0079 -0.0290
  145SAPE   C2415911  -0.208   2.162  10.488 -0.4871  0.0903 -0.0674
  145SAPE   H4R15912  -0.208   2.257  10.430 -2.4638  1.1332  1.5287
  145SAPE   H4S15913  -0.305   2.164  10.542 -0.0504 -3.0212  1.0466
  145SAPE   C2515914  -0.216   2.036  10.394 -0.3868 -0.2748 -0.4037
  145SAPE   H5R15915  -0.255   1.947  10.444  0.4040 -0.8559 -0.8076
  145SAPE   C2615916  -0.157   2.031  10.270  0.1387  0.0337  0.4707
  145SAPE   H6R15917  -0.167   1.936  10.217  0.5033 -0.0555  0.5528
  145SAPE   C2715918  -0.083   2.144  10.206  0.1725 -0.5554  0.9514
  145SAPE   H7R15919  -0.052   2.221  10.280  0.1193 -0.6615  1.0837
  145SAPE   H7S15920  -0.159   2.191  10.140 -0.2606 -0.8918  1.2067
  145SAPE   C2815921   0.031   2.102  10.113 -0.3853 -0.0634 -0.3434
  145SAPE   H8R15922   0.116   2.066  10.173  0.7760 -0.5899 -2.2427
  145SAPE   C2915923   0.036   2.091   9.983  0.3243 -0.4775  0.1440
  145SAPE   H9R15924   0.132   2.063   9.936  0.5795 -0.5698  0.7204
  145SAPE  C21015925  -0.078   2.115   9.886 -0.3120 -0.2408  0.1877
  145SAPE  H10R15926  -0.169   2.088   9.942 -0.0760 -0.7781  0.3177
  145SAPE  H10S15927  -0.089   2.044   9.801 -2.2919  1.7229 -1.3436
  145SAPE  C21115928  -0.092   2.255   9.834 -0.5139 -0.2182 -0.3185
  145SAPE  H11R15929  -0.090   2.329   9.915 -0.8111  1.3919 -1.7354
  145SAPE  C21215930  -0.099   2.301   9.711  0.5855  0.2397  0.6292
  145SAPE  H12R15931  -0.101   2.410   9.696  0.0796 -0.0261 -1.4221
  145SAPE  C21315932  -0.094   2.223   9.579 -0.1743 -0.0026 -0.2412
  145SAPE  H13R15933  -0.127   2.119   9.603 -0.2714  0.4268  1.6731
  145SAPE  H13S15934   0.009   2.204   9.541 -0.3563 -1.9857  0.1219
  145SAPE  C21415935  -0.185   2.285   9.476  0.1238  0.1594 -0.7200
  145SAPE  H14R15936  -0.293   2.281   9.497 -0.3451  0.7345 -2.8170
  145SAPE  C21515937  -0.157   2.331   9.354  0.0870 -0.5472 -0.5608
  145SAPE  H15R15938  -0.234   2.379   9.292  1.4238  3.2919  0.4566
  145SAPE  C21615939  -0.022   2.343   9.297 -0.3571 -0.1378  0.0689
  145SAPE  H16R15940   0.024   2.243   9.282  0.2597  0.1823 -0.1963
  145SAPE  H16S15941   0.049   2.400   9.360  0.6179 -0.0701 -1.0647
  145SAPE  C21715942  -0.011   2.414   9.160 -0.4623  0.0427  0.6194
  145SAPE  H17R15943  -0.012   2.524   9.172  0.0152  0.3902 -1.9666
  145SAPE  H17S15944  -0.093   2.381   9.092  0.7916  0.9820 -1.4404
  145SAPE  C21815945   0.128   2.391   9.093 -0.5137  0.6176  0.3375
  145SAPE  H18R15946   0.127   2.454   9.001  0.0334  0.1297 -0.0114
  145SAPE  H18S15947   0.133   2.283   9.065 -1.6052  0.7737 -0.5458
  145SAPE  C21915948   0.251   2.439   9.168 -0.3684  0.1654  0.4638
  145SAPE  H19R15949   0.339   2.401   9.112  0.1298  0.8241  0.7820
  145SAPE  H19S15950   0.253   2.387   9.266 -2.2421 -2.6806 -0.8518
  145SAPE  C22015951   0.269   2.591   9.205 -0.0505  0.3652  0.9422
  145SAPE  H20R15952   0.303   2.645   9.114  1.7573 -3.5448 -0.9676
  145SAPE  H20S15953   0.342   2.608   9.287 -0.1281 -0.2784  1.1448
  145SAPE  H20T15954   0.173   2.635   9.238  0.3727  1.5628  0.6278
  145SAPE   C3315955   0.343   1.841  10.383  0.1028 -0.0301  0.0192
  145SAPE   H3X15956   0.417   1.768  10.422 -0.7614  0.0887  1.9647
  145SAPE   H3Y15957   0.330   1.907  10.471 -0.7573 -0.3102  0.1101
  145SAPE   C3415958   0.394   1.927  10.272 -0.6425  0.0682  0.8900
  145SAPE   H4X15959   0.493   1.975  10.291 -0.5337  0.7497 -1.1733
  145SAPE   H4Y15960   0.325   2.014  10.268 -2.8402 -1.6534 -1.2386
  145SAPE   C3515961   0.408   1.866  10.132  0.3852  0.4779 -0.9247
  145SAPE   H5X15962   0.308   1.819  10.116  0.7640 -1.0605  0.8849
  145SAPE   H5Y15963   0.503   1.811  10.118  0.8864  1.4408 -1.3794
  145SAPE   C3615964   0.430   1.975  10.029  0.4660  0.8040  0.0904
  145SAPE   H6X15965   0.519   2.039  10.049  0.9675  0.2743 -0.4193
  145SAPE   H6Y15966   0.340   2.040  10.024 -0.4456 -0.3051  1.6121
  145SAPE   C3715967   0.460   1.912   9.893  0.1713 -0.1288 -0.1436
  145SAPE   H7X15968   0.383   1.833   9.880 -0.2211 -0.1075  1.7457
  145SAPE   H7Y15969   0.560   1.867   9.878 -1.0530 -3.5886  1.0664
  145SAPE   C3815970   0.435   1.998   9.772 -0.3952  0.1100  0.5896
  145SAPE   H8X15971   0.510   2.080   9.765  2.0455 -1.6781  3.5946
  145SAPE   H8Y15972   0.334   2.041   9.787 -0.8984 -1.6704  2.8355
  145SAPE   C3915973   0.409   1.918   9.636 -0.0990 -0.4297 -0.2985
  145SAPE   H9X15974   0.316   1.861   9.657 -0.1084  0.0435  1.0656
  145SAPE   H9Y15975   0.497   1.852   9.624 -0.0264 -0.4069  0.1017
  145SAPE  C31015976   0.397   2.008   9.513 -1.3227 -0.2163 -0.0442
  145SAPE  H10X15977   0.492   2.063   9.501 -1.0191 -0.9620 -1.1309
  145SAPE  H10Y15978   0.329   2.091   9.541 -1.0105  0.0614 -0.1132
  145SAPE  C31115979   0.356   1.929   9.391 -0.6515  0.2643  0.1512
  145SAPE  H11X15980   0.252   1.892   9.400 -0.9852  1.1340 -0.0158
  145SAPE  H11Y15981   0.415   1.835   9.395 -0.0151  0.6207 -0.7275
  145SAPE  C31215982   0.381   2.007   9.261 -0.0901 -1.0083 -0.0486
  145SAPE  H12X15983   0.490   2.029   9.265  0.0429 -1.8016  1.8567
  145SAPE  H12Y15984   0.338   2.109   9.271 -0.1615 -0.9166 -1.1732
  145SAPE  C31315985   0.347   1.926   9.138 -0.1682 -0.0008 -0.0941
  145SAPE  H13X15986   0.336   1.998   9.054  1.3015 -1.8042 -1.9752
  145SAPE  H13Y15987   0.252   1.870   9.148 -1.0490  1.4877  0.1940
  145SAPE  C31415988   0.460   1.827   9.098  0.0332  0.1367  0.9863
  145SAPE  H14X15989   0.497   1.781   9.192  2.5613 -0.5307 -0.2348
  145SAPE  H14Y15990   0.552   1.871   9.053 -0.2608 -0.3920 -0.1761
  145SAPE  C31515991   0.402   1.712   9.018  0.9481 -0.5572 -0.5891
  145SAPE  H15X15992   0.370   1.731   8.913 -0.7927 -1.4292 -0.2631
  145SAPE  H15Y15993   0.307   1.683   9.068  1.0159  1.4322  0.8287
  145SAPE  C31615994   0.501   1.600   9.004  0.3199 -0.0669  0.7314
  145SAPE  H16X15995   0.547   1.572   9.101  0.8235  1.2426  0.8926
  145SAPE  H16Y15996   0.575   1.610   8.922 -0.0697 -3.6488 -0.2344
  145SAPE  C31715997   0.423   1.471   8.957  0.4256 -0.4223 -0.3773
  145SAPE  H17X15998   0.436   1.464   8.847  2.1378 -0.9361 -0.1674
  145SAPE  H17Y15999   0.312   1.465   8.964  0.4749 -1.4974 -0.2542
  145SAPE  C31816000   0.481   1.339   9.006 -0.3740 -0.4619  0.7679
  145SAPE  H18X16001   0.411   1.307   9.086 -0.5129 -1.8433  0.1252
  145SAPE  H18Y16002   0.577   1.356   9.060  1.4653 -2.6692 -1.5492
  145SAPE  H18Z16003   0.503   1.259   8.932  0.8325 -0.4722  1.1198
  146SAPE     N16004   4.301   1.042  10.970 -0.3498  0.0598 -0.2108
  146SAPE   HN116005   4.231   1.108  10.933  0.0424  0.3306 -0.4778
  146SAPE   HN216006   4.354   1.086  11.049 -1.0735 -1.4656  1.1987
  146SAPE   HN316007   4.362   1.027  10.888 -0.2034 -0.4041 -0.0198
  146SAPE   C1216008   4.245   0.912  11.022  0.7856  0.1880  0.0694
  146SAPE  H12A16009   4.152   0.888  10.965  0.2228 -1.9647  1.7637
  146SAPE  H12B16010   4.214   0.927  11.127 -1.8474  3.6057 -1.0144
  146SAPE   C1116011   4.347   0.801  11.009 -0.8226  0.7062 -0.4756
  146SAPE  H11A16012   4.311   0.708  11.057  1.5225 -0.0809 -0.0887
  146SAPE  H11B16013   4.437   0.824  11.071  0.6711  0.7931 -2.5427
  146SAPE     P16014   4.365   0.670  10.775 -0.3406  0.0442 -0.2304
  146SAPE   O1316015   4.418   0.544  10.837  0.2391 -0.0592 -0.7034
  146SAPE   O1416016   4.221   0.671  10.748  0.7373  0.1872 -0.1074
  146SAPE   O1216017   4.405   0.789  10.881 -0.0802  0.0634  0.0131
  146SAPE   O1116018   4.446   0.699  10.638 -0.1874  0.4776  0.0942
  146SAPE    C116019   4.504   0.825  10.615 -0.3339 -0.5288  0.3774
  146SAPE    HA16020   4.435   0.910  10.636  0.9076  0.3451  1.0413
  146SAPE    HB16021   4.596   0.848  10.673 -0.2085 -1.3402  0.5083
  146SAPE    C216022   4.539   0.838  10.459 -0.1542 -0.9909 -0.0277
  146SAPE    HS16023   4.566   0.946  10.449  2.5698 -1.4916  0.9911
  146SAPE   O2116024   4.424   0.800  10.380 -0.5750  0.7468 -0.0235
  146SAPE   C2116025   4.309   0.855  10.395 -0.1249 -1.3064 -0.1938
  146SAPE   O2216026   4.290   0.963  10.456  0.7445  0.2117 -0.1471
  146SAPE   C2216027   4.197   0.780  10.316 -0.0180 -0.5916 -0.5288
  146SAPE   H2R16028   4.113   0.851  10.299 -0.0587 -0.7067 -0.8174
  146SAPE   H2S16029   4.246   0.749  10.221  1.0451  1.5547 -0.7448
  146SAPE    C316030   4.664   0.761  10.429 -0.5583  0.0620 -0.5792
  146SAPE    HX16031   4.650   0.650  10.431  0.8776 -0.1639 -1.3317
  146SAPE    HY16032   4.737   0.773  10.511 -2.3213  0.0498  1.0422
  146SAPE   O3116033   4.713   0.801  10.302 -0.1526  0.1579  0.1692
  146SAPE   C3116034   4.814   0.888  10.296  0.0760 -0.3423  1.0353
  146SAPE   O3216035   4.891   0.922  10.386 -0.4132  0.1368 -0.1187
  146SAPE   C3216036   4.824   0.947  10.153  0.5959 -0.5849  0.2143
  146SAPE   H2X16037   4.741   1.017  10.133  1.8117  1.0196  0.5425
  146SAPE   H2Y16038   4.814   0.861  10.083  2.1325 -2.3524  2.0396
  146SAPE   C2316039   4.144   0.658  10.395 -0.7537  0.1122 -0.0420
  146SAPE   H3R16040   4.094   0.687  10.490  0.3038  1.1954  0.2195
  146SAPE   H3S16041   4.232   0.599  10.429 -1.2745  1.0737  3.4125
  146SAPE   C2416042   4.056   0.554  10.321 -0.2264  0.1797  0.0513
  146SAPE   H4R16043   4.033   0.483  10.404  2.6217 -0.9931 -0.0466
  146SAPE   H4S16044   4.113   0.492  10.248 -1.2801 -1.0828  0.2641
  146SAPE   C2516045   3.932   0.606  10.256  0.2345 -0.2864  0.2544
  146SAPE   H5R16046   3.884   0.696  10.300  1.0356  0.5798 -0.5983
  146SAPE   C2616047   3.901   0.586  10.124 -0.4336  0.6895 -0.4365
  146SAPE   H6R16048   3.815   0.639  10.078  0.6549  0.9433 -2.2690
  146SAPE   C2716049   3.957   0.500  10.021 -0.0010 -0.7920  0.3835
  146SAPE   H7R16050   3.875   0.441   9.974 -0.5425  1.9895 -2.5101
  146SAPE   H7S16051   4.033   0.432  10.064 -0.0834  1.1192  3.9330
  146SAPE   C2816052   4.028   0.580   9.915 -0.1311 -0.5867 -0.8281
  146SAPE   H8R16053   4.134   0.600   9.939 -0.0405 -2.0728  0.1266
  146SAPE   C2916054   3.964   0.625   9.803 -0.1766  0.3780 -0.1238
  146SAPE   H9R16055   4.021   0.687   9.733  0.6730 -0.1774  0.0600
  146SAPE  C21016056   3.820   0.608   9.753 -0.3901  0.8267  0.1555
  146SAPE  H10R16057   3.790   0.704   9.707  0.1203  2.3251  2.7239
  146SAPE  H10S16058   3.753   0.599   9.841 -0.8374  4.5241  0.3469
  146SAPE  C21116059   3.799   0.503   9.648 -0.2623 -0.4149  0.1556
  146SAPE  H11R16060   3.732   0.419   9.673  0.7159 -0.8776  1.3009
  146SAPE  C21216061   3.842   0.514   9.523 -0.7583 -0.3902  0.2091
  146SAPE  H12R16062   3.829   0.430   9.454 -1.5535  0.0684 -0.2246
  146SAPE  C21316063   3.914   0.626   9.460 -0.3479  0.6412 -0.2164
  146SAPE  H13R16064   3.999   0.581   9.405  1.3686  1.5379  1.5473
  146SAPE  H13S16065   3.959   0.694   9.536  0.5974 -0.5275  0.3103
  146SAPE  C21416066   3.810   0.698   9.374 -0.4501  0.3297  0.0930
  146SAPE  H14R16067   3.734   0.754   9.430 -0.7356  1.4907 -1.3832
  146SAPE  C21516068   3.801   0.697   9.237  0.1604 -0.5795  0.4090
  146SAPE  H15R16069   3.723   0.760   9.190  0.4105 -1.5059 -1.3298
  146SAPE  C21616070   3.882   0.621   9.131 -0.4167 -0.1065 -0.2416
  146SAPE  H16R16071   3.970   0.573   9.180 -1.3813  0.5099  2.2361
  146SAPE  H16S16072   3.914   0.692   9.052 -0.7006  0.2923  0.0018
  146SAPE  C21716073   3.796   0.521   9.050 -0.1910  0.1721 -0.4466
  146SAPE  H17R16074   3.723   0.571   8.984  2.8800  1.9350 -2.8034
  146SAPE  H17S16075   3.746   0.460   9.128  0.4960  0.1820  0.0164
  146SAPE  C21816076   3.872   0.421   8.962  0.6096 -0.8123  0.3604
  146SAPE  H18R16077   3.957   0.381   9.022 -0.2027 -2.6799  0.3572
  146SAPE  H18S16078   3.911   0.482   8.878 -0.0867  2.4034  2.2405
  146SAPE  C21916079   3.781   0.310   8.906  0.1800 -0.1359 -0.0356
  146SAPE  H19R16080   3.734   0.251   8.988 -0.0360 -3.0545 -2.0922
  146SAPE  H19S16081   3.856   0.239   8.864 -1.2715 -0.6334 -1.9543
  146SAPE  C22016082   3.684   0.347   8.791 -0.6278  0.4972 -0.2717
  146SAPE  H20R16083   3.629   0.440   8.816  0.0841  0.9827 -0.4735
  146SAPE  H20S16084   3.609   0.265   8.788  0.1802 -0.3382  0.9746
  146SAPE  H20T16085   3.742   0.356   8.696 -0.2703  2.2455  0.0865
  146SAPE   C3316086   4.953   1.026  10.121 -1.1464  0.2076 -0.2273
  146SAPE   H3X16087   5.039   0.960  10.147 -0.3882  0.6332 -1.5122
  146SAPE   H3Y16088   4.958   1.115  10.186 -0.7317 -1.4848  2.1907
  146SAPE   C3416089   4.961   1.086   9.974 -0.2615 -0.4397 -0.0587
  146SAPE   H4X16090   4.862   1.128   9.946 -0.2699 -0.3847  0.0531
  146SAPE   H4Y16091   4.996   1.006   9.905  0.9231  0.9450 -1.1350
  146SAPE   C3516092   5.071   1.196   9.972  0.4086 -0.2384  0.2268
  146SAPE   H5X16093   5.173   1.158   9.994  0.9979  1.5172  0.7705
  146SAPE   H5Y16094   5.053   1.270  10.053  0.3075  0.0865 -0.0875
  146SAPE   C3616095   5.065   1.267   9.836  0.0817 -0.4228 -0.9118
  146SAPE   H6X16096   4.960   1.282   9.803  0.1713  0.3313 -0.8609
  146SAPE   H6Y16097   5.119   1.201   9.765 -0.6674 -0.7301 -1.2088
  146SAPE   C3716098   5.134   1.407   9.846 -0.4563  0.0720  0.4426
  146SAPE   H7X16099   5.236   1.385   9.885 -0.0517  0.8680 -0.1327
  146SAPE   H7Y16100   5.081   1.462   9.927 -1.6241  0.9649 -0.8790
  146SAPE   C3816101   5.129   1.486   9.721 -1.1646 -0.0835  0.2597
  146SAPE   H8X16102   5.021   1.505   9.703 -1.5451 -2.0249  0.2759
  146SAPE   H8Y16103   5.164   1.430   9.632 -1.1455  0.8661 -0.3506
  146SAPE   C3916104   5.221   1.615   9.724  0.1280  0.0755  0.2508
  146SAPE   H9X16105   5.329   1.592   9.718  0.5585  1.8770  0.6699
  146SAPE   H9Y16106   5.199   1.675   9.815  0.0584  0.7171 -0.1823
  146SAPE  C31016107   5.182   1.705   9.602  0.3324  0.3033  0.0600
  146SAPE  H10X16108   5.081   1.743   9.628  0.4175 -1.0876  2.8098
  146SAPE  H10Y16109   5.178   1.651   9.505 -1.1598 -1.5816  1.1042
  146SAPE  C31116110   5.281   1.812   9.576  0.0189 -0.1463  0.3059
  146SAPE  H11X16111   5.385   1.788   9.606 -0.6342 -0.5301  2.3882
  146SAPE  H11Y16112   5.256   1.897   9.643  0.9055  0.0930  0.3502
  146SAPE  C31216113   5.284   1.854   9.428  0.7900 -0.3028  0.4439
  146SAPE  H12X16114   5.179   1.885   9.406 -0.4739 -3.9488  0.6039
  146SAPE  H12Y16115   5.303   1.771   9.356 -0.4165 -2.1054  2.0868
  146SAPE  C31316116   5.384   1.965   9.403  0.9269 -0.5802  0.2097
  146SAPE  H13X16117   5.482   1.941   9.448  1.3510  0.6473 -0.0172
  146SAPE  H13Y16118   5.350   2.064   9.441  0.3656  0.9262 -3.7432
  146SAPE  C31416119   5.405   1.981   9.251  0.3789  0.0306  0.4826
  146SAPE  H14X16120   5.315   1.958   9.189  2.2940 -1.6898 -1.8736
  146SAPE  H14Y16121   5.471   1.899   9.215 -0.6965 -0.6061 -0.1319
  146SAPE  C31516122   5.460   2.117   9.213 -0.1840  0.3179 -0.0536
  146SAPE  H15X16123   5.557   2.116   9.267  0.8563 -2.9855 -1.7410
  146SAPE  H15Y16124   5.387   2.188   9.258  1.1334  1.3544  0.5416
  146SAPE  C31616125   5.478   2.163   9.070 -0.1522  0.2381  0.0169
  146SAPE  H16X16126   5.381   2.169   9.017 -1.0104 -0.8350  1.3843
  146SAPE  H16Y16127   5.547   2.098   9.012 -0.5540  0.2199 -0.4428
  146SAPE  C31716128   5.534   2.305   9.071  0.2316  0.3911  0.4811
  146SAPE  H17X16129   5.617   2.304   9.146  1.4532  1.1526 -0.8102
  146SAPE  H17Y16130   5.451   2.377   9.086 -0.6540 -0.2484 -1.1107
  146SAPE  C31816131   5.607   2.348   8.942 -0.1748 -0.5876  0.3165
  146SAPE  H18X16132   5.637   2.452   8.963 -1.8331 -0.4349  2.2995
  146SAPE  H18Y16133   5.525   2.344   8.867  0.9255 -3.0979 -0.8836
  146SAPE  H18Z16134   5.682   2.270   8.918 -0.3563 -0.4562 -0.7177
  147SAPE     N16135   0.383   4.594   6.265 -0.1947 -0.2825 -0.1600
  147SAPE   HN116136   0.458   4.636   6.323  0.2089  0.8849 -1.4494
  147SAPE   HN216137   0.427   4.538   6.189  0.3572  1.0138 -0.8313
  147SAPE   HN316138   0.324   4.662   6.213  1.0425 -0.4150 -1.8391
  147SAPE   C1216139   0.300   4.514   6.364  0.2081  0.5348 -0.0977
  147SAPE  H12A16140   0.357   4.427   6.402 -3.4444 -1.1494  2.0323
  147SAPE  H12B16141   0.208   4.479   6.313 -1.0355  0.1744  2.2549
  147SAPE   C1116142   0.262   4.592   6.486 -0.3192  0.3607 -0.6543
  147SAPE  H11A16143   0.354   4.604   6.548 -1.5398  0.7439  1.1669
  147SAPE  H11B16144   0.194   4.541   6.557 -1.6676  1.6012 -1.0058
  147SAPE     P16145   0.060   4.759   6.451  0.0729 -0.3383 -0.3841
  147SAPE   O1316146   0.048   4.867   6.350 -0.1286 -0.1911 -0.1952
  147SAPE   O1416147  -0.018   4.637   6.428  0.1025  0.4365 -0.3004
  147SAPE   O1216148   0.211   4.723   6.457 -0.2440  0.4311  0.5316
  147SAPE   O1116149   0.038   4.820   6.593  0.9618  0.2204 -0.1193
  147SAPE    C116150   0.116   4.927   6.641 -0.4057 -0.3970 -0.8686
  147SAPE    HA16151   0.169   4.988   6.564  0.1272 -0.5020 -0.5910
  147SAPE    HB16152   0.069   5.007   6.702  0.8428 -0.6688  0.5013
  147SAPE    C216153   0.227   4.876   6.736  0.4001 -0.0065  0.1433
  147SAPE    HS16154   0.302   4.820   6.676  1.7312  3.6164 -1.8733
  147SAPE   O2116155   0.169   4.795   6.839 -0.2341 -0.3779 -0.0311
  147SAPE   C2116156   0.254   4.711   6.894  0.1867 -0.1715 -0.1320
  147SAPE   O2216157   0.373   4.696   6.865 -0.8369 -0.1229  0.2382
  147SAPE   C2216158   0.191   4.637   7.009  0.3225  0.0303 -0.0497
  147SAPE   H2R16159   0.238   4.678   7.101  1.3321 -1.7962  0.3036
  147SAPE   H2S16160   0.086   4.670   7.023  0.6708  1.8301 -1.3799
  147SAPE    C316161   0.304   5.005   6.799  0.5719  0.9706 -0.1711
  147SAPE    HX16162   0.332   5.060   6.706  2.0588 -2.4124 -1.9399
  147SAPE    HY16163   0.389   4.974   6.863 -1.4620 -0.3494  2.0507
  147SAPE   O3116164   0.214   5.098   6.872  0.2216 -0.2673  0.1044
  147SAPE   C3116165   0.187   5.071   6.998 -0.8480  0.1333 -0.8211
  147SAPE   O3216166   0.252   4.989   7.064  0.8497  0.7367 -0.6101
  147SAPE   C3216167   0.087   5.166   7.059  0.3478  0.3309 -0.5591
  147SAPE   H2X16168   0.120   5.270   7.039 -0.2064  0.3928 -1.1932
  147SAPE   H2Y16169   0.082   5.140   7.167  0.2450 -2.0772 -1.0661
  147SAPE   C2316170   0.189   4.485   6.998 -0.2708  0.6665 -0.6267
  147SAPE   H3R16171   0.289   4.437   6.996  0.3246  1.6545  1.4887
  147SAPE   H3S16172   0.144   4.452   6.903 -0.3399  1.6822 -0.9582
  147SAPE   C2416173   0.106   4.429   7.118  0.2767 -0.5006 -0.0404
  147SAPE   H4R16174  -0.002   4.451   7.106  0.3756 -0.8374 -1.8176
  147SAPE   H4S16175   0.140   4.483   7.209 -1.8579  1.7988 -0.5150
  147SAPE   C2516176   0.113   4.275   7.122  0.0399 -0.9069 -0.8376
  147SAPE   H5R16177   0.034   4.219   7.069  0.0130 -0.4376 -1.3058
  147SAPE   C2616178   0.199   4.208   7.193  0.8913 -0.0976 -0.4145
  147SAPE   H6R16179   0.208   4.099   7.179 -1.0739 -0.4799  0.9800
  147SAPE   C2716180   0.316   4.269   7.270  1.1315  0.1667 -0.4179
  147SAPE   H7R16181   0.282   4.276   7.375  0.4314 -3.1969 -0.3162
  147SAPE   H7S16182   0.323   4.373   7.232  0.0736  0.6155  0.5757
  147SAPE   C2816183   0.454   4.218   7.284  0.0491  0.1215  0.4518
  147SAPE   H8R16184   0.521   4.260   7.208 -2.1750  3.1248 -0.0428
  147SAPE   C2916185   0.498   4.132   7.378 -0.2065 -0.0881 -0.1619
  147SAPE   H9R16186   0.602   4.099   7.392 -0.2289 -0.0981 -0.0162
  147SAPE  C21016187   0.414   4.077   7.494 -0.3397  0.0048 -0.3582
  147SAPE  H10R16188   0.417   3.966   7.497  0.7102  0.0111 -0.6658
  147SAPE  H10S16189   0.307   4.106   7.485  0.1145  2.9202  1.8539
  147SAPE  C21116190   0.463   4.124   7.632 -0.0656 -0.5439 -0.0684
  147SAPE  H11R16191   0.554   4.184   7.642  0.0208 -1.0544  2.9065
  147SAPE  C21216192   0.400   4.089   7.751 -0.3742 -0.4562  0.3882
  147SAPE  H12R16193   0.449   4.125   7.842  1.2844  1.5332 -1.1848
  147SAPE  C21316194   0.276   4.000   7.759 -0.0426 -0.4292 -0.5590
  147SAPE  H13R16195   0.230   3.989   7.659  0.8456 -0.0338 -1.0248
  147SAPE  H13S16196   0.202   4.043   7.830 -0.0579 -4.1738  1.9844
  147SAPE  C21416197   0.295   3.859   7.818 -0.1552 -0.5662 -0.1859
  147SAPE  H14R16198   0.291   3.789   7.734 -1.1988  0.9019 -1.4233
  147SAPE  C21516199   0.328   3.821   7.945  0.1982  0.5431  0.0758
  147SAPE  H15R16200   0.333   3.711   7.953 -2.1287  0.2920 -1.0349
  147SAPE  C21616201   0.334   3.906   8.067  0.2190 -0.6817  0.1139
  147SAPE  H16R16202   0.260   3.873   8.143  0.1079  1.3460  0.9244
  147SAPE  H16S16203   0.309   4.007   8.030 -0.2701 -0.1887  1.7075
  147SAPE  C21716204   0.468   3.927   8.147 -0.0537 -0.2734 -0.2211
  147SAPE  H17R16205   0.498   3.827   8.187 -1.2138 -0.4906  0.1652
  147SAPE  H17S16206   0.449   3.981   8.242  0.4157 -2.2534  1.0643
  147SAPE  C21816207   0.579   3.991   8.056 -0.1741 -0.2484  0.0540
  147SAPE  H18R16208   0.550   4.097   8.038 -1.7195 -0.8680 -1.3949
  147SAPE  H18S16209   0.584   3.951   7.953 -2.7068  0.9293 -0.6277
  147SAPE  C21916210   0.723   4.000   8.119  0.1840  0.2547  0.3609
  147SAPE  H19R16211   0.778   4.075   8.060 -0.3932  0.9278  0.6613
  147SAPE  H19S16212   0.758   3.895   8.115 -1.4091 -0.3257  0.6264
  147SAPE  C22016213   0.725   4.041   8.265  0.6137  0.4118 -0.6202
  147SAPE  H20R16214   0.681   3.966   8.334  1.2094 -0.3933 -1.0894
  147SAPE  H20S16215   0.666   4.134   8.278 -0.4892 -0.2203 -0.9227
  147SAPE  H20T16216   0.828   4.060   8.303 -0.0435 -0.9713  2.1116
  147SAPE   C3316217  -0.054   5.158   6.991 -0.2865  0.1820  0.3384
  147SAPE   H3X16218  -0.041   5.141   6.882 -1.4112 -1.5172  0.4320
  147SAPE   H3Y16219  -0.108   5.255   6.994  1.7260  1.3676  0.2151
  147SAPE   C3416220  -0.152   5.062   7.057 -0.0117  0.5099  0.3317
  147SAPE   H4X16221  -0.133   4.962   7.012 -1.5863  0.6600 -0.7371
  147SAPE   H4Y16222  -0.249   5.069   7.003 -0.9873 -0.4607  1.8587
  147SAPE   C3516223  -0.173   5.071   7.202  0.3477  0.7524  0.5389
  147SAPE   H5X16224  -0.083   5.026   7.250  1.9441  1.3157 -1.7520
  147SAPE   H5Y16225  -0.255   5.006   7.239  1.4858 -0.8053  0.4266
  147SAPE   C3616226  -0.192   5.208   7.260 -0.3879  0.3971 -0.0949
  147SAPE   H6X16227  -0.292   5.256   7.255  0.2582  1.7968  0.0200
  147SAPE   H6Y16228  -0.116   5.281   7.224 -1.0047  0.3387 -1.5700
  147SAPE   C3716229  -0.160   5.202   7.408  0.6794  0.3623 -0.3165
  147SAPE   H7X16230  -0.159   5.310   7.435 -3.0301  0.4750 -0.1544
  147SAPE   H7Y16231  -0.063   5.153   7.430  0.9333  1.8932  2.4073
  147SAPE   C3816232  -0.273   5.136   7.492  0.6764 -0.2409  0.5399
  147SAPE   H8X16233  -0.313   5.045   7.442 -0.5792 -1.0905  2.9430
  147SAPE   H8Y16234  -0.343   5.221   7.504 -0.1218 -0.8700  0.4394
  147SAPE   C3916235  -0.211   5.084   7.624 -0.7772 -0.2836 -0.4224
  147SAPE   H9X16236  -0.166   5.161   7.691 -0.1800 -0.9442 -0.0576
  147SAPE   H9Y16237  -0.127   5.017   7.595 -1.9076 -2.1792  0.5487
  147SAPE  C31016238  -0.306   5.001   7.709  0.3594 -0.5439  0.4206
  147SAPE  H10X16239  -0.365   4.920   7.661  0.7217  0.1235 -1.1984
  147SAPE  H10Y16240  -0.386   5.069   7.747  3.1420  2.9918  0.4736
  147SAPE  C31116241  -0.223   4.920   7.806  0.2345  0.0447 -0.0170
  147SAPE  H11X16242  -0.133   4.886   7.749  1.7890  2.9891  0.5261
  147SAPE  H11Y16243  -0.294   4.841   7.840 -1.4689  0.2547 -2.7564
  147SAPE  C31216244  -0.168   5.004   7.919  0.4901  0.1181 -0.2022
  147SAPE  H12X16245  -0.244   5.075   7.958  1.3960  0.7273  0.5317
  147SAPE  H12Y16246  -0.082   5.065   7.882 -0.9567  1.6655 -1.1304
  147SAPE  C31316247  -0.130   4.918   8.047  0.5008 -0.4328 -0.3992
  147SAPE  H13X16248  -0.103   4.986   8.131 -2.2427  1.1795 -0.6910
  147SAPE  H13Y16249  -0.048   4.847   8.026  0.1480 -1.6547  1.9871
  147SAPE  C31416250  -0.235   4.812   8.098 -0.1968  0.2213  0.2059
  147SAPE  H14X16251  -0.259   4.737   8.019  1.2404  1.3510 -1.3804
  147SAPE  H14Y16252  -0.335   4.856   8.118  0.3881  1.0794  1.3971
  147SAPE  C31516253  -0.185   4.742   8.225 -0.3108  0.0582 -0.2709
  147SAPE  H15X16254  -0.170   4.824   8.298  0.7710  2.0014 -2.5455
  147SAPE  H15Y16255  -0.083   4.702   8.204  0.7487  2.6544 -0.3833
  147SAPE  C31616256  -0.283   4.640   8.279  0.3589  0.3744 -0.4407
  147SAPE  H16X16257  -0.314   4.562   8.207  2.8397 -0.1830 -1.0049
  147SAPE  H16Y16258  -0.370   4.702   8.311 -1.0123 -1.1126 -1.1642
  147SAPE  C31716259  -0.235   4.564   8.405 -0.0869 -0.3278 -0.7347
  147SAPE  H17X16260  -0.218   4.650   8.474 -0.1421  0.2742 -1.4597
  147SAPE  H17Y16261  -0.134   4.524   8.379  0.4408  0.1756  0.4422
  147SAPE  C31816262  -0.334   4.476   8.470 -0.4783  0.4999  0.2283
  147SAPE  H18X16263  -0.414   4.535   8.518  0.7448  3.3385 -1.0224
  147SAPE  H18Y16264  -0.269   4.422   8.543  1.6894  0.3095 -1.7075
  147SAPE  H18Z16265  -0.370   4.404   8.394 -1.5808  0.2900  0.9196
  148SAPE     N16266   0.193   2.557   6.613  0.5499 -0.5500  0.0689
  148SAPE   HN116267   0.237   2.641   6.570  0.5446  0.5200  2.0676
  148SAPE   HN216268   0.264   2.482   6.628  0.0314 -0.7962  1.3933
  148SAPE   HN316269   0.129   2.513   6.544 -0.4866 -0.3399  0.8707
  148SAPE   C1216270   0.095   2.577   6.722 -0.0048  0.4194 -0.3417
  148SAPE  H12A16271   0.087   2.479   6.775  0.9867  0.1830 -0.6010
  148SAPE  H12B16272  -0.006   2.612   6.692 -0.7833 -1.0654  0.3956
  148SAPE   C1116273   0.143   2.671   6.842  0.0076  0.8074  0.0664
  148SAPE  H11A16274   0.238   2.624   6.875  0.0497  1.2764  0.6306
  148SAPE  H11B16275   0.077   2.672   6.932  0.8536  0.8433  0.7001
  148SAPE     P16276   0.292   2.875   6.802  0.2936 -0.1971 -0.3711
  148SAPE   O1316277   0.390   2.779   6.745 -0.2973 -0.1051 -0.9915
  148SAPE   O1416278   0.272   3.006   6.733 -0.7872  0.3649 -0.0788
  148SAPE   O1216279   0.153   2.809   6.811  0.1874  0.0827  0.9260
  148SAPE   O1116280   0.319   2.914   6.955 -0.1776  0.6795 -0.0537
  148SAPE    C116281   0.229   2.999   7.023  0.1696  0.1591 -0.1201
  148SAPE    HA16282   0.166   3.070   6.965 -1.1140  1.2749  2.4526
  148SAPE    HB16283   0.159   2.935   7.081 -0.0193  1.2849  0.9530
  148SAPE    C216284   0.310   3.080   7.131  0.3192 -0.3821 -0.0344
  148SAPE    HS16285   0.392   3.136   7.083 -0.0800  0.5174  0.3111
  148SAPE   O2116286   0.374   2.983   7.223  0.0077 -0.1644 -0.1839
  148SAPE   C2116287   0.477   3.029   7.287 -0.1803 -0.2294  0.2314
  148SAPE   O2216288   0.517   3.144   7.281 -0.0494 -0.4680  0.1172
  148SAPE   C2216289   0.532   2.919   7.387  0.2857  1.1085  0.3620
  148SAPE   H2R16290   0.443   2.861   7.421  0.5729  0.5908  0.2366
  148SAPE   H2S16291   0.589   2.849   7.323  0.3652  0.1806  1.4127
  148SAPE    C316292   0.223   3.181   7.202 -0.4536 -0.1403 -0.1098
  148SAPE    HX16293   0.183   3.254   7.129  1.6019  2.0958  0.8709
  148SAPE    HY16294   0.278   3.244   7.275 -2.4730 -0.3774  1.7419
  148SAPE   O3116295   0.131   3.117   7.289  0.2048 -0.1293  0.1172
  148SAPE   C3116296   0.004   3.123   7.248 -0.1177  0.5150 -0.0183
  148SAPE   O3216297  -0.035   3.197   7.156 -0.3714  0.8739  0.6731
  148SAPE   C3216298  -0.084   3.013   7.319 -0.9046 -0.3993  0.3796
  148SAPE   H2X16299  -0.050   2.915   7.278  0.4224  0.4430 -0.6323
  148SAPE   H2Y16300  -0.189   3.038   7.295 -0.8715  0.7917  1.3931
  148SAPE   C2316301   0.617   2.984   7.500 -0.0852  0.5884  0.3702
  148SAPE   H3R16302   0.556   3.065   7.545  0.6067  2.5249 -1.9232
  148SAPE   H3S16303   0.700   3.035   7.445  0.2325  1.1240  1.3221
  148SAPE   C2416304   0.678   2.881   7.594  0.8324  0.4759 -0.2317
  148SAPE   H4R16305   0.724   2.802   7.531  0.3316  0.9355 -1.1923
  148SAPE   H4S16306   0.584   2.837   7.635  0.8133 -0.1012 -0.8662
  148SAPE   C2516307   0.762   2.954   7.690 -0.1290 -0.6724  0.9346
  148SAPE   H5R16308   0.839   3.010   7.636 -1.0397 -0.3161 -0.0223
  148SAPE   C2616309   0.762   2.961   7.822  0.7565 -0.0105  0.4217
  148SAPE   H6R16310   0.844   3.009   7.878  0.1841 -2.0272  3.1263
  148SAPE   C2716311   0.665   2.887   7.921 -0.5126  1.1430  0.7680
  148SAPE   H7R16312   0.730   2.828   7.989 -0.4925  0.3046  0.0481
  148SAPE   H7S16313   0.601   2.818   7.861  1.4308 -1.1261  1.1595
  148SAPE   C2816314   0.574   2.984   7.982  0.2571  0.3965 -0.1655
  148SAPE   H8R16315   0.516   3.044   7.910 -0.6263  0.9840  0.9865
  148SAPE   C2916316   0.548   2.998   8.108  0.5994 -0.1054 -0.2101
  148SAPE   H9R16317   0.490   3.083   8.148  0.3932  0.5545 -1.8542
  148SAPE  C21016318   0.607   2.908   8.216  0.2316  0.1321 -0.1515
  148SAPE  H10R16319   0.700   2.965   8.239  0.0883  0.2961  0.0271
  148SAPE  H10S16320   0.631   2.802   8.193 -2.2140 -1.2594  2.8184
  148SAPE  C21116321   0.518   2.905   8.340  0.2947 -1.3655  0.7396
  148SAPE  H11R16322   0.443   2.825   8.331 -0.1378 -0.8021 -1.0946
  148SAPE  C21216323   0.499   3.006   8.428  0.0476  0.4633  0.0172
  148SAPE  H12R16324   0.446   2.977   8.521 -1.1547  0.4681 -0.6503
  148SAPE  C21316325   0.569   3.142   8.447  0.4338  0.2922  0.1331
  148SAPE  H13R16326   0.512   3.215   8.386 -0.5826  0.9283  1.7737
  148SAPE  H13S16327   0.671   3.130   8.405 -0.2846 -0.2406 -1.5407
  148SAPE  C21416328   0.596   3.207   8.582 -0.2014 -0.3776 -0.2363
  148SAPE  H14R16329   0.595   3.317   8.588  1.1760 -0.4036  1.3282
  148SAPE  C21516330   0.640   3.155   8.695 -0.2023 -0.5001 -0.3834
  148SAPE  H15R16331   0.666   3.229   8.772 -0.1203 -1.2097  0.2787
  148SAPE  C21616332   0.673   3.018   8.740  0.0553 -0.5429 -0.2047
  148SAPE  H16R16333   0.683   2.949   8.653  1.0589 -1.0752  0.3162
  148SAPE  H16S16334   0.588   2.982   8.803 -0.6157  0.2539 -0.6321
  148SAPE  C21716335   0.805   3.000   8.816 -0.4154 -0.2435 -0.4187
  148SAPE  H17R16336   0.887   3.024   8.745 -1.4427 -1.0863 -1.9448
  148SAPE  H17S16337   0.819   2.892   8.843  1.3981 -0.1568 -0.8822
  148SAPE  C21816338   0.807   3.073   8.950 -0.3860 -0.4696 -0.2773
  148SAPE  H18R16339   0.720   3.068   9.019  0.0101 -0.3285  0.2342
  148SAPE  H18S16340   0.810   3.183   8.932  0.4744 -0.1526  1.5303
  148SAPE  C21916341   0.942   3.051   9.035  0.9738 -0.2659 -0.2622
  148SAPE  H19R16342   1.028   3.065   8.967 -0.3997  0.9233 -1.8365
  148SAPE  H19S16343   0.942   2.948   9.076 -0.3978 -1.0628 -2.1137
  148SAPE  C22016344   0.956   3.145   9.158  0.1814 -0.1133  0.4227
  148SAPE  H20R16345   0.970   3.245   9.111 -0.8283 -1.2717 -2.5763
  148SAPE  H20S16346   1.049   3.118   9.212 -1.6517 -1.2003  3.2239
  148SAPE  H20T16347   0.865   3.151   9.221  0.2638  0.5559  0.4887
  148SAPE   C3316348  -0.066   3.026   7.472 -0.0369 -0.3467 -0.5498
  148SAPE   H3X16349  -0.100   3.127   7.504 -0.9368 -1.1470  1.1820
  148SAPE   H3Y16350   0.040   3.023   7.507 -0.4138  1.1118  0.8440
  148SAPE   C3416351  -0.152   2.923   7.545 -0.1441  0.4900  0.1983
  148SAPE   H4X16352  -0.112   2.821   7.527  0.1242  0.5147  0.6296
  148SAPE   H4Y16353  -0.255   2.919   7.504  0.1444  0.8630 -0.5757
  148SAPE   C3516354  -0.156   2.934   7.700  0.5626 -0.0341  0.7400
  148SAPE   H5X16355  -0.218   3.024   7.720 -1.5006 -0.8658 -1.4240
  148SAPE   H5Y16356  -0.051   2.939   7.737  0.6703 -0.2738  0.4747
  148SAPE   C3616357  -0.225   2.806   7.761 -0.0265  0.3909 -0.4653
  148SAPE   H6X16358  -0.144   2.730   7.759 -0.6196 -0.2425 -0.6445
  148SAPE   H6Y16359  -0.310   2.765   7.703  0.4720  1.0334 -1.6986
  148SAPE   C3716360  -0.276   2.823   7.904  0.3255 -0.0342 -0.1063
  148SAPE   H7X16361  -0.294   2.719   7.937  1.0038  0.0969  0.7112
  148SAPE   H7Y16362  -0.369   2.883   7.919  0.3745 -0.3759  1.7433
  148SAPE   C3816363  -0.160   2.877   7.997  0.9889 -0.5358 -0.2875
  148SAPE   H8X16364  -0.153   2.982   7.963 -0.0474 -0.3837 -0.0838
  148SAPE   H8Y16365  -0.070   2.812   7.985  2.3894  1.0537  1.2134
  148SAPE   C3916366  -0.209   2.878   8.146  0.1278  0.4545 -0.4525
  148SAPE   H9X16367  -0.123   2.851   8.211  0.5885 -1.1095 -1.6587
  148SAPE   H9Y16368  -0.280   2.794   8.157 -1.2426  1.2703 -2.4389
  148SAPE  C31016369  -0.272   3.013   8.192  0.4927 -0.4069  0.6190
  148SAPE  H10X16370  -0.370   3.034   8.144  2.2206  0.5960 -2.7820
  148SAPE  H10Y16371  -0.191   3.083   8.162  1.6361 -1.8075  0.3048
  148SAPE  C31116372  -0.304   3.024   8.342  0.3883  0.5574 -0.0448
  148SAPE  H11X16373  -0.328   3.129   8.371 -0.0302  0.3057  0.5530
  148SAPE  H11Y16374  -0.222   2.999   8.413  0.6727 -0.7621 -0.8171
  148SAPE  C31216375  -0.422   2.936   8.395 -0.0631 -0.9255  0.6920
  148SAPE  H12X16376  -0.409   2.833   8.357  0.1797  0.1094 -2.3091
  148SAPE  H12Y16377  -0.518   2.969   8.348  0.6921  2.0477  1.0207
  148SAPE  C31316378  -0.440   2.929   8.547 -0.4769  0.5026  0.2036
  148SAPE  H13X16379  -0.356   2.873   8.591  0.0134  1.7426  0.8949
  148SAPE  H13Y16380  -0.529   2.868   8.574 -0.6354  1.0143  0.8590
  148SAPE  C31416381  -0.446   3.067   8.610 -0.0707  0.3176  0.2948
  148SAPE  H14X16382  -0.524   3.114   8.546  0.8690 -0.7571 -1.7320
  148SAPE  H14Y16383  -0.350   3.122   8.597  0.8230 -1.1073  0.6567
  148SAPE  C31516384  -0.467   3.066   8.761  0.2352 -0.1284 -0.5948
  148SAPE  H15X16385  -0.378   3.025   8.814 -0.3535 -3.2868 -1.8608
  148SAPE  H15Y16386  -0.558   3.008   8.788 -0.6627  2.1068  1.5753
  148SAPE  C31616387  -0.483   3.196   8.837 -0.2922  0.1527  0.5432
  148SAPE  H16X16388  -0.588   3.225   8.817  0.2600  0.6396 -2.0325
  148SAPE  H16Y16389  -0.415   3.260   8.777 -0.5364 -1.4341 -1.5671
  148SAPE  C31716390  -0.447   3.187   8.979  0.3805 -0.1244 -0.0425
  148SAPE  H17X16391  -0.447   3.288   9.026 -0.6333  0.2718 -0.8639
  148SAPE  H17Y16392  -0.342   3.151   8.989  1.0508  1.4715 -0.8456
  148SAPE  C31816393  -0.534   3.102   9.074 -0.1263 -0.7183  0.4677
  148SAPE  H18X16394  -0.643   3.124   9.069 -0.0931 -0.7039 -0.3242
  148SAPE  H18Y16395  -0.504   3.109   9.180  0.9679 -1.1491  0.1977
  148SAPE  H18Z16396  -0.526   2.996   9.040 -3.1987 -0.5112 -1.3343
  149SAPE     N16397   1.663   3.838   6.311  0.5994 -0.3334 -0.2150
  149SAPE   HN116398   1.630   3.907   6.240 -1.4486 -2.2893 -1.3013
  149SAPE   HN216399   1.749   3.878   6.353 -0.4093  1.8695 -0.0897
  149SAPE   HN316400   1.695   3.756   6.255 -2.0134 -0.7625 -1.2450
  149SAPE   C1216401   1.560   3.814   6.424  0.2837  0.2224 -0.1243
  149SAPE  H12A16402   1.462   3.791   6.377 -0.1503  1.4220  0.1474
  149SAPE  H12B16403   1.545   3.917   6.463  0.0999  0.8386 -1.7181
  149SAPE   C1116404   1.616   3.715   6.535 -0.2904 -0.7674  0.0262
  149SAPE  H11A16405   1.544   3.712   6.620  0.3505  0.3259  0.6367
  149SAPE  H11B16406   1.718   3.746   6.567 -0.1472  1.0691 -1.9687
  149SAPE     P16407   1.497   3.497   6.443 -0.1398 -0.2300  0.3795
  149SAPE   O1316408   1.460   3.536   6.308  0.0132 -0.2436 -0.5019
  149SAPE   O1416409   1.521   3.353   6.462 -0.6337  0.6859  0.3381
  149SAPE   O1216410   1.631   3.579   6.486 -0.3050 -0.1044 -0.5549
  149SAPE   O1116411   1.399   3.543   6.553  0.3691 -0.6326 -0.0866
  149SAPE    C116412   1.293   3.453   6.604 -0.3476 -0.8758  0.6582
  149SAPE    HA16413   1.191   3.494   6.595 -0.3804 -1.0370  0.2610
  149SAPE    HB16414   1.304   3.353   6.557  1.2441 -1.5420  2.2980
  149SAPE    C216415   1.307   3.415   6.755  0.2886 -0.7902  0.2248
  149SAPE    HS16416   1.248   3.324   6.777 -2.9284  0.4430 -2.4473
  149SAPE   O2116417   1.258   3.528   6.834 -0.2679  0.1312  0.1141
  149SAPE   C2116418   1.210   3.498   6.948 -0.2028 -0.3577  0.0104
  149SAPE   O2216419   1.199   3.384   6.999  0.4968 -0.0829 -0.0121
  149SAPE   C2216420   1.144   3.629   6.992 -0.7895 -0.1072 -1.0378
  149SAPE   H2R16421   1.050   3.643   6.934 -1.1953  1.6703 -0.0291
  149SAPE   H2S16422   1.115   3.614   7.099 -0.0092  2.2702 -0.4235
  149SAPE    C316423   1.456   3.382   6.787 -0.6550  0.0365  0.2360
  149SAPE    HX16424   1.512   3.476   6.769 -1.6814  0.8917  1.3166
  149SAPE    HY16425   1.496   3.307   6.715  1.5543  0.8830  0.5215
  149SAPE   O3116426   1.481   3.337   6.924  0.0852 -0.1335 -0.4734
  149SAPE   C3116427   1.442   3.205   6.940 -0.1343 -0.0493  0.1780
  149SAPE   O3216428   1.394   3.129   6.858  0.3173  0.6141  0.0748
  149SAPE   C3216429   1.487   3.165   7.080  0.5875  0.3968  0.4511
  149SAPE   H2X16430   1.411   3.091   7.114  1.8266 -0.2609  1.9623
  149SAPE   H2Y16431   1.489   3.248   7.153 -0.4498  1.2670 -0.4830
  149SAPE   C2316432   1.219   3.766   6.991 -0.5470  0.1739 -0.8796
  149SAPE   H3R16433   1.149   3.841   7.032 -0.6655 -0.9754  1.1736
  149SAPE   H3S16434   1.259   3.786   6.890 -2.6895  0.0509 -1.8027
  149SAPE   C2416435   1.330   3.784   7.090  0.2381  1.2346  0.3751
  149SAPE   H4R16436   1.274   3.780   7.186 -2.4338 -2.4422 -1.1008
  149SAPE   H4S16437   1.386   3.878   7.072  1.5473  1.0759  3.1694
  149SAPE   C2516438   1.430   3.678   7.089  0.2003 -0.1177 -0.2244
  149SAPE   H5R16439   1.475   3.684   6.989 -2.6265  2.4380 -1.5111
  149SAPE   C2616440   1.462   3.593   7.185 -0.3619 -0.1808 -0.4267
  149SAPE   H6R16441   1.536   3.515   7.160 -0.9693 -0.8440 -0.1781
  149SAPE   C2716442   1.396   3.579   7.321  0.9171  0.1118  0.1417
  149SAPE   H7R16443   1.348   3.675   7.350  1.5392  0.8098 -1.0538
  149SAPE   H7S16444   1.484   3.572   7.388  0.5787 -1.3739  0.4623
  149SAPE   C2816445   1.300   3.456   7.324 -0.2812  0.5292  0.0806
  149SAPE   H8R16446   1.256   3.423   7.229 -0.2585  2.8630 -0.8023
  149SAPE   C2916447   1.254   3.413   7.441  0.3969 -0.0632 -0.1995
  149SAPE   H9R16448   1.183   3.329   7.435  0.6143 -0.3240  0.8175
  149SAPE  C21016449   1.283   3.460   7.582 -0.8443 -0.2509  0.0778
  149SAPE  H10R16450   1.260   3.566   7.607 -0.5853 -0.2010  0.1100
  149SAPE  H10S16451   1.392   3.446   7.596 -0.6347  0.5890 -0.5956
  149SAPE  C21116452   1.205   3.376   7.682 -0.3718 -0.0290 -0.8175
  149SAPE  H11R16453   1.113   3.325   7.651  1.0041 -1.6758 -2.4102
  149SAPE  C21216454   1.237   3.377   7.814  0.1326 -0.1823 -0.0277
  149SAPE  H12R16455   1.170   3.319   7.879  0.6548  0.4693  1.1334
  149SAPE  C21316456   1.351   3.450   7.885  0.4637  0.4485  0.4906
  149SAPE  H13R16457   1.310   3.550   7.909  1.8036  0.6600  2.1042
  149SAPE  H13S16458   1.442   3.456   7.821 -0.9626  0.6311 -1.6288
  149SAPE  C21416459   1.390   3.377   8.018  0.0925 -0.3798  0.5471
  149SAPE  H14R16460   1.480   3.313   8.014 -0.8239 -1.6397 -2.5260
  149SAPE  C21516461   1.314   3.369   8.128  0.3564 -0.2512 -0.1365
  149SAPE  H15R16462   1.352   3.321   8.220 -0.4211 -0.5434  0.0394
  149SAPE  C21616463   1.184   3.436   8.145  0.4633 -0.3338 -0.6504
  149SAPE  H16R16464   1.109   3.365   8.186  0.3100  0.2158  0.0342
  149SAPE  H16S16465   1.151   3.483   8.049  1.4638  2.0715  0.1181
  149SAPE  C21716466   1.177   3.549   8.252 -0.1268 -0.0951 -0.3714
  149SAPE  H17R16467   1.219   3.518   8.349  2.3905  0.6818 -1.1368
  149SAPE  H17S16468   1.071   3.575   8.275  0.3074 -0.9481  3.1215
  149SAPE  C21816469   1.252   3.680   8.224 -0.3605 -0.1655  0.6368
  149SAPE  H18R16470   1.360   3.669   8.200 -0.0138  3.5290  0.0160
  149SAPE  H18S16471   1.250   3.733   8.322 -3.0763  1.4929 -0.2187
  149SAPE  C21916472   1.185   3.771   8.124  0.2302 -1.1537  0.3199
  149SAPE  H19R16473   1.232   3.752   8.025 -0.8886  0.3301 -0.5408
  149SAPE  H19S16474   1.213   3.876   8.151 -1.2183 -0.5097 -0.5695
  149SAPE  C22016475   1.029   3.779   8.107  1.0523  0.3120  0.1046
  149SAPE  H20R16476   1.006   3.856   8.031  1.0800  0.5049  0.2920
  149SAPE  H20S16477   0.983   3.801   8.206 -0.6104  0.3550 -0.6459
  149SAPE  H20T16478   0.978   3.688   8.068 -3.3712  1.3995  2.7110
  149SAPE   C3316479   1.624   3.095   7.082 -0.0013 -0.4936 -0.0875
  149SAPE   H3X16480   1.700   3.174   7.102 -1.3605  1.1178 -1.0378
  149SAPE   H3Y16481   1.641   3.041   6.986 -0.6746 -1.0629  0.1024
  149SAPE   C3416482   1.637   2.984   7.196 -0.2749  0.1014  0.3397
  149SAPE   H4X16483   1.715   2.911   7.165 -0.8363 -0.4750  0.2641
  149SAPE   H4Y16484   1.546   2.921   7.207  0.3824 -0.5981  2.1072
  149SAPE   C3516485   1.672   3.057   7.322  0.3499 -0.8725 -0.3731
  149SAPE   H5X16486   1.592   3.133   7.339  1.9436  1.4475 -2.4648
  149SAPE   H5Y16487   1.766   3.116   7.316  1.1423 -1.9592  0.7493
  149SAPE   C3616488   1.684   2.968   7.442 -0.1817 -0.1341 -0.0201
  149SAPE   H6X16489   1.780   2.913   7.433  0.4818  0.4954  2.4383
  149SAPE   H6Y16490   1.598   2.898   7.443 -0.8670  0.6821  1.2138
  149SAPE   C3716491   1.688   3.052   7.575  0.0972 -0.3297 -0.8441
  149SAPE   H7X16492   1.595   3.113   7.585  0.6056  0.4800 -0.9564
  149SAPE   H7Y16493   1.781   3.113   7.579  0.6749 -1.2135 -0.5285
  149SAPE   C3816494   1.688   2.951   7.689  0.2570  0.9504 -0.1568
  149SAPE   H8X16495   1.794   2.919   7.701  0.4534  2.4008  3.2170
  149SAPE   H8Y16496   1.624   2.861   7.682  0.9133  0.3722  0.8949
  149SAPE   C3916497   1.661   3.016   7.829  0.5139  0.1786  0.0620
  149SAPE   H9X16498   1.597   3.102   7.802  0.1582 -0.5810 -1.6541
  149SAPE   H9Y16499   1.756   3.062   7.864 -0.0034  0.6206  0.9014
  149SAPE  C31016500   1.607   2.917   7.931  0.1613  0.1410 -0.4027
  149SAPE  H10X16501   1.656   2.817   7.927  0.6345  0.3789 -0.6593
  149SAPE  H10Y16502   1.499   2.899   7.910 -0.6381  2.1605  1.5651
  149SAPE  C31116503   1.633   2.972   8.074  0.4752 -0.3737 -0.5732
  149SAPE  H11X16504   1.568   3.061   8.088  0.0463 -0.9850  1.7353
  149SAPE  H11Y16505   1.732   3.023   8.072  0.3385 -0.0364  0.5458
  149SAPE  C31216506   1.649   2.865   8.185 -0.1224 -1.1485 -0.1288
  149SAPE  H12X16507   1.726   2.789   8.163  0.2517 -0.0197 -3.0647
  149SAPE  H12Y16508   1.552   2.813   8.198  0.5359 -2.9065 -1.7470
  149SAPE  C31316509   1.691   2.929   8.315 -0.3481 -0.3119 -0.5853
  149SAPE  H13X16510   1.783   2.988   8.293 -0.2047  0.2577  1.3427
  149SAPE  H13Y16511   1.706   2.852   8.393 -1.1013  0.0569 -0.0625
  149SAPE  C31416512   1.587   3.029   8.374  0.5819  0.3247  0.1661
  149SAPE  H14X16513   1.500   3.049   8.309 -0.8984  0.2189  2.0227
  149SAPE  H14Y16514   1.633   3.130   8.372  0.1065  0.5769  1.2829
  149SAPE  C31516515   1.557   3.002   8.520 -0.5924  1.4035 -0.3725
  149SAPE  H15X16516   1.642   2.948   8.567 -1.7319 -0.5645 -0.5072
  149SAPE  H15Y16517   1.466   2.940   8.526  1.2426 -1.7391 -2.4567
  149SAPE  C31616518   1.532   3.123   8.612 -0.4212 -0.1082 -0.9589
  149SAPE  H16X16519   1.445   3.183   8.575  0.6979  1.8273 -0.5756
  149SAPE  H16Y16520   1.611   3.200   8.612 -0.6965  0.2296  1.3122
  149SAPE  C31716521   1.518   3.089   8.767 -0.0904  0.4036  0.4469
  149SAPE  H17X16522   1.616   3.059   8.811 -0.0614 -0.2167 -0.0154
  149SAPE  H17Y16523   1.455   2.998   8.774 -0.1830  0.5327  1.4484
  149SAPE  C31816524   1.443   3.200   8.837 -0.4877 -0.3343 -0.0854
  149SAPE  H18X16525   1.486   3.297   8.805 -1.9376 -0.0389 -1.2412
  149SAPE  H18Y16526   1.438   3.187   8.947 -2.3916  2.9261  0.3239
  149SAPE  H18Z16527   1.342   3.195   8.791  0.8322 -0.5847 -3.2606
  150SAPE     N16528   5.069   6.255   6.346  0.3640 -0.0353 -0.2607
  150SAPE   HN116529   5.076   6.284   6.445 -0.6401  2.9029 -0.9626
  150SAPE   HN216530   4.999   6.310   6.292 -0.1878 -3.4643 -3.5056
  150SAPE   HN316531   5.030   6.158   6.342 -2.0567  0.8956 -1.0643
  150SAPE   C1216532   5.204   6.262   6.288  0.2632  0.1866 -0.2917
  150SAPE  H12A16533   5.194   6.210   6.191 -1.0914  1.2151 -0.7268
  150SAPE  H12B16534   5.261   6.194   6.355  0.7081 -0.2388 -1.0872
  150SAPE   C1116535   5.240   6.406   6.272 -0.4411  0.2532  0.2117
  150SAPE  H11A16536   5.150   6.450   6.222 -0.6231 -0.6266 -0.2718
  150SAPE  H11B16537   5.327   6.422   6.206 -0.9176  2.8651  0.1261
  150SAPE     P16538   5.398   6.470   6.472  0.1179  0.2523 -0.0291
  150SAPE   O1316539   5.445   6.328   6.469 -0.5180 -0.4468  0.1075
  150SAPE   O1416540   5.484   6.577   6.413 -0.0077  0.3639  0.7983
  150SAPE   O1216541   5.254   6.478   6.398 -0.1274  0.2360  0.1268
  150SAPE   O1116542   5.357   6.510   6.616 -0.4246  0.1680 -0.1090
  150SAPE    C116543   5.417   6.464   6.736  0.1051 -0.0959 -0.3293
  150SAPE    HA16544   5.513   6.413   6.713 -0.4238 -1.2139 -0.1237
  150SAPE    HB16545   5.425   6.552   6.804 -1.7028 -0.3746  0.2924
  150SAPE    C216546   5.332   6.353   6.812  0.6714 -0.6601 -0.0238
  150SAPE    HS16547   5.336   6.267   6.743 -0.3750 -0.1896 -0.6947
  150SAPE   O2116548   5.190   6.391   6.823 -0.1300  0.1984  0.6739
  150SAPE   C2116549   5.117   6.335   6.734  0.4127 -1.1037  0.7723
  150SAPE   O2216550   5.160   6.276   6.629 -0.3385  0.4840  0.0714
  150SAPE   C2216551   4.967   6.370   6.755 -0.6522 -0.3203 -0.7229
  150SAPE   H2R16552   4.912   6.340   6.663 -1.7319  0.0024 -0.1926
  150SAPE   H2S16553   4.930   6.292   6.825 -0.7332  1.7167  1.6593
  150SAPE    C316554   5.397   6.321   6.947  0.2090 -0.0549 -0.1291
  150SAPE    HX16555   5.346   6.226   6.974 -0.8367  0.8380  1.1844
  150SAPE    HY16556   5.362   6.397   7.020 -0.5612 -1.6224  1.2026
  150SAPE   O3116557   5.543   6.322   6.955 -0.1067 -0.9277  0.2129
  150SAPE   C3116558   5.615   6.233   6.891  0.2941 -0.1698  0.7831
  150SAPE   O3216559   5.574   6.158   6.805  0.5536  0.5355  0.4505
  150SAPE   C3216560   5.754   6.238   6.938 -0.9087  0.4825 -0.3237
  150SAPE   H2X16561   5.777   6.339   6.979 -1.2574  0.5001 -0.1726
  150SAPE   H2Y16562   5.823   6.211   6.855  0.4157 -2.5546  1.5998
  150SAPE   C2316563   4.938   6.515   6.788  0.2209  0.2241  0.6740
  150SAPE   H3R16564   4.991   6.576   6.712 -0.6010  1.3247  0.9562
  150SAPE   H3S16565   4.992   6.536   6.883 -0.7302 -0.4180  1.3628
  150SAPE   C2416566   4.792   6.551   6.794 -0.2097 -0.8614  0.3324
  150SAPE   H4R16567   4.763   6.519   6.896 -2.1332  1.6348  0.6671
  150SAPE   H4S16568   4.729   6.499   6.719 -2.2668  1.7248  0.1414
  150SAPE   C2516569   4.765   6.698   6.792  0.9004  0.0597  0.6767
  150SAPE   H5R16570   4.786   6.750   6.698  0.7152  0.1955  0.7089
  150SAPE   C2616571   4.722   6.774   6.896  0.2294  1.0521  0.7599
  150SAPE   H6R16572   4.701   6.881   6.882  0.1235  1.0215  0.6869
  150SAPE   C2716573   4.688   6.717   7.033 -0.2586 -0.1122 -0.0110
  150SAPE   H7R16574   4.678   6.810   7.092  1.0496  1.4951 -2.1421
  150SAPE   H7S16575   4.765   6.648   7.075 -0.6434 -0.1370  0.6592
  150SAPE   C2816576   4.562   6.641   7.031  0.0611  0.0881  0.0330
  150SAPE   H8R16577   4.511   6.610   6.939 -1.0783  1.4181  0.1818
  150SAPE   C2916578   4.502   6.610   7.143 -0.0259 -0.3203 -0.4823
  150SAPE   H9R16579   4.413   6.546   7.136  1.4499 -2.8414  1.7607
  150SAPE  C21016580   4.528   6.630   7.290  0.4888 -0.4089 -0.1967
  150SAPE  H10R16581   4.636   6.627   7.313  0.3383 -0.5691  0.5348
  150SAPE  H10S16582   4.475   6.546   7.341 -3.0602  0.8523 -1.4650
  150SAPE  C21116583   4.480   6.767   7.336  0.0082 -0.2537 -0.4970
  150SAPE  H11R16584   4.477   6.850   7.263  0.0588  0.6365  0.4932
  150SAPE  C21216585   4.469   6.803   7.468 -0.4553 -0.5936 -0.5103
  150SAPE  H12R16586   4.423   6.902   7.486 -0.6048 -0.6883 -0.3761
  150SAPE  C21316587   4.498   6.715   7.585 -0.0143  0.3859 -0.2031
  150SAPE  H13R16588   4.524   6.610   7.559  2.5009  0.9739 -0.3031
  150SAPE  H13S16589   4.402   6.710   7.641  0.4382  0.6013  0.6056
  150SAPE  C21416590   4.613   6.784   7.662  0.1365 -0.5738 -0.5602
  150SAPE  H14R16591   4.709   6.805   7.614 -0.4273  0.5393 -1.2476
  150SAPE  C21516592   4.609   6.830   7.787  0.5961 -0.7922 -0.2587
  150SAPE  H15R16593   4.695   6.882   7.832  0.2444 -1.3174  1.0580
  150SAPE  C21616594   4.498   6.821   7.891 -0.5855  0.3358  0.0722
  150SAPE  H16R16595   4.482   6.713   7.911  0.5023  0.3793  1.3531
  150SAPE  H16S16596   4.398   6.865   7.870 -1.4784  0.4004  3.6843
  150SAPE  C21716597   4.549   6.887   8.024 -0.3028  0.0452 -0.0896
  150SAPE  H17R16598   4.568   6.996   8.015  0.4215 -0.1572 -1.0412
  150SAPE  H17S16599   4.644   6.837   8.051 -0.7900 -1.2489 -0.6881
  150SAPE  C21816600   4.455   6.849   8.139 -0.2161 -0.6676 -0.6802
  150SAPE  H18R16601   4.435   6.740   8.139  0.3712 -0.7817 -0.4609
  150SAPE  H18S16602   4.359   6.902   8.119  0.9885  2.1290  0.4129
  150SAPE  C21916603   4.506   6.894   8.273 -1.1609 -0.0432  0.6371
  150SAPE  H19R16604   4.536   7.001   8.267  0.1216 -0.4308 -0.4841
  150SAPE  H19S16605   4.591   6.829   8.305 -0.8640  0.1597  0.2628
  150SAPE  C22016606   4.401   6.885   8.382 -0.3872 -0.6053  0.5008
  150SAPE  H20R16607   4.367   6.780   8.394 -1.8285 -0.1619  0.5797
  150SAPE  H20S16608   4.312   6.944   8.349 -0.2686  0.2214  1.5904
  150SAPE  H20T16609   4.441   6.915   8.481  1.3825 -1.0769 -0.0515
  150SAPE   C3316610   5.776   6.137   7.055  1.0480 -0.3418 -0.0034
  150SAPE   H3X16611   5.883   6.155   7.077  1.0592  1.6579 -1.3826
  150SAPE   H3Y16612   5.773   6.034   7.015  1.5678  0.1408 -1.3343
  150SAPE   C3416613   5.682   6.163   7.180  0.5734  0.3042  0.6970
  150SAPE   H4X16614   5.702   6.079   7.250 -1.8175  0.7488  2.0285
  150SAPE   H4Y16615   5.573   6.148   7.163  1.0779 -1.2931 -1.7109
  150SAPE   C3516616   5.692   6.299   7.245 -0.4933 -0.4858  0.3806
  150SAPE   H5X16617   5.665   6.378   7.172 -3.2825 -0.4302  1.3662
  150SAPE   H5Y16618   5.799   6.308   7.274 -0.5020 -0.8679  0.5374
  150SAPE   C3616619   5.599   6.324   7.372  0.0190 -0.0767  0.6697
  150SAPE   H6X16620   5.613   6.431   7.398 -1.0022 -0.1890  1.8123
  150SAPE   H6Y16621   5.629   6.251   7.451 -1.2047 -0.7654  0.5219
  150SAPE   C3716622   5.446   6.307   7.339  0.4121 -0.7042  0.1264
  150SAPE   H7X16623   5.437   6.211   7.284  1.0578  0.9114 -3.0997
  150SAPE   H7Y16624   5.431   6.391   7.267 -0.7662  1.4922  2.7877
  150SAPE   C3816625   5.341   6.328   7.449  0.2037 -0.1316 -0.1034
  150SAPE   H8X16626   5.247   6.284   7.411  0.2286 -0.6890  0.4675
  150SAPE   H8Y16627   5.337   6.431   7.489  2.3241  0.9758 -2.4472
  150SAPE   C3916628   5.371   6.236   7.575  0.0802  0.6087 -0.2592
  150SAPE   H9X16629   5.286   6.260   7.643  1.4009  2.0645  0.9691
  150SAPE   H9Y16630   5.476   6.252   7.610  0.3716  0.5956 -1.1125
  150SAPE  C31016631   5.375   6.085   7.551  0.4083 -0.2464  0.0812
  150SAPE  H10X16632   5.456   6.062   7.479  0.7841 -0.0751  0.4486
  150SAPE  H10Y16633   5.283   6.039   7.508  2.5774 -3.2158 -1.7441
  150SAPE  C31116634   5.405   6.009   7.676 -0.5793  1.4956 -0.5091
  150SAPE  H11X16635   5.344   6.050   7.759 -1.3897 -0.1540 -0.2392
  150SAPE  H11Y16636   5.510   6.029   7.706 -0.1959  0.2826 -1.0013
  150SAPE  C31216637   5.388   5.856   7.682 -0.1057  0.1130 -0.2883
  150SAPE  H12X16638   5.429   5.809   7.589 -1.0910 -2.3285  0.4387
  150SAPE  H12Y16639   5.283   5.821   7.680 -0.6801  1.7096 -3.2610
  150SAPE  C31316640   5.449   5.792   7.802 -0.1243  0.4575  0.1074
  150SAPE  H13X16641   5.388   5.821   7.890 -0.5188 -1.7711  0.6300
  150SAPE  H13Y16642   5.554   5.819   7.827  0.0148 -0.4899  0.6202
  150SAPE  C31416643   5.439   5.642   7.799 -0.0650 -0.4160 -0.3392
  150SAPE  H14X16644   5.507   5.594   7.872 -0.4515  2.5552  2.1827
  150SAPE  H14Y16645   5.476   5.606   7.701  1.3916 -1.2471  0.5001
  150SAPE  C31516646   5.300   5.590   7.830  0.3036 -1.1131 -1.0165
  150SAPE  H15X16647   5.226   5.633   7.759  2.1230  1.8255 -1.2994
  150SAPE  H15Y16648   5.280   5.612   7.938  0.1785  0.0123 -1.2511
  150SAPE  C31616649   5.279   5.438   7.832 -0.6730  0.2247  0.2160
  150SAPE  H16X16650   5.300   5.399   7.730  0.7215 -3.7122  1.8371
  150SAPE  H16Y16651   5.174   5.408   7.849 -0.7432 -0.0810 -0.6925
  150SAPE  C31716652   5.378   5.368   7.925 -0.3475  0.6146  0.0235
  150SAPE  H17X16653   5.368   5.416   8.025 -3.2527 -1.4067  0.8598
  150SAPE  H17Y16654   5.481   5.366   7.884 -0.3554  0.3651  0.0160
  150SAPE  C31816655   5.336   5.226   7.929 -0.9234  0.4521 -0.2429
  150SAPE  H18X16656   5.226   5.218   7.937 -0.9273  0.9502  0.2658
  150SAPE  H18Y16657   5.384   5.172   8.013  1.3944  0.6781 -1.3311
  150SAPE  H18Z16658   5.346   5.179   7.829 -2.0972  1.2414 -0.7549
  151SAPE     N16659   1.985   2.660   6.269 -0.3611  0.1960  0.0675
  151SAPE   HN116660   1.991   2.720   6.184 -1.9867 -2.9544 -2.4971
  151SAPE   HN216661   2.019   2.565   6.246 -3.4507 -1.0730  0.1616
  151SAPE   HN316662   1.887   2.643   6.300 -0.3955 -0.3565 -0.3415
  151SAPE   C1216663   2.053   2.717   6.390 -0.4762 -0.1426 -0.2718
  151SAPE  H12A16664   2.164   2.716   6.387 -0.4748  0.6278 -0.7824
  151SAPE  H12B16665   2.021   2.664   6.482 -2.2315  0.6351 -0.4024
  151SAPE   C1116666   2.004   2.859   6.416 -0.7090  0.1738 -0.0598
  151SAPE  H11A16667   2.053   2.903   6.506  2.0250  0.4041 -1.5361
  151SAPE  H11B16668   1.896   2.856   6.440 -0.2145  0.0926  2.4438
  151SAPE     P16669   2.174   2.978   6.253 -0.2469 -0.3574 -0.1449
  151SAPE   O1316670   2.219   2.859   6.180  0.2639 -0.0925  0.0838
  151SAPE   O1416671   2.174   3.105   6.174  0.6306 -0.1650 -0.4428
  151SAPE   O1216672   2.030   2.952   6.309  0.0663 -0.1169 -0.2070
  151SAPE   O1116673   2.263   3.001   6.377 -0.2216 -0.6847  0.1200
  151SAPE    C116674   2.217   3.104   6.470  0.2782 -0.7233  0.4116
  151SAPE    HA16675   2.215   3.206   6.426 -1.6362 -0.6370  0.6224
  151SAPE    HB16676   2.117   3.081   6.512 -0.8201 -0.8814 -2.0964
  151SAPE    C216677   2.322   3.107   6.584  0.6315  0.7859 -0.6953
  151SAPE    HS16678   2.414   3.125   6.524  0.7640  1.2984 -0.3400
  151SAPE   O2116679   2.315   2.984   6.658 -0.2189  0.2649 -0.0534
  151SAPE   C2116680   2.434   2.924   6.679  0.2443 -0.3896  0.1606
  151SAPE   O2216681   2.543   2.959   6.636  0.1490 -0.1958  0.1902
  151SAPE   C2216682   2.415   2.805   6.777 -0.4979  0.4496  0.5815
  151SAPE   H2R16683   2.519   2.771   6.797 -0.0889  0.3262 -1.5063
  151SAPE   H2S16684   2.383   2.850   6.873 -0.0027  1.4067  0.3073
  151SAPE    C316685   2.299   3.219   6.684  0.3961 -0.4845 -0.0406
  151SAPE    HX16686   2.286   3.314   6.628  0.1953  0.4233  1.4917
  151SAPE    HY16687   2.386   3.233   6.752 -0.5615  0.9622  0.9336
  151SAPE   O3116688   2.174   3.197   6.761  0.1611 -0.0948  0.1053
  151SAPE   C3116689   2.183   3.195   6.895 -0.0072 -0.8123  0.3697
  151SAPE   O3216690   2.286   3.216   6.958  0.5087  0.0542 -0.5894
  151SAPE   C3216691   2.056   3.134   6.951 -0.4174  0.0686 -0.4072
  151SAPE   H2X16692   2.068   3.023   6.954  0.2542  0.1531  0.4547
  151SAPE   H2Y16693   1.970   3.167   6.889 -0.2057 -0.8273 -1.2146
  151SAPE   C2316694   2.306   2.701   6.724 -0.2442  0.0088 -0.2634
  151SAPE   H3R16695   2.372   2.632   6.668  0.3405  0.5363 -0.2291
  151SAPE   H3S16696   2.235   2.759   6.661 -1.0812 -1.2692 -0.5438
  151SAPE   C2416697   2.235   2.624   6.836  0.7634  0.1611 -0.4086
  151SAPE   H4R16698   2.299   2.580   6.916  0.7811  3.4742  1.5943
  151SAPE   H4S16699   2.180   2.536   6.795 -1.1919  0.3326  1.6258
  151SAPE   C2516700   2.128   2.709   6.902 -0.1760  0.4099  0.1306
  151SAPE   H5R16701   2.055   2.754   6.834 -0.6829  0.2411  0.5584
  151SAPE   C2616702   2.114   2.739   7.036  0.4145  0.3962  0.8924
  151SAPE   H6R16703   2.026   2.795   7.071  0.0461  0.1676  0.3361
  151SAPE   C2716704   2.206   2.692   7.143 -0.2640 -0.5090 -0.1647
  151SAPE   H7R16705   2.289   2.635   7.097 -0.3903  0.1918 -1.3218
  151SAPE   H7S16706   2.148   2.628   7.212  1.2620  0.2272  1.8998
  151SAPE   C2816707   2.264   2.812   7.217 -0.1723  0.0994 -0.5525
  151SAPE   H8R16708   2.296   2.891   7.147  1.0471  1.7455  1.7362
  151SAPE   C2916709   2.281   2.814   7.353  0.4939  0.3467  0.8656
  151SAPE   H9R16710   2.314   2.904   7.407 -1.8379  0.2261  2.6593
  151SAPE  C21016711   2.245   2.697   7.444  0.4980 -0.1280 -0.0871
  151SAPE  H10R16712   2.156   2.643   7.404 -0.9586  3.0191 -1.3789
  151SAPE  H10S16713   2.207   2.742   7.539 -1.5619 -0.3227 -0.7605
  151SAPE  C21116714   2.367   2.619   7.479 -0.7892 -0.4377 -0.4659
  151SAPE  H11R16715   2.399   2.547   7.402  3.9572  1.5596 -0.7495
  151SAPE  C21216716   2.441   2.606   7.591 -1.3919  0.2521  0.1870
  151SAPE  H12R16717   2.544   2.571   7.577 -1.5158 -0.2896  0.6095
  151SAPE  C21316718   2.423   2.683   7.716 -0.1383 -0.0814  0.7401
  151SAPE  H13R16719   2.495   2.631   7.783  2.5558 -0.6759 -2.3608
  151SAPE  H13S16720   2.318   2.684   7.752 -1.1349 -1.5304 -1.8275
  151SAPE  C21416721   2.463   2.829   7.702 -0.1010  0.5659  0.1078
  151SAPE  H14R16722   2.434   2.870   7.604 -2.0961 -1.7310 -0.3624
  151SAPE  C21516723   2.521   2.909   7.802  0.9020  0.4003  0.2190
  151SAPE  H15R16724   2.546   3.014   7.781 -0.7426  0.4084 -2.1008
  151SAPE  C21616725   2.546   2.867   7.944  0.4552  0.3180 -0.5484
  151SAPE  H16R16726   2.651   2.862   7.980  1.1902  0.2813 -2.5652
  151SAPE  H16S16727   2.512   2.761   7.953 -0.8420  0.7486 -0.0969
  151SAPE  C21716728   2.471   2.951   8.034 -0.0311 -0.1926  0.5300
  151SAPE  H17R16729   2.497   3.059   8.027  0.5559 -0.3111  0.8693
  151SAPE  H17S16730   2.503   2.937   8.139  1.3975  0.3483  0.1927
  151SAPE  C21816731   2.319   2.938   8.024  0.3305  0.1683  0.5865
  151SAPE  H18R16732   2.278   2.835   8.018  0.5144  0.0520  1.2077
  151SAPE  H18S16733   2.289   2.982   7.926 -0.2227 -0.1283  0.6167
  151SAPE  C21916734   2.249   3.025   8.136 -0.6487  0.4472 -0.0952
  151SAPE  H19R16735   2.282   3.131   8.128  0.3712  0.1003 -0.6462
  151SAPE  H19S16736   2.295   2.989   8.230  1.5595  0.0159 -1.2698
  151SAPE  C22016737   2.098   3.016   8.136  0.4380 -0.1852 -0.7442
  151SAPE  H20R16738   2.043   3.054   8.047  1.9112  1.3879 -1.0432
  151SAPE  H20S16739   2.056   2.913   8.143  0.8526 -0.2254  3.0651
  151SAPE  H20T16740   2.051   3.075   8.218  0.1763  1.0876 -1.7739
  151SAPE   C3316741   2.030   3.169   7.103 -0.6044 -0.2110 -0.3016
  151SAPE   H3X16742   2.128   3.155   7.153 -1.0556 -1.8363  0.1897
  151SAPE   H3Y16743   1.963   3.088   7.141  0.2584  0.3723  2.7690
  151SAPE   C3416744   1.957   3.307   7.117 -0.6079  0.1927  0.7520
  151SAPE   H4X16745   1.855   3.296   7.074 -2.0407  2.8088  3.1298
  151SAPE   H4Y16746   2.006   3.382   7.051  1.0159 -1.0106  0.5246
  151SAPE   C3516747   1.956   3.346   7.266 -0.5540  0.4026  0.2614
  151SAPE   H5X16748   2.054   3.393   7.289  0.6570 -0.9780 -1.7194
  151SAPE   H5Y16749   1.956   3.257   7.332 -1.7612  1.4944  1.8070
  151SAPE   C3616750   1.845   3.449   7.301 -0.1715 -0.1881  0.0007
  151SAPE   H6X16751   1.743   3.418   7.273  0.5245 -0.7707 -2.0996
  151SAPE   H6Y16752   1.866   3.522   7.221 -1.6656  1.9729  1.4819
  151SAPE   C3716753   1.852   3.511   7.441 -0.2030 -0.0876  0.1753
  151SAPE   H7X16754   1.821   3.617   7.429  0.4634  0.2286  1.2125
  151SAPE   H7Y16755   1.955   3.517   7.481  1.1131 -0.6298 -2.8370
  151SAPE   C3816756   1.742   3.453   7.538  0.0048 -0.3400  0.2130
  151SAPE   H8X16757   1.742   3.342   7.546 -0.2248 -0.5289 -1.8459
  151SAPE   H8Y16758   1.641   3.471   7.493 -1.7373 -3.5361  2.4431
  151SAPE   C3916759   1.729   3.531   7.669  0.9445 -0.0573  0.3207
  151SAPE   H9X16760   1.632   3.517   7.723  0.9376 -1.0782  0.0656
  151SAPE   H9Y16761   1.728   3.637   7.636 -1.9031  0.8226  2.7301
  151SAPE  C31016762   1.844   3.508   7.769 -0.1372  0.5259 -0.1169
  151SAPE  H10X16763   1.872   3.597   7.830 -0.4002  0.3110  0.3193
  151SAPE  H10Y16764   1.934   3.482   7.709  0.3804  0.1656  0.8024
  151SAPE  C31116765   1.803   3.390   7.872 -0.1022 -0.1791  0.4507
  151SAPE  H11X16766   1.895   3.335   7.902  1.2973  1.1326 -1.2123
  151SAPE  H11Y16767   1.744   3.315   7.814 -0.1589 -0.5703  1.0073
  151SAPE  C31216768   1.724   3.445   7.988 -0.4857 -0.0803  0.7789
  151SAPE  H12X16769   1.691   3.353   8.043  0.3099 -2.1273 -1.9394
  151SAPE  H12Y16770   1.642   3.509   7.951  0.5471  0.6761 -0.2394
  151SAPE  C31316771   1.803   3.527   8.094  0.3084 -0.1906 -0.0605
  151SAPE  H13X16772   1.834   3.616   8.034  0.0333 -0.0572 -0.0071
  151SAPE  H13Y16773   1.893   3.475   8.133 -0.4123 -0.2548  1.5953
  151SAPE  C31416774   1.710   3.561   8.209 -0.0012 -0.4156  0.2625
  151SAPE  H14X16775   1.604   3.580   8.182 -0.1509  0.7559  1.5331
  151SAPE  H14Y16776   1.745   3.655   8.256  1.0457 -1.7434  2.2961
  151SAPE  C31516777   1.728   3.464   8.327 -0.1339  0.1761  0.2622
  151SAPE  H15X16778   1.830   3.489   8.363  0.1323 -0.1888 -0.2264
  151SAPE  H15Y16779   1.738   3.363   8.280  0.3865 -0.0991  0.9393
  151SAPE  C31616780   1.603   3.460   8.416  1.0289  0.3395  0.0269
  151SAPE  H16X16781   1.596   3.376   8.489 -1.9831 -1.0135 -1.6281
  151SAPE  H16Y16782   1.508   3.454   8.360  1.3933  1.1964 -0.7016
  151SAPE  C31716783   1.593   3.592   8.496  0.2495 -0.0118  0.0632
  151SAPE  H17X16784   1.612   3.681   8.432  0.0754 -1.5142 -2.1783
  151SAPE  H17Y16785   1.675   3.586   8.570 -0.2909 -0.8355  0.6141
  151SAPE  C31816786   1.460   3.614   8.575 -0.1335  0.8606 -0.5902
  151SAPE  H18X16787   1.381   3.605   8.497  0.1690 -2.2472 -0.6809
  151SAPE  H18Y16788   1.446   3.715   8.619 -1.6321 -0.3991  2.1170
  151SAPE  H18Z16789   1.434   3.532   8.645  0.0728  0.4244 -1.0220
  152SAPE     N16790   4.383   1.150   6.515  0.1575  0.1321  0.5780
  152SAPE   HN116791   4.318   1.132   6.594  0.4551  1.8799  1.2530
  152SAPE   HN216792   4.426   1.242   6.533  0.2978  0.4941 -1.3834
  152SAPE   HN316793   4.330   1.148   6.426 -0.1393 -0.7340  0.7627
  152SAPE   C1216794   4.491   1.035   6.509  0.2859 -0.0230 -1.3031
  152SAPE  H12A16795   4.555   1.066   6.594 -0.3511  3.8811 -2.0103
  152SAPE  H12B16796   4.548   1.058   6.417  3.6565  0.4798  0.7265
  152SAPE   C1116797   4.427   0.888   6.525  0.6748 -0.6482 -0.0917
  152SAPE  H11A16798   4.362   0.887   6.615 -1.7372  2.9211 -1.5371
  152SAPE  H11B16799   4.502   0.809   6.541  1.6348  0.1957 -0.3200
  152SAPE     P16800   4.382   0.777   6.303  0.0242  0.3273  0.2514
  152SAPE   O1316801   4.366   0.847   6.175 -0.2515 -0.5155  0.1760
  152SAPE   O1416802   4.507   0.708   6.329 -0.4957  0.0138 -0.3674
  152SAPE   O1216803   4.334   0.871   6.417 -1.0362 -0.2966  0.5434
  152SAPE   O1116804   4.257   0.675   6.304  0.4920 -0.5205  0.3619
  152SAPE    C116805   4.244   0.596   6.422  0.4390  0.3598 -0.7778
  152SAPE    HA16806   4.199   0.497   6.398  0.2794 -0.5494  2.7312
  152SAPE    HB16807   4.341   0.566   6.469  0.3274  1.6766  0.3392
  152SAPE    C216808   4.148   0.642   6.537 -0.9644  0.5706  0.0022
  152SAPE    HS16809   4.195   0.720   6.600 -1.5524 -1.1033  2.7055
  152SAPE   O2116810   4.100   0.529   6.612  0.4265 -0.0031  0.1965
  152SAPE   C2116811   4.181   0.452   6.680 -0.1525  0.1644  0.5415
  152SAPE   O2216812   4.299   0.466   6.695 -0.9618 -0.3785  0.3774
  152SAPE   C2216813   4.097   0.345   6.749 -0.0825  0.0004  0.6726
  152SAPE   H2R16814   4.013   0.390   6.807  0.5851  0.4568  1.3141
  152SAPE   H2S16815   4.052   0.278   6.673  2.9804 -1.8900  0.3619
  152SAPE    C316816   4.031   0.716   6.478  0.0990  0.5323 -0.2116
  152SAPE    HX16817   3.998   0.653   6.393  0.1651  1.6434 -1.0924
  152SAPE    HY16818   4.068   0.810   6.430  2.2141 -1.2453 -2.3316
  152SAPE   O3116819   3.927   0.729   6.571  0.2578 -0.9262  0.1381
  152SAPE   C3116820   3.936   0.823   6.664  0.6175  0.2755 -0.4502
  152SAPE   O3216821   4.036   0.889   6.689 -0.2029  0.0780  0.1810
  152SAPE   C3216822   3.806   0.824   6.751  0.5312  0.1929  0.0393
  152SAPE   H2X16823   3.738   0.742   6.721 -1.0791  1.2621  0.6451
  152SAPE   H2Y16824   3.757   0.919   6.720 -0.6041 -0.1052  0.8973
  152SAPE   C2316825   4.181   0.251   6.841 -0.0881  0.0650  0.4761
  152SAPE   H3R16826   4.260   0.199   6.784 -0.4440  0.4825 -0.4148
  152SAPE   H3S16827   4.108   0.172   6.869  1.0387 -2.3000 -2.6982
  152SAPE   C2416828   4.230   0.318   6.971  0.3911  0.3192  0.0920
  152SAPE   H4R16829   4.305   0.395   6.945 -1.6143  2.1117 -0.6962
  152SAPE   H4S16830   4.273   0.232   7.027  0.9050  0.2103 -0.4696
  152SAPE   C2516831   4.119   0.387   7.050  0.0742  0.4717 -0.1197
  152SAPE   H5R16832   4.081   0.485   7.017  0.0175  1.1327  1.7692
  152SAPE   C2616833   4.072   0.343   7.172  0.0609 -0.0494 -0.2581
  152SAPE   H6R16834   4.001   0.407   7.226 -1.5123 -0.0920 -2.1782
  152SAPE   C2716835   4.117   0.224   7.251  0.1686 -0.4423  0.0545
  152SAPE   H7R16836   4.151   0.139   7.188 -1.8223 -1.4453  0.2458
  152SAPE   H7S16837   4.036   0.180   7.313  0.6677 -1.3299  0.0976
  152SAPE   C2816838   4.238   0.266   7.328  0.4248 -0.7507  0.0686
  152SAPE   H8R16839   4.326   0.289   7.268 -0.7485  0.9816 -1.0615
  152SAPE   C2916840   4.251   0.285   7.459  0.9022 -0.0821  0.2053
  152SAPE   H9R16841   4.349   0.322   7.492  0.8768  0.9936 -0.8571
  152SAPE  C21016842   4.143   0.264   7.570 -0.5033  0.2076  0.9488
  152SAPE  H10R16843   4.055   0.213   7.524  1.9084 -0.9256 -2.9436
  152SAPE  H10S16844   4.108   0.360   7.615  1.8225  1.3350  0.4965
  152SAPE  C21116845   4.190   0.169   7.680 -0.1834  0.2045  0.1137
  152SAPE  H11R16846   4.269   0.099   7.649 -1.1709 -0.5839 -0.6875
  152SAPE  C21216847   4.154   0.163   7.809  0.3632 -0.7334 -0.0146
  152SAPE  H12R16848   4.218   0.100   7.874 -0.6027 -0.2084  1.4994
  152SAPE  C21316849   4.063   0.258   7.876  0.0109 -0.2145  0.0289
  152SAPE  H13R16850   4.000   0.312   7.802 -1.9246 -1.0686  0.9966
  152SAPE  H13S16851   4.132   0.332   7.922  1.6945  1.1161 -4.2029
  152SAPE  C21416852   3.968   0.194   7.975 -0.1943  0.4583  0.0531
  152SAPE  H14R16853   3.931   0.092   7.958  1.2819 -0.7356  3.1933
  152SAPE  C21516854   3.918   0.250   8.086  0.4946 -0.1411  0.0241
  152SAPE  H15R16855   3.853   0.185   8.146 -0.1262 -0.6772 -1.1870
  152SAPE  C21616856   3.948   0.380   8.143 -1.1215  0.9808 -0.0960
  152SAPE  H16R16857   3.853   0.433   8.165 -0.1472  1.6170  3.2834
  152SAPE  H16S16858   4.003   0.444   8.071  0.1934 -0.7535 -0.6924
  152SAPE  C21716859   4.021   0.382   8.278 -0.8112  0.2405 -0.1091
  152SAPE  H17R16860   4.117   0.326   8.276 -0.9994 -0.4026  3.1981
  152SAPE  H17S16861   3.966   0.332   8.360 -0.5150  0.7902  0.4317
  152SAPE  C21816862   4.059   0.527   8.329  0.7406  0.2938  0.0272
  152SAPE  H18R16863   4.100   0.594   8.251  1.5506 -0.1924  0.0218
  152SAPE  H18S16864   4.131   0.515   8.413 -0.3173  0.0865  0.9342
  152SAPE  C21916865   3.939   0.608   8.381 -0.3070  0.8075 -0.0381
  152SAPE  H19R16866   3.866   0.533   8.418 -0.6019  0.5528 -1.1086
  152SAPE  H19S16867   3.892   0.663   8.297 -1.3011 -0.8811 -0.6246
  152SAPE  C22016868   3.962   0.711   8.487 -0.2445 -0.3055 -0.2484
  152SAPE  H20R16869   4.035   0.782   8.442 -1.2211  0.1322 -1.2019
  152SAPE  H20S16870   3.998   0.677   8.586 -0.0583 -1.6457 -0.7614
  152SAPE  H20T16871   3.864   0.762   8.505 -1.2946 -2.7747  1.6982
  152SAPE   C3316872   3.825   0.812   6.909  0.3299  0.2769  0.0535
  152SAPE   H3X16873   3.898   0.889   6.941  0.1269  0.5855 -0.2233
  152SAPE   H3Y16874   3.866   0.711   6.931 -2.7204 -1.1570 -0.3148
  152SAPE   C3416875   3.693   0.827   6.985  0.8414 -0.1214  0.3845
  152SAPE   H4X16876   3.615   0.762   6.940  0.6781 -1.3744  2.3695
  152SAPE   H4Y16877   3.663   0.934   6.991  1.7379  0.1136  0.7342
  152SAPE   C3516878   3.718   0.775   7.126 -0.2625  0.3206  0.6641
  152SAPE   H5X16879   3.814   0.821   7.158  1.2990 -2.1236 -0.2258
  152SAPE   H5Y16880   3.728   0.664   7.131 -1.4980  0.0965 -0.9003
  152SAPE   C3616881   3.616   0.825   7.232  0.1467  0.0345 -0.2206
  152SAPE   H6X16882   3.515   0.791   7.199  0.2017 -0.4251  0.0802
  152SAPE   H6Y16883   3.599   0.932   7.210  0.4209 -0.3156 -2.3343
  152SAPE   C3716884   3.644   0.781   7.380  0.4425 -0.2945 -0.2555
  152SAPE   H7X16885   3.751   0.752   7.392  0.9230  0.5260 -2.1875
  152SAPE   H7Y16886   3.585   0.689   7.395 -1.9309  0.8831 -1.7881
  152SAPE   C3816887   3.626   0.892   7.482  0.0165 -0.3382 -0.6246
  152SAPE   H8X16888   3.696   0.976   7.464 -1.0410  0.8829  0.7226
  152SAPE   H8Y16889   3.635   0.853   7.585  0.3388 -0.7873 -0.8189
  152SAPE   C3916890   3.484   0.949   7.477 -0.0784  0.7623  0.2672
  152SAPE   H9X16891   3.414   0.862   7.477  0.7603 -0.0040 -2.2647
  152SAPE   H9Y16892   3.467   0.996   7.378  0.5332  1.0488  0.2923
  152SAPE  C31016893   3.452   1.053   7.582  0.1623  0.1816  0.5181
  152SAPE  H10X16894   3.342   1.062   7.574  0.2445  2.1198  1.0556
  152SAPE  H10Y16895   3.497   1.153   7.562 -1.6453  0.7044 -1.2071
  152SAPE  C31116896   3.490   1.018   7.728  0.7357 -0.3504 -0.5196
  152SAPE  H11X16897   3.600   1.008   7.737  0.7964  0.2128 -0.6207
  152SAPE  H11Y16898   3.425   0.933   7.760 -1.0865 -0.3340 -3.7141
  152SAPE  C31216899   3.448   1.126   7.832  0.4815  0.1107  0.0490
  152SAPE  H12X16900   3.338   1.139   7.828  0.6677  1.6224 -2.4949
  152SAPE  H12Y16901   3.492   1.225   7.809  1.2169 -0.4667 -1.1839
  152SAPE  C31316902   3.490   1.093   7.976 -0.1424 -0.3269 -0.1060
  152SAPE  H13X16903   3.601   1.098   7.976 -0.0582 -1.4152 -1.9387
  152SAPE  H13Y16904   3.469   0.984   7.978  1.2415 -0.6847 -2.0258
  152SAPE  C31416905   3.424   1.173   8.090 -0.1874  0.5561 -0.0462
  152SAPE  H14X16906   3.453   1.279   8.082  4.4919 -0.6150 -1.4609
  152SAPE  H14Y16907   3.471   1.144   8.186  2.3177 -0.8225 -1.5819
  152SAPE  C31516908   3.279   1.139   8.112  0.2831  0.1609  0.6276
  152SAPE  H15X16909   3.274   1.030   8.131  1.4957  0.2446  1.5416
  152SAPE  H15Y16910   3.240   1.170   8.013 -2.1632 -0.8865  1.2026
  152SAPE  C31616911   3.214   1.220   8.225  0.2799 -0.2725  0.2753
  152SAPE  H16X16912   3.105   1.235   8.204  0.2154  1.0632  1.4192
  152SAPE  H16Y16913   3.271   1.314   8.237  0.9826 -0.3404 -2.0254
  152SAPE  C31716914   3.226   1.145   8.353  0.1936 -0.2318 -0.5741
  152SAPE  H17X16915   3.328   1.106   8.377 -0.8318 -1.9459  1.2938
  152SAPE  H17Y16916   3.161   1.057   8.338 -1.9848  1.4918 -1.8271
  152SAPE  C31816917   3.183   1.214   8.477  0.2719  0.4032 -0.2058
  152SAPE  H18X16918   3.237   1.311   8.476 -0.3935  0.7749 -1.0020
  152SAPE  H18Y16919   3.198   1.162   8.574 -0.0748  2.9711  1.3290
  152SAPE  H18Z16920   3.079   1.252   8.471  0.5362  1.8968  2.6539
  153SAPE     N16921   0.343   6.267   6.130 -0.1139  0.6632 -0.1095
  153SAPE   HN116922   0.444   6.288   6.128  0.5585 -1.9535  1.4535
  153SAPE   HN216923   0.309   6.282   6.032 -1.9133  4.4738  0.9125
  153SAPE   HN316924   0.293   6.331   6.195 -0.6790 -0.7794  0.9298
  153SAPE   C1216925   0.310   6.124   6.161  0.1600 -0.2192 -0.5218
  153SAPE  H12A16926   0.356   6.097   6.258 -0.4557  2.3971  0.5889
  153SAPE  H12B16927   0.358   6.045   6.099  1.5196 -1.2869  1.7538
  153SAPE   C1116928   0.158   6.098   6.157  0.0497  0.2097 -0.4184
  153SAPE  H11A16929   0.142   5.991   6.132 -1.1855  0.4735 -0.8332
  153SAPE  H11B16930   0.118   6.154   6.070 -1.1277  0.1563  0.0727
  153SAPE     P16931   0.056   6.271   6.331  0.3185 -0.3223  0.1187
  153SAPE   O1316932   0.166   6.361   6.287  0.0088  1.1736 -0.0379
  153SAPE   O1416933  -0.086   6.296   6.289 -0.7903  0.5942 -0.4745
  153SAPE   O1216934   0.100   6.127   6.281 -0.5144  0.3953 -0.5974
  153SAPE   O1116935   0.055   6.255   6.481 -0.1233 -0.3082 -0.6047
  153SAPE    C116936   0.168   6.205   6.549 -0.0682  0.6228  0.2102
  153SAPE    HA16937   0.267   6.202   6.497 -0.0477  2.6775  0.0176
  153SAPE    HB16938   0.188   6.276   6.632 -0.1742  0.7791  0.1028
  153SAPE    C216939   0.133   6.072   6.617 -0.6222  0.1402  0.2343
  153SAPE    HS16940   0.061   6.016   6.554 -1.8002  0.5089  1.2174
  153SAPE   O2116941   0.066   6.098   6.744 -0.7443 -0.2117  0.2557
  153SAPE   C2116942  -0.029   6.002   6.765 -0.6267 -0.1498  0.1158
  153SAPE   O2216943  -0.061   5.911   6.694 -0.1919 -0.6206  0.1848
  153SAPE   C2216944  -0.117   6.052   6.883 -0.5372  0.2577 -0.1993
  153SAPE   H2R16945  -0.075   6.146   6.923 -1.2403  0.3086  0.4425
  153SAPE   H2S16946  -0.211   6.071   6.827 -1.5299 -1.3993  0.8019
  153SAPE    C316947   0.256   5.980   6.655 -0.6701 -0.1058 -0.2227
  153SAPE    HX16948   0.319   6.046   6.718  1.2613 -0.7754 -1.3689
  153SAPE    HY16949   0.327   5.966   6.571  1.3809  3.3544  0.7592
  153SAPE   O3116950   0.234   5.862   6.727 -0.2113  0.8661  0.4116
  153SAPE   C3116951   0.206   5.754   6.652 -0.5969  0.4878 -0.2656
  153SAPE   O3216952   0.193   5.753   6.531 -0.1185 -0.1850  0.2621
  153SAPE   C3216953   0.167   5.639   6.748 -0.3761 -0.5785  0.4703
  153SAPE   H2X16954   0.239   5.557   6.727 -0.2787 -0.5160  0.5601
  153SAPE   H2Y16955   0.073   5.600   6.704  2.2735 -3.7083 -3.1308
  153SAPE   C2316956  -0.161   5.947   6.988 -0.0540 -0.5346 -0.0300
  153SAPE   H3R16957  -0.075   5.928   7.057 -0.4679  1.9872  1.3191
  153SAPE   H3S16958  -0.191   5.852   6.940 -0.8652  0.0805 -0.7567
  153SAPE   C2416959  -0.281   5.996   7.081 -0.8236  0.0321  1.0647
  153SAPE   H4R16960  -0.340   5.911   7.123 -0.8301 -0.1474  0.6915
  153SAPE   H4S16961  -0.365   6.044   7.025  0.6943  3.3348  1.3402
  153SAPE   C2516962  -0.238   6.086   7.185 -0.4809 -0.4165  0.5245
  153SAPE   H5R16963  -0.163   6.162   7.161 -2.0230  1.0906  0.3015
  153SAPE   C2616964  -0.282   6.077   7.312 -0.7453  0.4066 -0.4493
  153SAPE   H6R16965  -0.243   6.150   7.385  1.9919  0.4172 -1.7660
  153SAPE   C2716966  -0.375   5.964   7.361 -0.4202  0.0755 -0.1812
  153SAPE   H7R16967  -0.313   5.874   7.379 -0.9932 -0.2904 -0.0161
  153SAPE   H7S16968  -0.455   5.935   7.289 -0.8993  1.5287 -0.2729
  153SAPE   C2816969  -0.447   6.018   7.484 -0.2846 -0.6473  0.1585
  153SAPE   H8R16970  -0.537   6.076   7.458  0.2995 -0.1605 -0.8785
  153SAPE   C2916971  -0.403   6.027   7.609  0.1678  0.1939 -0.2363
  153SAPE   H9R16972  -0.465   6.071   7.688  0.0856 -0.9230  0.3457
  153SAPE  C21016973  -0.269   5.968   7.653 -0.2230 -0.1014  0.3839
  153SAPE  H10R16974  -0.186   6.023   7.604  0.3602 -0.2980  1.1245
  153SAPE  H10S16975  -0.260   5.861   7.624  3.1646  0.4250 -0.9822
  153SAPE  C21116976  -0.233   5.992   7.801  0.5282 -0.4508 -0.0590
  153SAPE  H11R16977  -0.140   6.046   7.824  0.2089  0.2589 -0.4089
  153SAPE  C21216978  -0.301   5.959   7.911 -0.2364 -0.2804 -0.4169
  153SAPE  H12R16979  -0.251   5.976   8.007  0.8984 -2.9543 -0.4287
  153SAPE  C21316980  -0.434   5.886   7.910  0.1885  0.1679 -0.6151
  153SAPE  H13R16981  -0.414   5.785   7.868  1.0727 -0.5854  1.5373
  153SAPE  H13S16982  -0.505   5.944   7.847  2.2378  2.1979 -1.2035
  153SAPE  C21416983  -0.505   5.860   8.043 -0.7129 -0.0062 -0.3995
  153SAPE  H14R16984  -0.599   5.914   8.060  0.4918  1.5763  1.6384
  153SAPE  C21516985  -0.462   5.782   8.143 -0.6740  0.7451  0.1127
  153SAPE  H15R16986  -0.516   5.785   8.238  0.8909 -0.8589  1.1192
  153SAPE  C21616987  -0.328   5.712   8.149  0.4849  0.1158 -0.2165
  153SAPE  H16R16988  -0.267   5.715   8.057  1.7326  3.0541  0.5963
  153SAPE  H16S16989  -0.350   5.606   8.177  1.8689 -0.7172 -2.0546
  153SAPE  C21716990  -0.245   5.765   8.267 -0.4576 -0.6638 -0.4119
  153SAPE  H17R16991  -0.303   5.780   8.361 -1.4323 -2.4102 -0.6840
  153SAPE  H17S16992  -0.211   5.870   8.254 -0.1828 -0.5262  1.1716
  153SAPE  C21816993  -0.120   5.686   8.298 -0.0167 -0.3851 -0.2925
  153SAPE  H18R16994  -0.056   5.682   8.207  2.3734  0.4149  1.2450
  153SAPE  H18S16995  -0.151   5.584   8.329 -1.5815  0.1269 -0.1078
  153SAPE  C21916996  -0.036   5.737   8.413  0.1225 -0.3888 -0.5510
  153SAPE  H19R16997   0.032   5.813   8.368 -0.7513  0.4650 -0.4828
  153SAPE  H19S16998   0.027   5.650   8.441  2.5668  1.6560  0.7599
  153SAPE  C22016999  -0.102   5.796   8.536 -0.3353 -0.3903 -0.8120
  153SAPE  H20R17000  -0.118   5.905   8.520  1.1194 -0.2388 -1.4041
  153SAPE  H20S17001  -0.025   5.805   8.617  0.8967  1.0487 -2.0704
  153SAPE  H20T17002  -0.195   5.747   8.571 -0.1590 -0.3217 -0.2325
  153SAPE   C3317003   0.165   5.670   6.900  0.4025 -0.1375  0.5919
  153SAPE   H3X17004   0.080   5.740   6.917 -0.0484 -0.5369 -0.0061
  153SAPE   H3Y17005   0.256   5.726   6.930  0.1234  1.3293 -1.1015
  153SAPE   C3417006   0.129   5.545   6.990 -0.5096 -0.0856  0.2405
  153SAPE   H4X17007   0.222   5.484   6.988 -1.0356 -1.0210 -3.2711
  153SAPE   H4Y17008   0.060   5.470   6.946  0.3123 -1.0122  0.5085
  153SAPE   C3517009   0.065   5.577   7.125  0.3744 -0.1190  0.5264
  153SAPE   H5X17010   0.061   5.482   7.183  0.4609 -1.5055 -1.6322
  153SAPE   H5Y17011  -0.044   5.592   7.107  0.2819 -0.4240  0.8273
  153SAPE   C3617012   0.123   5.702   7.202  0.5708  0.3909 -0.5734
  153SAPE   H6X17013   0.122   5.791   7.135  0.0600  0.9635  0.1870
  153SAPE   H6Y17014   0.225   5.683   7.243 -0.2129  0.4415  1.5364
  153SAPE   C3717015   0.041   5.735   7.332 -0.1251 -0.6042  0.4514
  153SAPE   H7X17016  -0.047   5.799   7.309 -1.5424 -2.0389  1.6012
  153SAPE   H7Y17017   0.108   5.799   7.392 -0.2186 -0.6830  0.6409
  153SAPE   C3817018  -0.003   5.614   7.415 -0.7390  0.3254 -0.2789
  153SAPE   H8X17019   0.079   5.540   7.413 -0.7820  0.1004  2.8504
  153SAPE   H8Y17020  -0.094   5.560   7.379 -0.0230 -0.4618 -0.9558
  153SAPE   C3917021  -0.031   5.656   7.557 -0.9096  0.2293 -0.0608
  153SAPE   H9X17022  -0.126   5.715   7.565  0.6494  2.6765  1.8259
  153SAPE   H9Y17023   0.054   5.711   7.602 -0.5972 -0.5063  0.2543
  153SAPE  C31017024  -0.054   5.530   7.633 -0.5146 -0.2274 -0.3849
  153SAPE  H10X17025   0.012   5.447   7.600 -0.1149 -0.1602  0.2187
  153SAPE  H10Y17026  -0.157   5.491   7.619 -0.6471 -0.0222 -0.0014
  153SAPE  C31117027  -0.053   5.544   7.784  0.1592 -0.4549 -0.2561
  153SAPE  H11X17028  -0.115   5.632   7.809 -0.1475 -0.7809  0.1546
  153SAPE  H11Y17029   0.055   5.557   7.808 -0.2092  2.3233  0.1385
  153SAPE  C31217030  -0.102   5.419   7.858  0.3120  0.7078  0.1154
  153SAPE  H12X17031  -0.058   5.332   7.805  0.4316  1.1521 -0.5241
  153SAPE  H12Y17032  -0.208   5.404   7.829  0.4400  0.9704 -0.4896
  153SAPE  C31317033  -0.079   5.413   8.010  0.5413 -0.1512 -0.2168
  153SAPE  H13X17034  -0.130   5.507   8.039  2.8939  0.9330  0.6876
  153SAPE  H13Y17035   0.030   5.420   8.029  1.1234 -0.5025 -2.9752
  153SAPE  C31417036  -0.132   5.292   8.086  0.7950  0.1089  0.3933
  153SAPE  H14X17037  -0.062   5.207   8.070 -0.0530 -0.5204 -0.0832
  153SAPE  H14Y17038  -0.232   5.266   8.044  1.4672  0.2542 -1.4121
  153SAPE  C31517039  -0.151   5.312   8.232  0.1981  0.1756 -0.4534
  153SAPE  H15X17040  -0.216   5.399   8.255  1.9523  1.0258  1.6990
  153SAPE  H15Y17041  -0.055   5.352   8.272 -0.6882  3.5606 -1.3638
  153SAPE  C31617042  -0.174   5.183   8.314  0.7023  0.2997  0.1105
  153SAPE  H16X17043  -0.079   5.125   8.318  0.1323 -0.5967  2.6915
  153SAPE  H16Y17044  -0.254   5.122   8.267 -0.8710  0.9206  1.8792
  153SAPE  C31717045  -0.221   5.212   8.457  0.6433  0.0161  0.3662
  153SAPE  H17X17046  -0.304   5.286   8.450  1.4862  0.8097 -2.8119
  153SAPE  H17Y17047  -0.141   5.263   8.513 -0.4799  2.4702 -0.1483
  153SAPE  C31817048  -0.262   5.080   8.525 -0.5094 -0.1226  1.0079
  153SAPE  H18X17049  -0.305   5.108   8.624  2.6959  2.9979  1.7364
  153SAPE  H18Y17050  -0.179   5.007   8.518  0.1363  0.6597  0.3782
  153SAPE  H18Z17051  -0.347   5.039   8.466  0.0439  0.6235 -0.3534
  154SAPE     N17052   6.076   0.260   6.109  0.2005 -0.2150  0.4040
  154SAPE   HN117053   6.163   0.316   6.125 -1.3190  3.0995 -1.8250
  154SAPE   HN217054   6.072   0.173   6.165 -3.3656 -0.8661 -0.6375
  154SAPE   HN317055   6.077   0.222   6.012  3.1290 -1.4240  0.8042
  154SAPE   C1217056   5.962   0.357   6.137  0.4085  0.0871  0.0820
  154SAPE  H12A17057   5.953   0.381   6.245 -1.3078 -1.5360  0.3734
  154SAPE  H12B17058   5.870   0.296   6.120 -0.6132  1.6779 -0.2679
  154SAPE   C1117059   5.950   0.476   6.041  0.7517 -0.1430  0.0464
  154SAPE  H11A17060   5.851   0.524   6.059  0.4328 -0.5936 -0.4537
  154SAPE  H11B17061   5.965   0.439   5.938 -1.1063 -0.4047 -0.1735
  154SAPE     P17062   6.093   0.704   6.014  0.7366  0.3450 -0.1651
  154SAPE   O1317063   6.239   0.720   6.000 -0.0847 -0.5890 -0.7239
  154SAPE   O1417064   6.009   0.739   5.900  0.6861  0.0368  0.0588
  154SAPE   O1217065   6.062   0.559   6.071  0.4630  0.5734  0.5660
  154SAPE   O1117066   6.041   0.787   6.137 -0.0297 -0.3823  0.5294
  154SAPE    C117067   6.088   0.789   6.276  0.4546  0.1277  1.0118
  154SAPE    HA17068   6.195   0.759   6.268  0.6938  1.5428 -2.7421
  154SAPE    HB17069   6.091   0.891   6.320  2.1765  0.7854 -0.4981
  154SAPE    C217070   6.006   0.698   6.369  0.7412  0.4315 -0.2044
  154SAPE    HS17071   5.993   0.603   6.311 -0.1537 -0.4767  1.4100
  154SAPE   O2117072   5.874   0.757   6.391 -0.4807 -1.0231  0.5041
  154SAPE   C2117073   5.770   0.681   6.421 -0.1104  0.0871  0.0758
  154SAPE   O2217074   5.762   0.562   6.390 -0.1880  0.3826  0.1969
  154SAPE   C2217075   5.661   0.758   6.494 -0.0944 -0.1979 -0.5396
  154SAPE   H2R17076   5.687   0.867   6.497 -1.0791  0.0496 -0.7713
  154SAPE   H2S17077   5.572   0.756   6.428  0.0175 -2.8640 -0.6979
  154SAPE    C317078   6.076   0.687   6.511 -0.2031  0.4877  0.0019
  154SAPE    HX17079   6.076   0.792   6.546 -1.3282  0.0516  1.3819
  154SAPE    HY17080   6.185   0.669   6.503  0.3763  2.4931  2.1265
  154SAPE   O3117081   6.017   0.597   6.599  0.4778 -0.1388 -0.1040
  154SAPE   C3117082   6.035   0.470   6.573 -0.0070  0.3862 -1.1613
  154SAPE   O3217083   6.112   0.426   6.491  0.4138  0.1287 -0.2562
  154SAPE   C3217084   5.935   0.384   6.653  0.6199 -0.1537  0.1283
  154SAPE   H2X17085   5.831   0.418   6.634  0.5810 -0.8027 -0.9087
  154SAPE   H2Y17086   5.946   0.403   6.762 -2.0854  2.1809  0.1210
  154SAPE   C2317087   5.614   0.701   6.633 -0.1891 -0.5863  0.2975
  154SAPE   H3R17088   5.568   0.602   6.613 -1.5622 -0.0867  0.8832
  154SAPE   H3S17089   5.527   0.766   6.654 -0.6775 -1.3540  0.6986
  154SAPE   C2417090   5.724   0.695   6.741 -0.0362  0.3262  0.3429
  154SAPE   H4R17091   5.785   0.605   6.721 -1.6445 -1.4048  2.6953
  154SAPE   H4S17092   5.669   0.663   6.832  0.6353 -2.3350 -0.1097
  154SAPE   C2517093   5.811   0.813   6.774 -0.4572 -0.2642  0.0908
  154SAPE   H5R17094   5.884   0.844   6.698  1.2559 -0.1820  1.6780
  154SAPE   C2617095   5.813   0.888   6.885 -0.1624 -0.9021 -0.6093
  154SAPE   H6R17096   5.896   0.960   6.888  0.2314 -1.3517 -0.5436
  154SAPE   C2717097   5.721   0.888   7.007  0.0466  0.4940 -0.1780
  154SAPE   H7R17098   5.783   0.863   7.096  0.8972 -0.1676 -0.9280
  154SAPE   H7S17099   5.647   0.805   7.001  0.1104  0.1547  2.6677
  154SAPE   C2817100   5.648   1.022   7.038 -0.3795 -0.0839  0.0586
  154SAPE   H8R17101   5.654   1.096   6.956 -1.9742  1.9518  1.6663
  154SAPE   C2917102   5.572   1.045   7.140 -0.1665  0.3722  0.1176
  154SAPE   H9R17103   5.533   1.147   7.154  0.8128  0.8417 -0.4965
  154SAPE  C21017104   5.546   0.954   7.257 -0.7404  1.1402 -0.3463
  154SAPE  H10R17105   5.599   0.857   7.248 -0.2486  1.5948 -3.1182
  154SAPE  H10S17106   5.443   0.912   7.255  0.6642 -2.6355 -1.7323
  154SAPE  C21117107   5.581   1.015   7.390 -1.1862 -0.7834 -0.2595
  154SAPE  H11R17108   5.604   1.122   7.396  0.4966 -1.2111  2.4255
  154SAPE  C21217109   5.586   0.949   7.512 -0.0123 -0.6727 -0.0453
  154SAPE  H12R17110   5.604   0.999   7.609 -1.8814 -0.4593  0.2368
  154SAPE  C21317111   5.567   0.794   7.534 -0.1679  0.5503  0.4113
  154SAPE  H13R17112   5.651   0.746   7.589  0.7348 -1.1478 -2.2537
  154SAPE  H13S17113   5.577   0.733   7.442 -4.0047  0.6576 -0.2274
  154SAPE  C21417114   5.438   0.766   7.609  0.4243  1.1835  0.5554
  154SAPE  H14R17115   5.355   0.719   7.554 -1.2088 -0.9518  4.4521
  154SAPE  C21517116   5.422   0.780   7.743 -0.9557 -0.3107 -0.1756
  154SAPE  H15R17117   5.326   0.759   7.793 -0.1528  0.7568  1.9562
  154SAPE  C21617118   5.522   0.825   7.852 -0.1637  0.3277  0.1440
  154SAPE  H16R17119   5.469   0.890   7.925 -2.3628 -0.8015 -0.3320
  154SAPE  H16S17120   5.609   0.880   7.811  0.3238  1.2619  2.3223
  154SAPE  C21717121   5.596   0.710   7.933  0.1891 -0.0341  0.1833
  154SAPE  H17R17122   5.673   0.673   7.862  0.9421  3.3070 -0.9783
  154SAPE  H17S17123   5.523   0.631   7.959  1.1103 -1.1452 -0.5132
  154SAPE  C21817124   5.658   0.750   8.068 -0.0551 -0.8030  0.8602
  154SAPE  H18R17125   5.692   0.855   8.055 -1.5352 -0.2666  1.0940
  154SAPE  H18S17126   5.752   0.697   8.093  0.5031  0.7422  2.1792
  154SAPE  C21917127   5.562   0.735   8.190 -0.0696 -0.0156  0.1280
  154SAPE  H19R17128   5.610   0.792   8.272  1.4044 -1.2499  0.1787
  154SAPE  H19S17129   5.553   0.626   8.210 -1.3449 -0.0285 -0.4775
  154SAPE  C22017130   5.422   0.787   8.180 -0.5678 -0.4599  0.6475
  154SAPE  H20R17131   5.369   0.769   8.276  1.5991 -1.4761  1.7216
  154SAPE  H20S17132   5.360   0.736   8.103 -0.0272 -1.2810  0.7508
  154SAPE  H20T17133   5.423   0.898   8.171 -2.0331 -0.4882 -0.2132
  154SAPE   C3317134   5.951   0.228   6.621 -0.1024  0.2347 -0.0394
  154SAPE   H3X17135   6.052   0.186   6.639 -0.4747 -0.0815  1.5215
  154SAPE   H3Y17136   5.928   0.213   6.514 -1.7994  1.5372  0.0995
  154SAPE   C3417137   5.864   0.138   6.708 -0.2081 -0.2611 -0.4783
  154SAPE   H4X17138   5.759   0.166   6.687  0.8658  1.7647 -4.0427
  154SAPE   H4Y17139   5.897   0.155   6.813  0.4717 -3.7235 -0.0005
  154SAPE   C3517140   5.884  -0.012   6.687  0.1492 -0.3814 -0.7160
  154SAPE   H5X17141   5.971  -0.044   6.748 -2.2111 -0.8581  2.6836
  154SAPE   H5Y17142   5.911  -0.011   6.579  1.5050  0.4124 -0.3922
  154SAPE   C3617143   5.750  -0.089   6.711  0.3695 -0.2320  0.8370
  154SAPE   H6X17144   5.765  -0.197   6.692 -1.1957 -0.1649 -1.0792
  154SAPE   H6Y17145   5.675  -0.053   6.637  2.3371 -0.6160 -1.4747
  154SAPE   C3717146   5.694  -0.079   6.856 -0.1503  0.1340  0.3169
  154SAPE   H7X17147   5.601  -0.139   6.858  1.2616 -2.3410 -2.0610
  154SAPE   H7Y17148   5.674   0.026   6.889 -1.4380 -0.5559  1.8734
  154SAPE   C3817149   5.772  -0.153   6.968 -0.0454  0.0403  0.3252
  154SAPE   H8X17150   5.873  -0.111   6.989  0.6823 -1.3450 -0.3021
  154SAPE   H8Y17151   5.790  -0.259   6.940  1.2373  0.4840 -0.6474
  154SAPE   C3917152   5.707  -0.136   7.102 -0.2100 -0.4566  0.0791
  154SAPE   H9X17153   5.730  -0.230   7.157  0.6415 -0.6823 -0.6411
  154SAPE   H9Y17154   5.603  -0.098   7.103 -0.0521 -0.0017 -0.3860
  154SAPE  C31017155   5.777  -0.020   7.185  0.2376 -0.3966  0.5656
  154SAPE  H10X17156   5.751   0.074   7.131 -1.3298 -1.6836 -1.0434
  154SAPE  H10Y17157   5.887  -0.037   7.183  0.2931 -0.2576 -2.6953
  154SAPE  C31117158   5.722  -0.006   7.329  0.1360 -0.5040  0.4192
  154SAPE  H11X17159   5.622   0.039   7.346  0.1704  0.2457 -1.1712
  154SAPE  H11Y17160   5.780   0.068   7.389 -1.4877 -0.8174  2.5275
  154SAPE  C31217161   5.716  -0.132   7.415 -0.0439  0.2710  0.3907
  154SAPE  H12X17162   5.809  -0.192   7.409  0.1224  0.6351 -1.1568
  154SAPE  H12Y17163   5.626  -0.189   7.385  0.4013 -0.7337  0.9234
  154SAPE  C31317164   5.706  -0.101   7.567 -0.7425 -0.0647 -1.3900
  154SAPE  H13X17165   5.630  -0.030   7.607  0.4359 -0.1841  1.2214
  154SAPE  H13Y17166   5.798  -0.050   7.602 -2.3210  0.3843  2.5409
  154SAPE  C31417167   5.701  -0.241   7.637 -0.4144  0.3065 -0.1105
  154SAPE  H14X17168   5.788  -0.305   7.608  0.1230  1.1647 -0.4289
  154SAPE  H14Y17169   5.608  -0.298   7.617 -1.5956  1.2902  2.2799
  154SAPE  C31517170   5.700  -0.236   7.788 -0.3578 -0.3720 -0.1128
  154SAPE  H15X17171   5.649  -0.141   7.814 -1.8005 -0.4381 -2.4715
  154SAPE  H15Y17172   5.805  -0.226   7.825 -0.3481  0.9764 -0.4429
  154SAPE  C31617173   5.625  -0.356   7.857  1.3624 -0.3121  0.3154
  154SAPE  H16X17174   5.519  -0.368   7.826  1.0379 -2.1108  1.9379
  154SAPE  H16Y17175   5.628  -0.340   7.967  2.5814  1.3650  0.0882
  154SAPE  C31717176   5.694  -0.492   7.831 -0.1612  0.2091  0.0462
  154SAPE  H17X17177   5.804  -0.478   7.843  0.2421 -3.0975  1.2522
  154SAPE  H17Y17178   5.684  -0.526   7.726 -3.7829 -0.9195  0.6270
  154SAPE  C31817179   5.650  -0.599   7.924 -0.4250 -0.0874 -0.3276
  154SAPE  H18X17180   5.614  -0.559   8.021  1.6070 -0.9714  0.8591
  154SAPE  H18Y17181   5.737  -0.663   7.949 -0.5077  0.4351  1.4310
  154SAPE  H18Z17182   5.567  -0.659   7.882  0.5152 -1.7271  0.0280
  155SAPE     N17183   6.716   0.695   6.034  0.0505  0.4760  0.2484
  155SAPE   HN117184   6.713   0.753   5.948 -1.8531  0.7716  0.4730
  155SAPE   HN217185   6.758   0.601   6.016  0.6462  0.6916  0.4817
  155SAPE   HN317186   6.618   0.673   6.062  0.1162  2.6525  2.4837
  155SAPE   C1217187   6.774   0.762   6.160 -0.1708 -0.6830 -0.8372
  155SAPE  H12A17188   6.848   0.838   6.126 -2.0827  1.4343 -0.4685
  155SAPE  H12B17189   6.809   0.684   6.231 -0.8059  0.8369  1.2304
  155SAPE   C1117190   6.664   0.835   6.238 -0.2168 -0.2018  0.4338
  155SAPE  H11A17191   6.636   0.931   6.189 -0.2275  0.3751  1.5372
  155SAPE  H11B17192   6.718   0.872   6.328  0.4818  2.0936 -0.8463
  155SAPE     P17193   6.511   0.675   6.378  0.1341  0.1846  0.1887
  155SAPE   O1317194   6.496   0.768   6.491  0.2840  0.4320  0.2507
  155SAPE   O1417195   6.398   0.583   6.343 -0.1202 -0.4129 -0.5833
  155SAPE   O1217196   6.548   0.761   6.249  0.3005  0.3005 -0.1243
  155SAPE   O1117197   6.652   0.596   6.394  0.0950 -0.0548 -0.2322
  155SAPE    C117198   6.652   0.466   6.447  0.6613 -0.0765  0.1657
  155SAPE    HA17199   6.554   0.417   6.427 -0.8222  2.7024  0.1737
  155SAPE    HB17200   6.733   0.404   6.403  1.9718  2.7179 -1.6250
  155SAPE    C217201   6.677   0.458   6.602 -0.1300 -0.7472  0.0247
  155SAPE    HS17202   6.663   0.354   6.638 -2.0753 -0.1310  1.1532
  155SAPE   O2117203   6.585   0.534   6.684 -0.1870  0.5675  0.6760
  155SAPE   C2117204   6.463   0.485   6.697  0.8340  0.6415 -0.2754
  155SAPE   O2217205   6.431   0.369   6.690 -0.1722  0.1809  0.7932
  155SAPE   C2217206   6.370   0.602   6.738  0.2376 -0.6696 -0.2090
  155SAPE   H2R17207   6.386   0.690   6.671 -0.1101  2.0970  3.0330
  155SAPE   H2S17208   6.270   0.560   6.712 -0.0375 -0.6415  0.7545
  155SAPE    C317209   6.820   0.510   6.634 -0.1137 -0.5488 -0.4797
  155SAPE    HX17210   6.811   0.614   6.594 -0.3066  0.1705  1.3379
  155SAPE    HY17211   6.900   0.453   6.581  0.4804  0.7732 -1.0560
  155SAPE   O3117212   6.841   0.496   6.773 -0.0703 -0.1891 -0.7408
  155SAPE   C3117213   6.831   0.612   6.855 -0.7238  0.3518  0.2502
  155SAPE   O3217214   6.844   0.726   6.810 -0.2192  0.3866  0.2980
  155SAPE   C3217215   6.817   0.564   6.995  1.0458  0.2187  0.3587
  155SAPE   H2X17216   6.905   0.604   7.050  0.6812 -0.0381  1.1441
  155SAPE   H2Y17217   6.820   0.453   6.999  0.5470  0.1773 -0.3096
  155SAPE   C2317218   6.369   0.646   6.888 -0.4299 -0.2413  0.1466
  155SAPE   H3R17219   6.453   0.713   6.914  1.2076 -3.2987  3.6100
  155SAPE   H3S17220   6.395   0.555   6.946 -0.7565  0.1474  0.9239
  155SAPE   C2417221   6.236   0.708   6.940  0.2371 -0.5984  0.5494
  155SAPE   H4R17222   6.219   0.801   6.882 -1.8981 -1.2716  0.0274
  155SAPE   H4S17223   6.260   0.742   7.043  0.3323  2.0361 -0.2675
  155SAPE   C2517224   6.113   0.630   6.928 -0.4508  0.0204 -0.1177
  155SAPE   H5R17225   6.059   0.640   6.833 -0.5316 -0.2574 -0.1021
  155SAPE   C2617226   6.052   0.558   7.020 -0.2864 -0.2883  0.2851
  155SAPE   H6R17227   5.961   0.503   6.994 -0.9868 -0.7761  3.3928
  155SAPE   C2717228   6.086   0.552   7.168  0.0966  0.3899 -0.0119
  155SAPE   H7R17229   6.187   0.510   7.188 -0.3060 -1.4654 -1.6226
  155SAPE   H7S17230   6.025   0.470   7.211  1.0508 -0.7205 -0.7283
  155SAPE   C2817231   6.048   0.678   7.243  0.3759 -0.2257 -0.0383
  155SAPE   H8R17232   5.968   0.738   7.198 -0.0617 -0.3644  0.5453
  155SAPE   C2917233   6.087   0.711   7.367  0.3294  0.3715 -0.1561
  155SAPE   H9R17234   6.045   0.804   7.409  0.0456 -0.0902  0.5854
  155SAPE  C21017235   6.168   0.621   7.461  0.4506 -0.1430 -0.7450
  155SAPE  H10R17236   6.222   0.684   7.536  0.8244 -1.1144 -0.1790
  155SAPE  H10S17237   6.245   0.574   7.396  0.7149 -2.9997  1.4416
  155SAPE  C21117238   6.096   0.511   7.529  0.1316  0.6658 -0.0451
  155SAPE  H11R17239   6.036   0.452   7.458 -1.6847  0.0983  1.8352
  155SAPE  C21217240   6.094   0.477   7.661 -0.5699  0.5428  0.7328
  155SAPE  H12R17241   6.045   0.385   7.696  0.3575 -0.0051  0.6145
  155SAPE  C21317242   6.155   0.554   7.770 -0.6146  0.6287  0.3395
  155SAPE  H13R17243   6.073   0.613   7.814  0.3377  0.1731  2.8966
  155SAPE  H13S17244   6.233   0.622   7.729  1.0099 -1.0210  0.5691
  155SAPE  C21417245   6.214   0.461   7.871  0.2776  0.1303  0.2436
  155SAPE  H14R17246   6.310   0.420   7.837 -0.4249  0.5388 -2.4144
  155SAPE  C21517247   6.159   0.421   7.988  0.4014  0.3206 -0.1012
  155SAPE  H15R17248   6.215   0.352   8.052 -0.3089  3.4489  4.3511
  155SAPE  C21617249   6.027   0.453   8.058 -0.8286  0.0080 -0.1811
  155SAPE  H16R17250   5.963   0.504   7.983 -0.2960  0.4952 -0.3115
  155SAPE  H16S17251   6.040   0.531   8.136 -0.0667 -0.6699  0.3827
  155SAPE  C21717252   5.955   0.332   8.119  0.1242  0.8178 -0.5886
  155SAPE  H17R17253   5.862   0.370   8.167 -0.8725  0.1347 -1.9085
  155SAPE  H17S17254   6.021   0.285   8.194 -0.9524  0.3654  0.1061
  155SAPE  C21817255   5.915   0.222   8.014 -0.3689 -0.3798  0.3486
  155SAPE  H18R17256   6.014   0.191   7.975  0.2161  0.1484  1.3583
  155SAPE  H18S17257   5.858   0.255   7.924 -0.7654  0.0924  0.7679
  155SAPE  C21917258   5.837   0.105   8.076  0.2584 -0.4559 -0.6250
  155SAPE  H19R17259   5.732   0.140   8.085  0.6872  0.4916  1.1925
  155SAPE  H19S17260   5.883   0.066   8.169  4.6727  0.9960 -1.9273
  155SAPE  C22017261   5.820  -0.014   7.987  0.2894 -0.2605 -0.1023
  155SAPE  H20R17262   5.915  -0.039   7.936 -0.0804  2.6031 -2.4950
  155SAPE  H20S17263   5.748   0.016   7.907  1.1666 -0.5293 -1.0210
  155SAPE  H20T17264   5.763  -0.093   8.039 -1.2982  0.0920 -1.2067
  155SAPE   C3317265   6.679   0.621   7.048 -0.4531 -0.5962  0.2876
  155SAPE   H3X17266   6.603   0.600   6.970  1.9650 -1.9458 -1.8908
  155SAPE   H3Y17267   6.672   0.732   7.044  0.6963 -0.5313 -0.5916
  155SAPE   C3417268   6.646   0.564   7.185 -0.4258 -0.0446 -0.6755
  155SAPE   H4X17269   6.685   0.461   7.191 -1.5426 -0.5231 -1.2462
  155SAPE   H4Y17270   6.537   0.553   7.202 -0.3269  0.1090  0.1133
  155SAPE   C3517271   6.679   0.659   7.300  0.9036 -0.4718  0.0465
  155SAPE   H5X17272   6.636   0.757   7.267  2.6900  0.6754  0.9974
  155SAPE   H5Y17273   6.789   0.664   7.314  0.7871  0.2409  0.7856
  155SAPE   C3617274   6.610   0.616   7.435  0.3045 -0.1260  0.0607
  155SAPE   H6X17275   6.620   0.506   7.452 -1.0859  0.0506  2.6545
  155SAPE   H6Y17276   6.502   0.636   7.419  0.2622 -1.5048 -1.6662
  155SAPE   C3717277   6.668   0.692   7.553  0.5655  0.9548  0.9311
  155SAPE   H7X17278   6.656   0.801   7.539  1.1990  0.9773  0.5365
  155SAPE   H7Y17279   6.776   0.667   7.555  0.4459 -0.2267 -2.0749
  155SAPE   C3817280   6.595   0.652   7.686 -0.7013  0.1419  0.0937
  155SAPE   H8X17281   6.487   0.677   7.685 -0.7996 -0.2728 -0.1816
  155SAPE   H8Y17282   6.647   0.712   7.763 -0.4224 -0.5492  0.4508
  155SAPE   C3917283   6.629   0.512   7.727  0.0022  0.9544 -0.0661
  155SAPE   H9X17284   6.730   0.476   7.696 -0.7846 -2.1786  0.7086
  155SAPE   H9Y17285   6.549   0.442   7.696  0.9928 -0.4530  0.4655
  155SAPE  C31017286   6.623   0.481   7.875 -0.1924  0.3002 -0.4528
  155SAPE  H10X17287   6.522   0.518   7.903  0.2935  1.9631 -0.7500
  155SAPE  H10Y17288   6.685   0.558   7.927  0.6313  0.0176 -0.9966
  155SAPE  C31117289   6.647   0.333   7.922 -0.1006  0.0507  0.7810
  155SAPE  H11X17290   6.748   0.324   7.968 -0.4598 -1.4631  1.3159
  155SAPE  H11Y17291   6.637   0.265   7.835  0.4926  0.0757  0.6871
  155SAPE  C31217292   6.546   0.298   8.037 -0.2744 -0.0785  0.4680
  155SAPE  H12X17293   6.533   0.188   8.050  0.3492 -0.3938 -1.3469
  155SAPE  H12Y17294   6.448   0.343   8.013  1.2234  2.4123 -1.3993
  155SAPE  C31317295   6.592   0.365   8.167  0.1716 -0.0720  0.3623
  155SAPE  H13X17296   6.615   0.473   8.154  1.1751 -0.3284 -0.0975
  155SAPE  H13Y17297   6.680   0.321   8.219 -0.3449  0.3076  1.6014
  155SAPE  C31417298   6.488   0.360   8.280 -0.6029 -0.5338 -0.5435
  155SAPE  H14X17299   6.457   0.254   8.288 -0.9335 -0.3673  0.4746
  155SAPE  H14Y17300   6.401   0.430   8.277 -0.2407 -0.0598 -0.1818
  155SAPE  C31517301   6.550   0.413   8.418  0.6223 -0.4556 -0.0543
  155SAPE  H15X17302   6.478   0.479   8.472  0.5197 -0.3987 -0.2578
  155SAPE  H15Y17303   6.636   0.478   8.389 -0.6588  0.8200 -1.1425
  155SAPE  C31617304   6.601   0.299   8.504 -0.6588 -0.2400  0.7557
  155SAPE  H16X17305   6.664   0.227   8.448  1.4799  1.9526  0.2100
  155SAPE  H16Y17306   6.512   0.256   8.555  0.6001 -1.9863  1.5827
  155SAPE  C31717307   6.685   0.350   8.623  0.3289 -0.7932 -0.2202
  155SAPE  H17X17308   6.676   0.281   8.710 -1.5533 -0.2482  0.0575
  155SAPE  H17Y17309   6.646   0.451   8.648  0.2044 -1.3586  2.0676
  155SAPE  C31817310   6.832   0.376   8.602 -0.1983 -0.7664 -0.1512
  155SAPE  H18X17311   6.893   0.290   8.568 -0.2752  0.2682 -3.1718
  155SAPE  H18Y17312   6.876   0.414   8.697 -0.5808 -1.2432  0.2235
  155SAPE  H18Z17313   6.849   0.454   8.524  1.7507 -1.2646 -0.2751
  156SAPE     N17314   5.192   2.220   6.472  0.4422 -0.2319  0.1400
  156SAPE   HN117315   5.212   2.129   6.518  2.7360 -0.3571 -0.9401
  156SAPE   HN217316   5.271   2.234   6.406 -0.0978  2.7969 -0.0277
  156SAPE   HN317317   5.194   2.302   6.536 -0.6796  0.0970 -0.2181
  156SAPE   C1217318   5.072   2.209   6.387 -0.0579 -0.1887 -0.9364
  156SAPE  H12A17319   5.100   2.140   6.305  0.0659 -1.1860 -0.0845
  156SAPE  H12B17320   5.063   2.306   6.334 -1.4376 -0.1208 -0.6122
  156SAPE   C1117321   4.957   2.182   6.485  0.1664 -0.3685  0.6221
  156SAPE  H11A17322   4.863   2.187   6.426  0.6262 -0.3734 -0.1222
  156SAPE  H11B17323   4.949   2.264   6.560  0.8101 -0.2188  0.5275
  156SAPE     P17324   4.923   1.920   6.471 -0.0714  0.1998 -0.0566
  156SAPE   O1317325   4.856   1.951   6.341  0.2210  0.2406 -0.0810
  156SAPE   O1417326   5.052   1.835   6.472 -0.3801  0.2308  0.0191
  156SAPE   O1217327   4.955   2.052   6.553 -0.1715 -0.1494  0.2130
  156SAPE   O1117328   4.819   1.864   6.572  0.1125 -0.0984 -0.4066
  156SAPE    C117329   4.735   1.946   6.662 -0.0124  0.2927  0.4917
  156SAPE    HA17330   4.762   1.913   6.765 -1.2585  0.8284  1.0197
  156SAPE    HB17331   4.750   2.054   6.645  1.8589 -0.1307 -0.7380
  156SAPE    C217332   4.579   1.906   6.647  0.3528  0.1685  1.3762
  156SAPE    HS17333   4.561   1.887   6.539  0.6274 -0.3599  1.4168
  156SAPE   O2117334   4.486   2.004   6.700  0.4065  0.1946 -0.7637
  156SAPE   C2117335   4.355   1.992   6.667 -0.7624 -0.1163 -0.3862
  156SAPE   O2217336   4.312   1.900   6.594 -0.2824  0.1675  0.0730
  156SAPE   C2217337   4.277   2.119   6.726  0.2760  0.0404 -0.2910
  156SAPE   H2R17338   4.349   2.203   6.740 -0.5647  0.6586  0.4269
  156SAPE   H2S17339   4.206   2.160   6.652  1.1649  1.6195 -0.3206
  156SAPE    C317340   4.564   1.763   6.704 -1.0633  0.0580 -0.5758
  156SAPE    HX17341   4.646   1.695   6.672 -2.3690 -2.3197  0.8447
  156SAPE    HY17342   4.465   1.729   6.668 -1.7225  1.9395 -0.6496
  156SAPE   O3117343   4.561   1.756   6.848  0.2936  0.7096  0.0403
  156SAPE   C3117344   4.465   1.684   6.905 -0.4928  0.2358  0.7399
  156SAPE   O3217345   4.377   1.612   6.854 -0.5546  0.0863 -0.7257
  156SAPE   C3217346   4.483   1.682   7.058 -0.9798 -0.1463 -0.2781
  156SAPE   H2X17347   4.380   1.672   7.098 -1.2224 -2.1032 -1.2820
  156SAPE   H2Y17348   4.533   1.776   7.090  1.3199 -0.0795 -3.5670
  156SAPE   C2317349   4.189   2.091   6.851  0.3744 -0.0202 -0.1077
  156SAPE   H3R17350   4.242   2.072   6.947 -0.6201 -0.9388  0.2703
  156SAPE   H3S17351   4.124   2.004   6.828  0.1999 -0.8428  3.0448
  156SAPE   C2417352   4.096   2.214   6.891  0.1602  0.1737  0.4441
  156SAPE   H4R17353   4.036   2.177   6.976 -0.3266 -0.3973 -0.1411
  156SAPE   H4S17354   4.023   2.233   6.809  1.4872  2.3300 -0.3295
  156SAPE   C2517355   4.167   2.342   6.903  1.0457  0.1299 -0.0900
  156SAPE   H5R17356   4.184   2.397   6.809 -0.0824 -0.5441 -0.7074
  156SAPE   C2617357   4.205   2.408   7.013  0.7045  0.1127  0.1389
  156SAPE   H6R17358   4.239   2.513   7.007 -0.8966  0.6796  0.3208
  156SAPE   C2717359   4.199   2.347   7.150  0.3966  0.0445 -0.1548
  156SAPE   H7R17360   4.098   2.301   7.157 -0.2424  1.5922  1.1807
  156SAPE   H7S17361   4.194   2.424   7.230  0.1509  1.8048 -1.7913
  156SAPE   C2817362   4.297   2.237   7.185 -0.2243  0.1755 -0.0208
  156SAPE   H8R17363   4.311   2.164   7.104 -1.6807  0.1618 -0.2748
  156SAPE   C2917364   4.360   2.220   7.305  0.0307  0.3534 -0.2722
  156SAPE   H9R17365   4.426   2.133   7.315  2.5171  2.2217  0.7269
  156SAPE  C21017366   4.349   2.307   7.426  0.2959  0.2316 -0.2404
  156SAPE  H10R17367   4.335   2.240   7.514 -1.7863  2.0519  0.9003
  156SAPE  H10S17368   4.258   2.370   7.435 -0.1227 -0.4212  0.1646
  156SAPE  C21117369   4.474   2.390   7.444 -0.0375 -0.8337 -0.2478
  156SAPE  H11R17370   4.459   2.488   7.398 -1.7597 -0.8363  0.2401
  156SAPE  C21217371   4.590   2.359   7.496 -0.1373 -0.4017 -0.4773
  156SAPE  H12R17372   4.669   2.435   7.495 -0.9247  0.4688  0.4942
  156SAPE  C21317373   4.622   2.231   7.572  0.7950 -0.6917 -0.0487
  156SAPE  H13R17374   4.556   2.144   7.549 -0.6840 -0.2158  2.0559
  156SAPE  H13S17375   4.601   2.256   7.679 -0.8107  0.2754 -0.5533
  156SAPE  C21417376   4.756   2.174   7.563 -0.0190 -0.5898 -0.5406
  156SAPE  H14R17377   4.824   2.214   7.640  0.6315 -3.1956  0.3325
  156SAPE  C21517378   4.797   2.083   7.486 -0.2474 -0.1576 -0.2508
  156SAPE  H15R17379   4.901   2.050   7.489 -0.5350 -1.0876 -0.2670
  156SAPE  C21617380   4.715   2.014   7.380  0.2011  0.0341  0.4404
  156SAPE  H16R17381   4.606   2.004   7.401  0.5791 -0.1545  2.5213
  156SAPE  H16S17382   4.746   1.908   7.381  0.9538  0.2329  2.2838
  156SAPE  C21717383   4.736   2.078   7.242 -0.2230  1.4572  0.7188
  156SAPE  H17R17384   4.845   2.082   7.221 -0.0278 -2.6230  0.0466
  156SAPE  H17S17385   4.713   2.186   7.249  0.8276  1.7220  0.3709
  156SAPE  C21817386   4.668   2.013   7.125  0.4904 -0.0025  0.3062
  156SAPE  H18R17387   4.560   1.996   7.145 -0.4411  2.6863 -1.8508
  156SAPE  H18S17388   4.722   1.918   7.104 -0.1177  0.2343 -2.8634
  156SAPE  C21917389   4.679   2.095   6.997 -0.2732 -0.0570  0.1315
  156SAPE  H19R17390   4.672   2.026   6.910  1.5258 -1.5655  1.1212
  156SAPE  H19S17391   4.781   2.135   6.984 -0.9638  1.3978 -1.1279
  156SAPE  C22017392   4.576   2.201   6.966  0.4085  0.2152  0.3385
  156SAPE  H20R17393   4.478   2.155   6.939  0.2807  0.4473  0.3952
  156SAPE  H20S17394   4.606   2.273   6.888 -0.3090 -0.5468 -0.6750
  156SAPE  H20T17395   4.551   2.264   7.054  0.4880  0.5944  0.0909
  156SAPE   C3317396   4.566   1.561   7.108 -0.0065  0.7485  0.3560
  156SAPE   H3X17397   4.674   1.580   7.088 -0.0826  1.3056  0.4520
  156SAPE   H3Y17398   4.541   1.467   7.055  1.2750  1.9272 -2.6397
  156SAPE   C3417399   4.542   1.537   7.259  0.1557 -0.2131 -0.1137
  156SAPE   H4X17400   4.611   1.451   7.279  1.5873  0.5020 -1.7039
  156SAPE   H4Y17401   4.440   1.498   7.279  0.3254 -0.7539 -0.2825
  156SAPE   C3517402   4.593   1.650   7.347 -0.0620  0.0085  0.2946
  156SAPE   H5X17403   4.541   1.748   7.340 -0.8179 -0.2720  1.5919
  156SAPE   H5Y17404   4.700   1.677   7.333  0.0897  0.7030  2.4134
  156SAPE   C3617405   4.583   1.619   7.492 -0.1192 -0.1972  0.1300
  156SAPE   H6X17406   4.650   1.531   7.504  0.6872  0.5549  1.3697
  156SAPE   H6Y17407   4.477   1.597   7.518 -0.4747  1.9693  0.6361
  156SAPE   C3717408   4.635   1.738   7.576 -0.3256 -0.7316 -0.3183
  156SAPE   H7X17409   4.571   1.828   7.567  0.8236  0.2072  0.4987
  156SAPE   H7Y17410   4.741   1.767   7.557  0.0149  0.9338  3.3372
  156SAPE   C3817411   4.648   1.717   7.730 -0.0017 -0.5408  0.6249
  156SAPE   H8X17412   4.725   1.639   7.749  0.4546 -0.8232 -1.9817
  156SAPE   H8Y17413   4.556   1.668   7.770  0.8060 -1.4821  1.3897
  156SAPE   C3917414   4.672   1.850   7.810  0.3081  0.1613 -0.5277
  156SAPE   H9X17415   4.634   1.928   7.741 -2.3726 -0.6015 -0.0533
  156SAPE   H9Y17416   4.781   1.868   7.818  0.2200 -0.0640  2.2960
  156SAPE  C31017417   4.599   1.848   7.941 -0.3983 -0.0764 -0.3475
  156SAPE  H10X17418   4.622   1.747   7.983 -1.9252 -0.5661 -0.6459
  156SAPE  H10Y17419   4.489   1.863   7.944 -0.3332  0.6530  3.1402
  156SAPE  C31117420   4.656   1.966   8.029  0.3262 -0.3988  0.0150
  156SAPE  H11X17421   4.760   1.940   8.057  0.1513 -0.6302  0.4572
  156SAPE  H11Y17422   4.603   1.968   8.127  0.5959 -0.1332  0.1616
  156SAPE  C31217423   4.648   2.111   7.984 -0.2540  0.6118  0.3931
  156SAPE  H12X17424   4.540   2.134   7.984 -0.7885 -1.3276  3.6182
  156SAPE  H12Y17425   4.690   2.119   7.881  0.1791 -3.2343  0.1336
  156SAPE  C31317426   4.720   2.203   8.086 -0.7770 -0.0328  0.1199
  156SAPE  H13X17427   4.826   2.174   8.098 -0.4322  1.9602  3.3024
  156SAPE  H13Y17428   4.683   2.173   8.186  1.4007 -1.0958  0.6632
  156SAPE  C31417429   4.713   2.352   8.060 -0.1120 -0.1654  0.2004
  156SAPE  H14X17430   4.605   2.375   8.072 -0.4537 -0.1131 -2.3971
  156SAPE  H14Y17431   4.736   2.382   7.956 -1.2600 -1.9692 -0.6110
  156SAPE  C31517432   4.785   2.433   8.170  0.4458 -0.0753  1.5433
  156SAPE  H15X17433   4.734   2.396   8.262 -1.8522  0.2161  0.4564
  156SAPE  H15Y17434   4.765   2.541   8.152  1.4200 -0.0865  0.2628
  156SAPE  C31617435   4.941   2.415   8.166  0.7558  0.1053 -0.2281
  156SAPE  H16X17436   4.983   2.449   8.069  0.0053 -2.1380 -1.4020
  156SAPE  H16Y17437   4.968   2.308   8.167 -3.2810 -1.2591  4.5035
  156SAPE  C31717438   5.018   2.478   8.275  0.4060 -0.1116  0.0102
  156SAPE  H17X17439   5.011   2.407   8.360 -1.2074  0.0346  0.0284
  156SAPE  H17Y17440   4.958   2.561   8.319 -0.2949 -1.0300  0.8349
  156SAPE  C31817441   5.159   2.527   8.234 -0.1493  0.4442 -0.1996
  156SAPE  H18X17442   5.211   2.444   8.181 -0.8642 -0.9962  1.2396
  156SAPE  H18Y17443   5.219   2.563   8.320 -1.3648 -2.1206  1.8968
  156SAPE  H18Z17444   5.154   2.610   8.161  0.9901  1.8073  1.2107
  157SAPE     N17445   3.098   3.738   6.227 -0.1121 -0.3451  0.1427
  157SAPE   HN117446   3.094   3.838   6.198  2.1736  0.2351  1.5911
  157SAPE   HN217447   3.118   3.731   6.328  1.4691  1.3402 -0.0088
  157SAPE   HN317448   3.174   3.685   6.180 -0.2900  0.9519 -1.7580
  157SAPE   C1217449   2.973   3.663   6.189 -0.1540 -0.2147 -0.3562
  157SAPE  H12A17450   2.955   3.677   6.080  0.7578 -0.4270 -0.5411
  157SAPE  H12B17451   2.888   3.701   6.250  0.5381  0.9214 -0.0770
  157SAPE   C1117452   2.994   3.513   6.206  0.3436 -0.2008 -0.3800
  157SAPE  H11A17453   2.921   3.459   6.142 -0.7031  0.7728 -0.0349
  157SAPE  H11B17454   2.985   3.487   6.314 -1.0516  0.7958 -0.2338
  157SAPE     P17455   3.159   3.318   6.184  0.2064  0.3215 -0.1300
  157SAPE   O1317456   3.069   3.237   6.105  0.1834  0.4432 -0.3203
  157SAPE   O1417457   3.303   3.307   6.161 -0.2911 -0.1835 -0.2702
  157SAPE   O1217458   3.120   3.466   6.162  0.8256  0.3122 -0.7627
  157SAPE   O1117459   3.142   3.302   6.342  0.6526  0.1612 -0.1194
  157SAPE    C117460   3.238   3.374   6.427 -0.4046  0.1752 -1.0659
  157SAPE    HA17461   3.344   3.343   6.419 -0.4802 -0.1843 -0.6982
  157SAPE    HB17462   3.226   3.484   6.414  0.2875  0.6751  1.9027
  157SAPE    C217463   3.209   3.364   6.580 -0.4105 -0.3583  0.5009
  157SAPE    HS17464   3.248   3.262   6.597  0.8307 -0.6981 -3.3180
  157SAPE   O2117465   3.067   3.381   6.609 -0.1421  0.5881 -0.1743
  157SAPE   C2117466   3.004   3.260   6.600 -0.2616 -0.1070  0.7210
  157SAPE   O2217467   3.065   3.154   6.585  0.5368 -0.1944 -0.6874
  157SAPE   C2217468   2.856   3.275   6.602  0.3978  0.0889 -0.1898
  157SAPE   H2R17469   2.825   3.366   6.659 -0.5305 -0.4621  0.2111
  157SAPE   H2S17470   2.825   3.302   6.499 -2.4234 -1.7444  0.0791
  157SAPE    C317471   3.294   3.463   6.665 -0.2469 -0.5353  0.0971
  157SAPE    HX17472   3.252   3.564   6.644 -1.9534 -1.2389 -0.0084
  157SAPE    HY17473   3.401   3.461   6.635  0.1942 -1.9533  1.6209
  157SAPE   O3117474   3.282   3.429   6.804 -0.2512 -0.0723 -0.0605
  157SAPE   C3117475   3.361   3.499   6.889  0.4436 -0.1982  0.0576
  157SAPE   O3217476   3.451   3.572   6.850  0.2223  0.4913  0.2394
  157SAPE   C3217477   3.308   3.480   7.028 -0.9620  0.7499 -0.9022
  157SAPE   H2X17478   3.215   3.419   7.024 -1.3569  1.0863  1.6385
  157SAPE   H2Y17479   3.282   3.577   7.075 -1.8341  0.0381  0.1511
  157SAPE   C2317480   2.780   3.149   6.644  0.7616  0.5574  0.7691
  157SAPE   H3R17481   2.816   3.068   6.578 -0.1971  1.8971 -1.5469
  157SAPE   H3S17482   2.672   3.175   6.630  0.2532  1.2089  4.7684
  157SAPE   C2417483   2.795   3.119   6.788  0.2493 -0.3173 -0.0134
  157SAPE   H4R17484   2.902   3.113   6.820 -0.4280 -2.7591  2.1619
  157SAPE   H4S17485   2.750   3.019   6.801  3.1882 -1.5266  1.8378
  157SAPE   C2517486   2.715   3.219   6.870  0.4936 -0.0855 -0.5423
  157SAPE   H5R17487   2.606   3.206   6.879  0.5824  0.1067  1.0928
  157SAPE   C2617488   2.769   3.317   6.950  0.4188 -0.0121  0.1535
  157SAPE   H6R17489   2.703   3.389   7.002  0.8193  0.4886 -0.0173
  157SAPE   C2717490   2.910   3.343   6.968 -0.2024  0.0286 -0.5709
  157SAPE   H7R17491   2.977   3.303   6.889  0.0696 -0.8261  0.0731
  157SAPE   H7S17492   2.926   3.271   7.052 -1.4357 -0.6697 -0.9187
  157SAPE   C2817493   2.945   3.485   6.997  0.3086  0.0946 -0.4326
  157SAPE   H8R17494   2.953   3.551   6.909 -2.5022  1.4685  0.2266
  157SAPE   C2917495   2.969   3.542   7.121  0.1444  0.0104  0.5831
  157SAPE   H9R17496   3.004   3.645   7.130  0.8130 -0.1868  0.3199
  157SAPE  C21017497   2.958   3.467   7.247  0.2629  0.2262 -0.1764
  157SAPE  H10R17498   3.005   3.368   7.231  0.2544  0.2100 -0.0980
  157SAPE  H10S17499   2.853   3.444   7.276  0.1481 -0.4471 -1.1001
  157SAPE  C21117500   3.028   3.541   7.362 -0.3605  0.3064  0.0246
  157SAPE  H11R17501   3.126   3.589   7.347 -0.3397  0.8536  1.6404
  157SAPE  C21217502   2.973   3.542   7.484 -0.2042  0.3092 -0.8577
  157SAPE  H12R17503   3.027   3.593   7.565  2.1823 -2.0842 -0.8014
  157SAPE  C21317504   2.842   3.483   7.526  0.1600  0.5387 -0.2375
  157SAPE  H13R17505   2.766   3.508   7.449  0.4075  0.6754 -0.4377
  157SAPE  H13S17506   2.804   3.543   7.612 -1.1391 -0.2321 -0.2364
  157SAPE  C21417507   2.854   3.339   7.561  0.6061  0.2204  0.3798
  157SAPE  H14R17508   2.919   3.288   7.488  1.0138  0.6916  0.4100
  157SAPE  C21517509   2.799   3.271   7.664  0.2381 -0.6001 -0.3701
  157SAPE  H15R17510   2.833   3.169   7.687  0.9702  0.2697  2.9143
  157SAPE  C21617511   2.705   3.324   7.769 -0.4242 -0.3115 -0.0984
  157SAPE  H16R17512   2.599   3.318   7.736 -0.5169 -1.1041  0.3197
  157SAPE  H16S17513   2.730   3.431   7.785 -0.4377 -0.2621 -0.3932
  157SAPE  C21717514   2.713   3.258   7.917 -0.0101 -0.0463 -0.1588
  157SAPE  H17R17515   2.819   3.232   7.938 -0.2054 -0.0197  0.9047
  157SAPE  H17S17516   2.660   3.160   7.911  2.0777 -1.1756 -1.0026
  157SAPE  C21817517   2.654   3.349   8.024  0.5748  0.3019  0.1024
  157SAPE  H18R17518   2.703   3.448   8.008 -2.6730  2.3146  1.4595
  157SAPE  H18S17519   2.680   3.297   8.119  1.3675  0.4337 -0.0414
  157SAPE  C21917520   2.504   3.373   8.009 -0.0135 -0.7294  0.0439
  157SAPE  H19R17521   2.455   3.280   7.974 -0.3554 -0.5104 -0.0637
  157SAPE  H19S17522   2.492   3.449   7.929  1.3474  0.4809  0.9399
  157SAPE  C22017523   2.423   3.409   8.138 -0.2977 -1.0051 -0.7016
  157SAPE  H20R17524   2.315   3.425   8.118 -1.4839 -2.5381  3.3387
  157SAPE  H20S17525   2.474   3.491   8.193  0.9281 -1.8123 -0.5989
  157SAPE  H20T17526   2.417   3.323   8.209 -0.7331  0.4350  1.1045
  157SAPE   C3317527   3.419   3.429   7.122  0.2478  0.3329 -0.0237
  157SAPE   H3X17528   3.514   3.487   7.118 -0.1830  0.9921 -1.7491
  157SAPE   H3Y17529   3.453   3.329   7.088 -0.5430  0.3149 -0.7859
  157SAPE   C3417530   3.370   3.412   7.268 -0.1955  0.3215  0.7838
  157SAPE   H4X17531   3.285   3.340   7.272 -0.0347  0.1995  3.0743
  157SAPE   H4Y17532   3.326   3.508   7.303  1.2975  0.0957  3.5585
  157SAPE   C3517533   3.467   3.361   7.375 -1.1682 -0.0304  0.4186
  157SAPE   H5X17534   3.552   3.425   7.409 -2.4301  1.0123  1.7105
  157SAPE   H5Y17535   3.509   3.261   7.353 -0.7929  0.6099 -2.0347
  157SAPE   C3617536   3.397   3.346   7.514 -0.3194  0.5737 -0.5040
  157SAPE   H6X17537   3.295   3.305   7.496 -1.2997  2.1768  1.0247
  157SAPE   H6Y17538   3.380   3.450   7.551  1.7550  0.9279 -0.4160
  157SAPE   C3717539   3.468   3.274   7.633 -0.2485 -0.4476  0.1633
  157SAPE   H7X17540   3.546   3.346   7.664 -0.1915 -0.1483 -0.6563
  157SAPE   H7Y17541   3.512   3.186   7.582 -1.4152 -0.4393 -0.9217
  157SAPE   C3817542   3.385   3.250   7.768 -0.4270 -0.2750  0.2132
  157SAPE   H8X17543   3.454   3.189   7.831  1.4280 -0.9487 -2.2726
  157SAPE   H8Y17544   3.297   3.184   7.751 -0.3237 -0.0854 -1.1615
  157SAPE   C3917545   3.335   3.374   7.843 -0.3474 -0.4740  0.4070
  157SAPE   H9X17546   3.410   3.454   7.821 -1.5102  0.0728 -1.7819
  157SAPE   H9Y17547   3.332   3.342   7.949  0.7916 -2.9144 -0.2228
  157SAPE  C31017548   3.211   3.427   7.784  0.4950  0.1048  0.5747
  157SAPE  H10X17549   3.136   3.346   7.798  0.7914 -0.1478  0.7137
  157SAPE  H10Y17550   3.231   3.427   7.674  0.2211  1.6808  0.5025
  157SAPE  C31117551   3.159   3.563   7.830  0.5917 -0.0924 -0.0577
  157SAPE  H11X17552   3.071   3.591   7.768  1.3245 -0.2012 -1.1705
  157SAPE  H11Y17553   3.233   3.641   7.800 -0.6918  1.2622  0.1818
  157SAPE  C31217554   3.118   3.579   7.972 -1.0589 -0.7116  0.6353
  157SAPE  H12X17555   3.208   3.551   8.031 -0.4963  0.4911  0.3661
  157SAPE  H12Y17556   3.034   3.506   7.972  0.2405 -2.3520 -1.7069
  157SAPE  C31317557   3.098   3.725   8.016 -0.4243 -0.3594 -0.1497
  157SAPE  H13X17558   3.017   3.774   7.958 -1.4846 -3.0674 -1.1200
  157SAPE  H13Y17559   3.185   3.789   7.989 -0.6711  0.5129  1.0607
  157SAPE  C31417560   3.064   3.732   8.166 -0.3116  0.2972 -0.2403
  157SAPE  H14X17561   3.142   3.676   8.223 -0.2718  1.1976  0.6116
  157SAPE  H14Y17562   2.965   3.684   8.179  0.2635 -1.1258 -0.8609
  157SAPE  C31517563   3.054   3.871   8.233  0.3428  0.4915 -0.2606
  157SAPE  H15X17564   3.000   3.925   8.153 -2.4528 -2.1085 -0.3022
  157SAPE  H15Y17565   3.156   3.916   8.238  1.1582 -1.3776  1.2259
  157SAPE  C31617566   2.976   3.877   8.367  0.5446  0.7747  0.7185
  157SAPE  H16X17567   3.008   3.809   8.448 -3.0163  0.1339  1.7746
  157SAPE  H16Y17568   2.868   3.867   8.342 -0.1705  1.3716  3.2296
  157SAPE  C31717569   2.997   4.019   8.430  0.5582 -0.1162  0.3989
  157SAPE  H17X17570   2.920   4.015   8.510  0.3552  0.5561  0.2423
  157SAPE  H17Y17571   2.972   4.098   8.355  2.2020  1.1570  1.1322
  157SAPE  C31817572   3.132   4.056   8.489  0.2724  0.0066 -0.3421
  157SAPE  H18X17573   3.128   4.161   8.527  1.5173 -0.1684  0.2927
  157SAPE  H18Y17574   3.212   4.057   8.412  1.2117 -1.0652  0.5908
  157SAPE  H18Z17575   3.165   3.992   8.573  2.5558 -0.0077 -1.1928
  158SAPE     N17576   3.424   0.473   6.009 -0.6055 -0.2524 -0.3160
  158SAPE   HN117577   3.361   0.546   6.049  0.4736  0.5966 -0.0794
  158SAPE   HN217578   3.518   0.516   5.996  0.1664  0.1815  4.5609
  158SAPE   HN317579   3.390   0.428   5.922 -1.0964 -3.3268  1.3523
  158SAPE   C1217580   3.450   0.369   6.122 -0.0113 -0.2875  0.6050
  158SAPE  H12A17581   3.467   0.431   6.213  2.2240  2.0289 -1.2130
  158SAPE  H12B17582   3.542   0.313   6.095  0.6923  1.5741 -1.1898
  158SAPE   C1117583   3.331   0.272   6.130  0.3938  0.4034  0.8505
  158SAPE  H11A17584   3.326   0.239   6.236 -1.8738 -0.7201  0.4655
  158SAPE  H11B17585   3.364   0.193   6.060 -1.0060  2.7750 -2.7452
  158SAPE     P17586   3.075   0.254   6.122 -0.2601  0.0765 -0.0257
  158SAPE   O1317587   2.978   0.278   6.012 -0.3057  0.4841  0.0071
  158SAPE   O1417588   3.099   0.110   6.158  0.0622 -0.5498 -0.2478
  158SAPE   O1217589   3.208   0.333   6.093  0.3173  0.2599 -0.0207
  158SAPE   O1117590   3.008   0.331   6.245 -0.5262 -0.1963 -0.1668
  158SAPE    C117591   3.054   0.458   6.288 -0.0830  0.3324 -1.0936
  158SAPE    HA17592   3.104   0.515   6.207 -2.0241  1.8583 -1.2813
  158SAPE    HB17593   2.965   0.517   6.318  0.7509  1.3730 -0.6093
  158SAPE    C217594   3.138   0.451   6.416 -0.1588 -0.3919 -0.5756
  158SAPE    HS17595   3.231   0.396   6.388 -0.4427 -1.1183 -0.1201
  158SAPE   O2117596   3.076   0.376   6.520  0.5607 -0.8063 -0.3627
  158SAPE   C2117597   3.157   0.311   6.603  0.5327 -0.1675 -0.4368
  158SAPE   O2217598   3.276   0.300   6.596  0.8153  0.4456 -0.3807
  158SAPE   C2217599   3.077   0.243   6.719 -0.1858 -0.9074  0.1341
  158SAPE   H2R17600   3.022   0.330   6.760 -1.2480 -0.0295 -2.8861
  158SAPE   H2S17601   2.997   0.177   6.679 -2.7402  0.8437  2.0069
  158SAPE    C317602   3.174   0.599   6.459  0.1644  0.7712 -0.8979
  158SAPE    HX17603   3.083   0.657   6.486  0.1973 -0.1318  1.3929
  158SAPE    HY17604   3.224   0.647   6.372  1.3953 -1.1023 -1.2602
  158SAPE   O3117605   3.253   0.597   6.584  0.2144  0.5031  0.0393
  158SAPE   C3117606   3.299   0.707   6.627  0.5038  1.1072 -0.6130
  158SAPE   O3217607   3.278   0.821   6.579  0.3711 -0.0489  0.2113
  158SAPE   C3217608   3.401   0.674   6.744  0.2187 -0.2655 -0.5776
  158SAPE   H2X17609   3.470   0.761   6.748  0.1237 -0.0817 -2.1319
  158SAPE   H2Y17610   3.469   0.589   6.726 -0.2467 -0.6657 -0.4709
  158SAPE   C2317611   3.164   0.165   6.823 -0.0653  0.7272  0.2556
  158SAPE   H3R17612   3.245   0.230   6.863  0.8775  0.7761 -1.5959
  158SAPE   H3S17613   3.212   0.080   6.770 -0.3451 -0.7204  2.2090
  158SAPE   C2417614   3.074   0.094   6.934  0.5565 -0.2080  0.4429
  158SAPE   H4R17615   3.137   0.033   7.002 -0.3832 -0.7565  0.8325
  158SAPE   H4S17616   3.016   0.012   6.887  1.6063 -0.4368 -0.5095
  158SAPE   C2517617   2.976   0.185   7.007  0.2163  0.7780 -0.0797
  158SAPE   H5R17618   2.933   0.272   6.954 -0.1651 -0.1331 -1.3065
  158SAPE   C2617619   2.934   0.172   7.137 -0.5660  0.4095  0.4342
  158SAPE   H6R17620   2.861   0.243   7.180 -0.9284  0.8784 -0.9166
  158SAPE   C2717621   2.975   0.065   7.231  0.5080  0.0744 -0.0503
  158SAPE   H7R17622   3.003   0.103   7.331  0.7349  1.3477 -0.5804
  158SAPE   H7S17623   3.063   0.006   7.198  0.4696  0.2340 -0.4475
  158SAPE   C2817624   2.869  -0.046   7.237  0.1870 -0.4864  0.1029
  158SAPE   H8R17625   2.859  -0.095   7.139 -0.1800 -1.2507  0.5083
  158SAPE   C2917626   2.777  -0.071   7.341 -0.8174 -0.3828 -0.3968
  158SAPE   H9R17627   2.720  -0.164   7.331  1.4798 -1.6980 -2.2786
  158SAPE  C21017628   2.777   0.003   7.470  0.4020  0.4595 -0.2103
  158SAPE  H10R17629   2.871   0.045   7.511 -0.1764  0.7331  0.8843
  158SAPE  H10S17630   2.748  -0.065   7.553 -1.1325  0.2644 -0.8634
  158SAPE  C21117631   2.683   0.116   7.461 -0.2921  0.1263 -0.6672
  158SAPE  H11R17632   2.671   0.169   7.365 -1.5491  1.6470  0.2739
  158SAPE  C21217633   2.584   0.147   7.554 -0.1356 -0.4807 -0.1509
  158SAPE  H12R17634   2.527   0.238   7.533  0.4078  0.0054  0.4326
  158SAPE  C21317635   2.549   0.075   7.686  0.6424  0.0608 -0.3297
  158SAPE  H13R17636   2.461   0.128   7.728  0.3558  0.0764 -0.9421
  158SAPE  H13S17637   2.631   0.088   7.760 -0.0709 -0.8147  0.6517
  158SAPE  C21417638   2.499  -0.069   7.670 -0.3072  0.2752  0.0097
  158SAPE  H14R17639   2.512  -0.119   7.573  1.8154 -0.3063  0.5464
  158SAPE  C21517640   2.433  -0.139   7.762 -0.2558 -0.3325 -0.4325
  158SAPE  H15R17641   2.407  -0.245   7.751  1.9312 -1.2020  1.7964
  158SAPE  C21617642   2.402  -0.087   7.899 -0.1332 -0.2936 -0.3188
  158SAPE  H16R17643   2.486  -0.019   7.925 -0.7987  0.9926 -1.4278
  158SAPE  H16S17644   2.403  -0.171   7.972  0.3050  1.5754  1.9466
  158SAPE  C21717645   2.262  -0.030   7.909  0.1263  0.5127 -0.5190
  158SAPE  H17R17646   2.197  -0.119   7.900  1.4367 -0.5793  0.4505
  158SAPE  H17S17647   2.230   0.045   7.834  0.0740  1.5188  0.4804
  158SAPE  C21817648   2.252   0.018   8.046  0.4194 -0.1888 -0.4943
  158SAPE  H18R17649   2.326   0.098   8.067  0.3624  0.6816 -3.2378
  158SAPE  H18S17650   2.272  -0.066   8.116 -0.9641  1.1105  1.5640
  158SAPE  C21917651   2.110   0.075   8.071 -0.4895 -0.1912 -0.4147
  158SAPE  H19R17652   2.034  -0.004   8.057  1.5896 -2.0967 -1.7615
  158SAPE  H19S17653   2.079   0.147   7.992 -1.2634  0.0758  0.1172
  158SAPE  C22017654   2.092   0.139   8.208  0.2799 -0.0113  0.0613
  158SAPE  H20R17655   2.101   0.063   8.289 -0.0145  1.0670  1.1295
  158SAPE  H20S17656   1.988   0.172   8.229  0.5356 -0.1744  1.7831
  158SAPE  H20T17657   2.164   0.219   8.234 -1.2350  1.7466 -0.9472
  158SAPE   C3317658   3.340   0.658   6.883 -0.1216  0.0094 -0.3903
  158SAPE   H3X17659   3.277   0.745   6.913 -1.7266 -1.2659  0.0359
  158SAPE   H3Y17660   3.425   0.652   6.955  0.1316  1.9757 -0.4723
  158SAPE   C3417661   3.247   0.530   6.904  0.2848  0.5255 -0.7983
  158SAPE   H4X17662   3.310   0.440   6.885  1.2542  0.3347  2.7145
  158SAPE   H4Y17663   3.154   0.529   6.843 -2.0286  0.7317  2.4495
  158SAPE   C3517664   3.191   0.523   7.046 -0.4658 -0.1741  0.0037
  158SAPE   H5X17665   3.124   0.434   7.038 -0.1123 -0.5915  1.3828
  158SAPE   H5Y17666   3.131   0.613   7.073  0.2877 -0.1284  1.6588
  158SAPE   C3617667   3.295   0.496   7.154  0.2007 -0.2521 -0.6087
  158SAPE   H6X17668   3.366   0.580   7.171 -0.5942 -0.0848  2.4558
  158SAPE   H6Y17669   3.361   0.409   7.136  2.1537  0.6562  1.6839
  158SAPE   C3717670   3.230   0.479   7.291  0.1201 -0.1038  0.4207
  158SAPE   H7X17671   3.162   0.566   7.302  1.8673  1.2743  0.7214
  158SAPE   H7Y17672   3.171   0.385   7.283  1.7375 -1.1111 -0.1639
  158SAPE   C3817673   3.326   0.471   7.404 -0.1379  0.6204 -0.3221
  158SAPE   H8X17674   3.393   0.559   7.416 -1.5927  1.7724 -0.4191
  158SAPE   H8Y17675   3.389   0.379   7.405  1.5965  1.7491  0.4333
  158SAPE   C3917676   3.251   0.475   7.544 -0.5161 -0.7083 -0.1979
  158SAPE   H9X17677   3.177   0.393   7.540 -2.1590  0.6928  0.3587
  158SAPE   H9Y17678   3.208   0.575   7.570  1.0659 -0.1404  0.4098
  158SAPE  C31017679   3.356   0.436   7.658 -0.1198 -0.6189  0.2932
  158SAPE  H10X17680   3.432   0.515   7.672  0.2238 -0.4678 -2.0109
  158SAPE  H10Y17681   3.401   0.344   7.613  0.6040  0.6502 -1.7133
  158SAPE  C31117682   3.290   0.410   7.793 -0.8663 -0.1203 -0.6878
  158SAPE  H11X17683   3.368   0.389   7.870 -2.4524  0.8264  1.2731
  158SAPE  H11Y17684   3.230   0.316   7.792 -1.2392  0.1102 -0.2084
  158SAPE  C31217685   3.210   0.524   7.847  0.0016  0.3159 -0.4759
  158SAPE  H12X17686   3.132   0.553   7.772 -0.4191  0.8403  0.1509
  158SAPE  H12Y17687   3.276   0.610   7.870 -0.8028  0.7440  0.2882
  158SAPE  C31317688   3.146   0.489   7.982  1.3814 -0.0921  0.3351
  158SAPE  H13X17689   3.092   0.393   7.973 -3.0227  2.2703 -1.5841
  158SAPE  H13Y17690   3.078   0.569   8.019  0.5467 -1.0034  0.7892
  158SAPE  C31417691   3.247   0.489   8.107  0.7019  0.1268  0.2322
  158SAPE  H14X17692   3.329   0.424   8.073  0.4153  0.1880 -0.5855
  158SAPE  H14Y17693   3.193   0.442   8.192 -1.1136 -1.8120 -1.8588
  158SAPE  C31517694   3.305   0.627   8.141  0.8153  0.6031  0.5463
  158SAPE  H15X17695   3.222   0.696   8.169  0.6058  0.4304  0.3554
  158SAPE  H15Y17696   3.350   0.675   8.052  0.6292  0.4249  0.3542
  158SAPE  C31617697   3.410   0.636   8.254  0.3427 -0.2076  0.6349
  158SAPE  H16X17698   3.492   0.567   8.226  0.7278  0.5071 -0.0322
  158SAPE  H16Y17699   3.363   0.601   8.349  0.9572  0.3225  1.1417
  158SAPE  C31717700   3.457   0.780   8.291  0.4752  0.1608 -0.2714
  158SAPE  H17X17701   3.365   0.840   8.308  0.8840  0.9634 -0.8305
  158SAPE  H17Y17702   3.506   0.818   8.199  1.3342 -1.8784 -0.7214
  158SAPE  C31817703   3.551   0.786   8.404  0.4119 -0.2669  0.3096
  158SAPE  H18X17704   3.574   0.891   8.432  1.4270 -0.9344  2.1615
  158SAPE  H18Y17705   3.651   0.740   8.390  0.2564 -0.8385  1.0105
  158SAPE  H18Z17706   3.518   0.742   8.501  0.0655 -0.3474  0.1556
  159SAPE     N17707   4.344   3.640   6.204  0.2663  0.4564 -0.0939
  159SAPE   HN117708   4.249   3.606   6.178  1.3026 -1.8792 -1.1136
  159SAPE   HN217709   4.412   3.562   6.192 -0.3173 -0.4398  2.0180
  159SAPE   HN317710   4.345   3.637   6.308 -0.1551  0.2668 -0.0949
  159SAPE   C1217711   4.399   3.772   6.156 -0.1850  0.3507  0.5936
  159SAPE  H12A17712   4.457   3.746   6.065  0.7199  1.0640  0.9561
  159SAPE  H12B17713   4.472   3.805   6.233  0.7545  1.1405 -0.5977
  159SAPE   C1117714   4.283   3.865   6.129 -0.5369 -0.5476  0.2894
  159SAPE  H11A17715   4.208   3.814   6.066 -1.6017 -0.3321  1.3445
  159SAPE  H11B17716   4.322   3.954   6.075 -1.2452 -0.2721  0.2205
  159SAPE     P17717   4.224   4.044   6.305  0.2094  0.3651 -0.2489
  159SAPE   O1317718   4.235   4.154   6.203  0.0619  0.2372  0.2039
  159SAPE   O1417719   4.131   4.060   6.412  0.6886 -0.7865  0.7469
  159SAPE   O1217720   4.203   3.902   6.238  0.2959 -0.5114  0.2331
  159SAPE   O1117721   4.377   4.023   6.357  0.0677  0.4031 -0.8905
  159SAPE    C117722   4.406   3.950   6.474  0.2341  0.1707 -0.2301
  159SAPE    HA17723   4.311   3.920   6.524 -0.6828  2.5859 -0.4053
  159SAPE    HB17724   4.461   3.857   6.448  2.5355  1.4540 -0.2276
  159SAPE    C217725   4.490   4.035   6.584 -0.3039 -0.4734  0.0562
  159SAPE    HS17726   4.596   4.006   6.566 -0.0835 -0.3136  1.0408
  159SAPE   O2117727   4.444   3.990   6.711 -0.3682  0.0849  0.2002
  159SAPE   C2117728   4.487   3.869   6.746 -0.3557 -0.2494 -0.0156
  159SAPE   O2217729   4.566   3.801   6.683  0.3341 -0.4356  0.6185
  159SAPE   C2217730   4.408   3.831   6.870  0.9364  0.6617 -0.8954
  159SAPE   H2R17731   4.410   3.914   6.943 -1.7455 -2.1840  2.8571
  159SAPE   H2S17732   4.304   3.816   6.832  1.2733  0.4994 -1.7765
  159SAPE    C317733   4.476   4.191   6.566 -0.4283  1.1234  0.5225
  159SAPE    HX17734   4.373   4.227   6.588 -0.6411  1.5091 -1.0123
  159SAPE    HY17735   4.502   4.209   6.460  0.0929  0.2674  0.4990
  159SAPE   O3117736   4.572   4.268   6.655  0.5271  0.0573 -0.4144
  159SAPE   C3117737   4.532   4.292   6.770 -0.1557  0.6852 -0.6228
  159SAPE   O3217738   4.427   4.259   6.826 -0.3353 -0.1589  0.9180
  159SAPE   C3217739   4.655   4.351   6.840 -0.6073 -0.2042  0.4922
  159SAPE   H2X17740   4.682   4.446   6.788 -1.4368 -0.7946 -1.0911
  159SAPE   H2Y17741   4.742   4.282   6.840 -0.2553  0.2325  1.0669
  159SAPE   C2317742   4.455   3.701   6.935  1.1915 -0.1981  0.7064
  159SAPE   H3R17743   4.560   3.718   6.969  1.0260 -0.0669  1.1563
  159SAPE   H3S17744   4.448   3.612   6.869 -1.2856 -0.8962  1.7908
  159SAPE   C2417745   4.379   3.660   7.058 -0.6335 -0.1385 -0.4747
  159SAPE   H4R17746   4.271   3.647   7.033 -1.1660  2.2456  0.2577
  159SAPE   H4S17747   4.379   3.747   7.128 -0.6053  0.0999 -0.7680
  159SAPE   C2517748   4.442   3.536   7.123 -0.2233 -0.3121 -0.0578
  159SAPE   H5R17749   4.423   3.443   7.067 -1.4450  0.8414 -1.6831
  159SAPE   C2617750   4.518   3.533   7.230 -0.2608 -0.5371 -0.6682
  159SAPE   H6R17751   4.552   3.438   7.273  0.3261  0.6008  1.5722
  159SAPE   C2717752   4.568   3.649   7.320  0.5086  0.0027  0.4736
  159SAPE   H7R17753   4.582   3.744   7.263  2.6771 -0.4728  0.1346
  159SAPE   H7S17754   4.664   3.618   7.366  0.8725 -0.2559 -0.4367
  159SAPE   C2817755   4.479   3.677   7.438 -0.1723 -0.5747 -0.2042
  159SAPE   H8R17756   4.387   3.730   7.410 -0.9672 -1.1467  1.1954
  159SAPE   C2917757   4.497   3.642   7.567  0.1744 -0.5964 -0.0889
  159SAPE   H9R17758   4.419   3.671   7.638 -0.3147 -1.0632 -0.4256
  159SAPE  C21017759   4.618   3.577   7.630 -0.2497  0.2416 -0.4294
  159SAPE  H10R17760   4.710   3.609   7.577  0.2126  2.0186  1.3263
  159SAPE  H10S17761   4.614   3.467   7.617  1.1131  0.2992 -1.5608
  159SAPE  C21117762   4.635   3.600   7.773 -0.1627  0.6686  0.1845
  159SAPE  H11R17763   4.670   3.702   7.798  1.7876  0.4864 -1.5204
  159SAPE  C21217764   4.582   3.517   7.869 -0.3849 -0.2763  1.0461
  159SAPE  H12R17765   4.614   3.541   7.971  1.3205  3.5690 -0.2120
  159SAPE  C21317766   4.489   3.400   7.853 -0.1298 -0.2640  1.0467
  159SAPE  H13R17767   4.407   3.418   7.781  0.8907 -0.7837 -0.2890
  159SAPE  H13S17768   4.430   3.378   7.945  0.4115  0.1842  1.5104
  159SAPE  C21417769   4.563   3.267   7.825 -0.4543 -0.0245  0.2324
  159SAPE  H14R17770   4.672   3.283   7.821 -0.5916  0.7106 -2.3891
  159SAPE  C21517771   4.508   3.146   7.798  0.0790 -0.4420 -0.0308
  159SAPE  H15R17772   4.578   3.065   7.775  1.3578  0.8230 -0.7593
  159SAPE  C21617773   4.355   3.126   7.780 -0.4793  1.2497  0.4412
  159SAPE  H16R17774   4.295   3.218   7.768  0.4457  1.5902 -2.5970
  159SAPE  H16S17775   4.309   3.058   7.855 -3.7048  0.1595 -2.2831
  159SAPE  C21717776   4.320   3.055   7.651  0.6247  0.2786 -0.0474
  159SAPE  H17R17777   4.209   3.056   7.642  0.5608  3.0764  0.1907
  159SAPE  H17S17778   4.344   2.946   7.646 -2.2042 -0.4232 -0.3597
  159SAPE  C21817779   4.367   3.121   7.517  0.2632  0.3724  0.2892
  159SAPE  H18R17780   4.467   3.164   7.540  0.0624  1.7024 -1.1527
  159SAPE  H18S17781   4.300   3.207   7.496 -1.0085 -0.6555  0.0113
  159SAPE  C21917782   4.377   3.024   7.406  0.0176  0.3421  0.4746
  159SAPE  H19R17783   4.271   3.009   7.376  0.9089  0.6105 -3.3679
  159SAPE  H19S17784   4.423   2.928   7.436 -0.5757 -0.2315 -0.3863
  159SAPE  C22017785   4.437   3.087   7.279  0.3477 -0.6845 -0.1781
  159SAPE  H20R17786   4.370   3.165   7.238  0.5743 -0.3857  0.0185
  159SAPE  H20S17787   4.454   3.016   7.195 -1.4671  1.0440 -2.1137
  159SAPE  H20T17788   4.529   3.138   7.313  1.7818  0.2501 -4.7870
  159SAPE   C3317789   4.610   4.400   6.981  0.5303 -0.3759 -0.4719
  159SAPE   H3X17790   4.581   4.318   7.049  1.9413  0.4167  1.1678
  159SAPE   H3Y17791   4.529   4.476   6.974 -2.0917 -2.6295  2.4868
  159SAPE   C3417792   4.728   4.477   7.047 -0.0808  0.5146  0.0864
  159SAPE   H4X17793   4.766   4.556   6.978  0.8085  0.4434  0.4859
  159SAPE   H4Y17794   4.820   4.418   7.065 -0.2438  0.0802 -0.4625
  159SAPE   C3517795   4.692   4.531   7.181  0.1532 -0.8851 -0.3636
  159SAPE   H5X17796   4.607   4.475   7.223 -0.0919 -0.8852 -0.8557
  159SAPE   H5Y17797   4.643   4.631   7.174  0.9693 -0.3796  0.7713
  159SAPE   C3617798   4.807   4.550   7.285  1.0851 -0.2912 -0.2336
  159SAPE   H6X17799   4.896   4.600   7.241  0.9570 -0.9334 -1.2531
  159SAPE   H6Y17800   4.837   4.449   7.322 -2.1323 -0.4997  2.2536
  159SAPE   C3717801   4.778   4.633   7.410 -0.6963  0.4729  0.2033
  159SAPE   H7X17802   4.734   4.727   7.373 -0.5469  0.1567 -0.7982
  159SAPE   H7Y17803   4.871   4.652   7.469 -0.1493 -0.4074 -0.3512
  159SAPE   C3817804   4.676   4.559   7.498 -0.0301 -0.0958 -0.1436
  159SAPE   H8X17805   4.722   4.461   7.524 -2.1701 -0.6861  1.7528
  159SAPE   H8Y17806   4.584   4.531   7.444  1.4895  0.4262 -3.2113
  159SAPE   C3917807   4.646   4.625   7.636 -0.0326 -0.3661 -0.6598
  159SAPE   H9X17808   4.558   4.690   7.618 -0.4478 -0.1486  1.7497
  159SAPE   H9Y17809   4.718   4.702   7.670 -1.9844  0.7708  1.1751
  159SAPE  C31017810   4.603   4.524   7.743 -0.3239  0.1387  0.3791
  159SAPE  H10X17811   4.693   4.467   7.774  0.6615  2.3232  1.6869
  159SAPE  H10Y17812   4.535   4.448   7.697 -1.7678  0.7464  1.4130
  159SAPE  C31117813   4.532   4.568   7.866 -0.0706 -0.4644 -0.3672
  159SAPE  H11X17814   4.436   4.617   7.839 -0.0163  0.1368  0.4627
  159SAPE  H11Y17815   4.597   4.647   7.909  2.4913 -2.2832 -0.6672
  159SAPE  C31217816   4.492   4.456   7.963  0.1550 -0.0976 -0.0472
  159SAPE  H12X17817   4.585   4.412   8.005  0.3596  0.6200  0.2601
  159SAPE  H12Y17818   4.438   4.374   7.912  2.4432 -1.3139 -0.6743
  159SAPE  C31317819   4.402   4.509   8.073  0.4725  0.5251 -0.2568
  159SAPE  H13X17820   4.307   4.549   8.033 -0.3155  1.1009  2.0756
  159SAPE  H13Y17821   4.456   4.592   8.124 -2.9374  1.9917  1.2820
  159SAPE  C31417822   4.364   4.396   8.173 -0.3483 -0.2524  0.2183
  159SAPE  H14X17823   4.458   4.349   8.209  0.6372  2.7163  1.9224
  159SAPE  H14Y17824   4.300   4.316   8.130 -1.0467 -0.2682  1.2430
  159SAPE  C31517825   4.302   4.450   8.302  0.4500  0.3188 -0.7830
  159SAPE  H15X17826   4.205   4.494   8.271  0.1250  0.0024 -0.2260
  159SAPE  H15Y17827   4.364   4.534   8.340 -1.0480  0.0497  2.6411
  159SAPE  C31617828   4.284   4.343   8.411 -0.4820 -0.2308 -0.1123
  159SAPE  H16X17829   4.384   4.296   8.427 -0.3358 -0.0515 -0.5049
  159SAPE  H16Y17830   4.229   4.252   8.380  0.1644 -1.1426  1.2709
  159SAPE  C31717831   4.211   4.397   8.533  0.3035 -0.1519  0.1207
  159SAPE  H17X17832   4.109   4.421   8.497  0.7313  1.7409  0.0414
  159SAPE  H17Y17833   4.250   4.495   8.568 -1.0278 -0.2452  1.9722
  159SAPE  C31817834   4.213   4.293   8.649 -0.2224 -0.4026  0.4269
  159SAPE  H18X17835   4.147   4.320   8.735  3.2344  1.6155  2.7054
  159SAPE  H18Y17836   4.314   4.317   8.687  0.5980 -1.7896 -0.7992
  159SAPE  H18Z17837   4.215   4.194   8.599  0.5317 -0.9197  1.4551
  160SAPE     N17838   4.749   2.633   6.227  0.1295 -0.1224 -0.4905
  160SAPE   HN117839   4.839   2.663   6.185  0.8496 -2.8104 -1.0764
  160SAPE   HN217840   4.693   2.573   6.163 -0.4269 -0.7616  0.5712
  160SAPE   HN317841   4.688   2.716   6.239  1.7400  0.9152  0.9466
  160SAPE   C1217842   4.769   2.544   6.355 -0.1910  0.2009 -0.5216
  160SAPE  H12A17843   4.821   2.451   6.324 -2.2878 -0.4717 -2.3017
  160SAPE  H12B17844   4.668   2.505   6.381 -0.6231  0.9255 -1.0644
  160SAPE   C1117845   4.844   2.627   6.457  0.6470  0.4985  0.3570
  160SAPE  H11A17846   4.935   2.663   6.405  1.0794  0.7998  1.2927
  160SAPE  H11B17847   4.871   2.574   6.551 -0.7612  0.4927  0.7900
  160SAPE     P17848   4.637   2.748   6.573  0.3904  0.2727  0.2270
  160SAPE   O1317849   4.658   2.840   6.692  0.4960  0.4125 -0.0738
  160SAPE   O1417850   4.524   2.784   6.485  0.2971 -0.1850 -0.4181
  160SAPE   O1217851   4.766   2.746   6.481 -0.5707  1.0633 -0.2702
  160SAPE   O1117852   4.618   2.598   6.623 -0.6005 -0.2663 -0.3206
  160SAPE    C117853   4.541   2.582   6.741 -0.0295 -0.5973 -0.0003
  160SAPE    HA17854   4.457   2.654   6.744  0.1199 -0.4606  1.1127
  160SAPE    HB17855   4.493   2.483   6.730 -0.8206 -0.1075 -1.2243
  160SAPE    C217856   4.630   2.591   6.866  0.5414 -0.5054 -0.3183
  160SAPE    HS17857   4.667   2.695   6.882  0.1574 -0.4756  0.4120
  160SAPE   O2117858   4.731   2.489   6.858  0.0954 -0.3378  0.5756
  160SAPE   C2117859   4.852   2.517   6.904  0.4141 -0.8615  0.0568
  160SAPE   O2217860   4.896   2.620   6.954  0.3117  0.0369 -0.5061
  160SAPE   C2217861   4.935   2.395   6.875 -0.6574 -0.7329  0.1352
  160SAPE   H2R17862   4.871   2.304   6.874  1.0806 -2.0449  1.7710
  160SAPE   H2S17863   4.960   2.426   6.771 -1.5821  1.1746  0.4319
  160SAPE    C317864   4.548   2.564   7.004 -0.2937 -0.4167  0.3564
  160SAPE    HX17865   4.502   2.464   7.017 -1.9063  0.4746  2.1638
  160SAPE    HY17866   4.459   2.631   7.006  0.7376  1.1949 -2.3617
  160SAPE   O3117867   4.643   2.589   7.110 -0.7255 -1.1556  0.0931
  160SAPE   C3117868   4.644   2.710   7.157 -0.6971 -0.7390  0.5405
  160SAPE   O3217869   4.563   2.800   7.128  0.7085  0.0205  0.4367
  160SAPE   C3217870   4.757   2.739   7.258  0.0444  0.2243  0.6273
  160SAPE   H2X17871   4.789   2.845   7.250 -0.6148  0.7057  3.2419
  160SAPE   H2Y17872   4.835   2.662   7.240  1.0061  1.0261  1.2188
  160SAPE   C2317873   5.060   2.385   6.969 -0.1124 -0.1424  0.4688
  160SAPE   H3R17874   5.099   2.489   6.967 -2.8543  0.9653 -2.0482
  160SAPE   H3S17875   5.141   2.317   6.934  1.1567  1.3704  0.3275
  160SAPE   C2417876   5.015   2.338   7.108  0.1991  0.0095 -0.0842
  160SAPE   H4R17877   4.972   2.242   7.073 -0.9873  0.3376  0.4349
  160SAPE   H4S17878   4.940   2.400   7.162 -0.9999  0.4922 -2.2232
  160SAPE   C2517879   5.137   2.302   7.187 -0.1965 -0.5054  0.0801
  160SAPE   H5R17880   5.225   2.292   7.121 -0.8115 -1.1145 -0.6667
  160SAPE   C2617881   5.157   2.303   7.318  0.5248 -0.0676  0.3662
  160SAPE   H6R17882   5.254   2.272   7.359 -0.4766 -2.0710  1.3647
  160SAPE   C2717883   5.055   2.337   7.418  0.7793  0.2818 -1.3212
  160SAPE   H7R17884   5.035   2.251   7.485 -1.4792 -0.1050 -2.4010
  160SAPE   H7S17885   4.952   2.335   7.377  0.1889 -1.3191  0.1105
  160SAPE   C2817886   5.091   2.468   7.482  0.6201  0.3190  0.8233
  160SAPE   H8R17887   5.097   2.549   7.407  0.7410 -0.4501 -0.0268
  160SAPE   C2917888   5.129   2.498   7.606  1.1446 -0.7832 -0.1565
  160SAPE   H9R17889   5.123   2.607   7.623 -1.0966 -0.2028 -3.5472
  160SAPE  C21017890   5.152   2.414   7.729 -0.0093 -0.3798 -0.5188
  160SAPE  H10R17891   5.052   2.386   7.767 -0.8296  2.2009 -0.5737
  160SAPE  H10S17892   5.198   2.474   7.811 -0.3989 -1.2485  0.3467
  160SAPE  C21117893   5.234   2.290   7.705  1.0570 -0.2412 -0.0813
  160SAPE  H11R17894   5.312   2.304   7.628  0.5410  0.2661 -0.5150
  160SAPE  C21217895   5.228   2.174   7.763  0.2015  0.5573 -0.5963
  160SAPE  H12R17896   5.293   2.093   7.728  1.6040  1.8083 -0.9970
  160SAPE  C21317897   5.125   2.153   7.873  0.3678  0.0498 -0.1326
  160SAPE  H13R17898   5.019   2.163   7.842  0.4473  2.1720  0.1339
  160SAPE  H13S17899   5.142   2.226   7.956 -1.1583 -0.7083  0.8939
  160SAPE  C21417900   5.110   2.017   7.937 -0.0670 -0.2139  0.3017
  160SAPE  H14R17901   5.100   1.941   7.858 -1.3680 -1.7839  1.8975
  160SAPE  C21517902   5.125   1.976   8.066  0.4391 -0.2141  0.0254
  160SAPE  H15R17903   5.114   1.869   8.089  0.7840 -0.5675 -1.3308
  160SAPE  C21617904   5.156   2.066   8.183  0.3962 -0.3661  0.7010
  160SAPE  H16R17905   5.077   2.078   8.260  0.9292  1.9496  0.9585
  160SAPE  H16S17906   5.174   2.172   8.156  0.3186 -0.5265  0.0223
  160SAPE  C21717907   5.288   2.032   8.264  0.3353 -0.7163  0.0158
  160SAPE  H17R17908   5.367   2.040   8.186 -1.1018  0.3952 -1.3932
  160SAPE  H17S17909   5.283   1.928   8.303  0.5515 -1.5559 -2.0632
  160SAPE  C21817910   5.316   2.129   8.380 -1.2203  0.5020 -0.2727
  160SAPE  H18R17911   5.232   2.126   8.453 -2.1916  0.1019 -1.3724
  160SAPE  H18S17912   5.317   2.228   8.329  0.8184 -0.1590 -1.6372
  160SAPE  C21917913   5.454   2.124   8.450  0.2532  0.4951 -0.3332
  160SAPE  H19R17914   5.531   2.136   8.371 -0.2495  0.6718 -0.7945
  160SAPE  H19S17915   5.470   2.021   8.489 -0.4842  0.9466  1.2366
  160SAPE  C22017916   5.469   2.232   8.564 -0.5545 -0.8536  0.3161
  160SAPE  H20R17917   5.409   2.215   8.655 -1.6609  0.8486 -0.0568
  160SAPE  H20S17918   5.447   2.333   8.523 -1.5437 -1.5088 -0.8249
  160SAPE  H20T17919   5.576   2.227   8.595 -0.6147  0.2928  0.7530
  160SAPE   C3317920   4.717   2.721   7.408  0.5372 -0.2225  0.0231
  160SAPE   H3X17921   4.719   2.612   7.429  1.8195  0.3447  3.3884
  160SAPE   H3Y17922   4.615   2.756   7.432  1.7217  3.2063  0.6997
  160SAPE   C3417923   4.825   2.766   7.501  0.6434 -0.5390 -0.4445
  160SAPE   H4X17924   4.826   2.876   7.508 -0.5890 -0.5414  0.0206
  160SAPE   H4Y17925   4.929   2.735   7.477  1.1547 -0.0246  1.0041
  160SAPE   C3517926   4.795   2.706   7.644  0.3233 -0.2172 -0.0593
  160SAPE   H5X17927   4.826   2.599   7.642  2.4799  0.3469  0.9915
  160SAPE   H5Y17928   4.684   2.707   7.641  0.2897  1.0954  0.8748
  160SAPE   C3617929   4.862   2.789   7.756 -0.1962  0.1343  0.1344
  160SAPE   H6X17930   4.810   2.887   7.753 -2.1260 -0.8600 -0.1391
  160SAPE   H6Y17931   4.970   2.800   7.730 -0.4371  1.2184 -0.4941
  160SAPE   C3717932   4.857   2.727   7.895  0.3571 -0.4066 -0.0217
  160SAPE   H7X17933   4.915   2.632   7.897 -0.1618 -0.7606 -1.0568
  160SAPE   H7Y17934   4.752   2.697   7.914  0.8463 -3.0680 -1.0264
  160SAPE   C3817935   4.898   2.818   8.009 -0.1204  0.1602 -0.2666
  160SAPE   H8X17936   4.979   2.891   7.985 -0.6122  1.7561  2.4799
  160SAPE   H8Y17937   4.948   2.759   8.088 -2.1118 -1.7083 -0.3340
  160SAPE   C3917938   4.769   2.889   8.075 -0.2951  0.0203  0.1710
  160SAPE   H9X17939   4.676   2.862   8.021  0.8198 -0.9846 -1.3161
  160SAPE   H9Y17940   4.794   2.997   8.060  1.6047 -0.6603 -2.1019
  160SAPE  C31017941   4.754   2.854   8.225  0.5460  0.2274  1.0411
  160SAPE  H10X17942   4.835   2.891   8.293  0.9400  0.2788  0.5533
  160SAPE  H10Y17943   4.759   2.743   8.221  0.4043  0.2006  1.5353
  160SAPE  C31117944   4.622   2.906   8.292  0.0965  0.6251  0.6850
  160SAPE  H11X17945   4.611   2.843   8.383  0.8673  1.1801  1.1844
  160SAPE  H11Y17946   4.540   2.876   8.224 -0.0640  1.6875  0.3964
  160SAPE  C31217947   4.615   3.053   8.327  0.1085 -0.7749  0.3865
  160SAPE  H12X17948   4.673   3.113   8.254 -0.9562  0.1284  0.2709
  160SAPE  H12Y17949   4.651   3.063   8.432  0.0400 -2.3357  0.5881
  160SAPE  C31317950   4.468   3.103   8.327  0.8979 -0.5041 -0.1961
  160SAPE  H13X17951   4.461   3.207   8.364  1.8103 -0.3266 -0.5136
  160SAPE  H13Y17952   4.416   3.035   8.397 -0.6631  0.2250 -0.5990
  160SAPE  C31417953   4.403   3.112   8.195  0.0206 -0.2928 -0.0674
  160SAPE  H14X17954   4.395   3.008   8.155  0.3667  0.0120 -0.9621
  160SAPE  H14Y17955   4.481   3.161   8.133 -0.2913  0.4811  0.1457
  160SAPE  C31517956   4.264   3.172   8.189  0.6344 -0.6221  0.2759
  160SAPE  H15X17957   4.181   3.114   8.233  1.0698  0.9106  3.3768
  160SAPE  H15Y17958   4.237   3.181   8.081  0.0781 -1.6753  0.3187
  160SAPE  C31617959   4.248   3.312   8.254 -0.9554  0.1602  0.9546
  160SAPE  H16X17960   4.333   3.372   8.215  0.8094 -1.3659  2.2726
  160SAPE  H16Y17961   4.257   3.308   8.365 -2.3616  0.1893  1.0936
  160SAPE  C31717962   4.116   3.373   8.207 -0.0322  0.2679 -0.1769
  160SAPE  H17X17963   4.033   3.321   8.258  0.8430 -1.0673 -0.0583
  160SAPE  H17Y17964   4.108   3.341   8.101  0.9217 -0.7437  0.0322
  160SAPE  C31817965   4.117   3.529   8.204  0.2426 -0.6881 -0.2318
  160SAPE  H18X17966   4.201   3.570   8.145 -0.4438  1.1037 -0.0320
  160SAPE  H18Y17967   4.126   3.568   8.308  0.3187  0.3068 -0.6008
  160SAPE  H18Z17968   4.021   3.564   8.160 -0.9653 -3.5990 -0.1510
  161SOPE     N17969   1.726   2.625  10.573 -0.6029 -0.0056  0.2221
  161SOPE   HN117970   1.667   2.583  10.648 -0.7089 -1.0246 -0.4109
  161SOPE   HN217971   1.788   2.681  10.634 -1.0582  0.0091  0.6846
  161SOPE   HN317972   1.662   2.686  10.518 -3.4376 -2.6011  0.3782
  161SOPE   C1217973   1.804   2.529  10.485 -0.3294 -0.0455  0.2265
  161SOPE  H12A17974   1.742   2.491  10.402  0.6052 -0.5729 -0.2516
  161SOPE  H12B17975   1.837   2.442  10.546  1.8199 -2.3483 -3.8188
  161SOPE   C1117976   1.938   2.591  10.437  0.0073  0.2826  0.2399
  161SOPE  H11A17977   1.918   2.656  10.349  0.2453  0.2910  0.1897
  161SOPE  H11B17978   2.003   2.511  10.396  1.8524  2.2275 -0.8978
  161SOPE     P17979   2.042   2.812  10.529 -0.0002  0.0277  0.5565
  161SOPE   O1317980   2.148   2.852  10.622 -0.3338  0.5843 -0.1369
  161SOPE   O1417981   1.910   2.876  10.543  0.0557  0.0695 -0.3223
  161SOPE   O1217982   2.015   2.655  10.539  0.6836 -0.0521 -0.9490
  161SOPE   O1117983   2.095   2.826  10.376  0.6881 -0.1360 -0.1231
  161SOPE    C117984   2.196   2.920  10.340  0.2292 -0.1709 -0.4863
  161SOPE    HA17985   2.225   2.914  10.233 -2.0045  0.8748 -1.2199
  161SOPE    HB17986   2.287   2.901  10.400  1.0136  2.2839 -0.7878
  161SOPE    C217987   2.138   3.061  10.355  1.0728  0.0304 -0.0810
  161SOPE    HS17988   2.104   3.065  10.461  1.2993 -0.6422  0.0222
  161SOPE   O2117989   2.033   3.062  10.255 -0.0805  0.6404  0.7921
  161SOPE   C2117990   1.966   3.185  10.243 -0.3856  0.5204 -0.1157
  161SOPE   O2217991   1.985   3.276  10.323  0.2172  0.1982  0.9738
  161SOPE   C2217992   1.867   3.167  10.143 -0.1064  0.1746  0.8967
  161SOPE   H2R17993   1.763   3.156  10.180 -0.6181  0.8626 -0.2668
  161SOPE   H2S17994   1.892   3.074  10.087  1.1907  1.6668 -1.1649
  161SOPE    C317995   2.248   3.170  10.331  0.6745 -0.2803  0.2338
  161SOPE    HX17996   2.316   3.161  10.418  0.5348 -1.5997  0.2216
  161SOPE    HY17997   2.207   3.274  10.333 -1.9062 -1.0852 -2.7399
  161SOPE   O3117998   2.311   3.141  10.209 -0.3690  0.5730 -0.0660
  161SOPE   C3117999   2.293   3.221  10.106  0.7942  0.1768 -0.9373
  161SOPE   O3218000   2.218   3.313  10.104  0.2351 -0.1499 -0.4369
  161SOPE   C3218001   2.384   3.185   9.982 -0.4375  0.0845 -0.0825
  161SOPE   H2X18002   2.398   3.075   9.982  0.3717  0.0438 -3.9328
  161SOPE   H2Y18003   2.482   3.230  10.009  0.3721 -0.8159 -1.3967
  161SOPE   C2318004   1.873   3.282  10.038  0.5354  0.1842 -0.2826
  161SOPE   H3R18005   1.970   3.282   9.983  0.5506 -3.8523 -0.5963
  161SOPE   H3S18006   1.856   3.372  10.102 -2.2465 -1.2970  1.2586
  161SOPE   C2418007   1.761   3.268   9.932 -0.0012  0.4851 -0.1613
  161SOPE   H4R18008   1.748   3.168   9.885 -0.1597  1.5635 -2.5702
  161SOPE   H4S18009   1.666   3.307   9.973 -0.5590  0.0253 -0.9929
  161SOPE   C2518010   1.786   3.356   9.815 -0.2710 -0.2798 -0.0282
  161SOPE   H5R18011   1.691   3.397   9.776 -1.7041 -2.2206  1.2261
  161SOPE   H5S18012   1.836   3.453   9.837  1.3267 -1.3456  1.2918
  161SOPE   C2618013   1.845   3.271   9.702  0.2253  0.3916 -0.4223
  161SOPE   H6R18014   1.938   3.230   9.747 -0.5423 -0.9744 -0.0110
  161SOPE   H6S18015   1.770   3.191   9.684 -2.2125  2.1984  1.1695
  161SOPE   C2718016   1.884   3.350   9.566  0.0061  0.2219  0.8796
  161SOPE   H7R18017   1.798   3.412   9.534  1.9798  2.2725 -0.7815
  161SOPE   H7S18018   1.974   3.409   9.591  0.4636 -0.2245  0.3329
  161SOPE   C2818019   1.920   3.244   9.458  0.4669 -0.2090 -0.2230
  161SOPE   H8R18020   2.016   3.200   9.493  0.7026  0.3996 -0.0857
  161SOPE   H8S18021   1.838   3.173   9.434 -0.9113  1.4145 -0.4638
  161SOPE   C2918022   1.942   3.315   9.329  0.2573  0.0683 -0.5227
  161SOPE   H9118023   2.006   3.404   9.335  1.4941 -0.8624  0.3690
  161SOPE  C21018024   1.868   3.297   9.210  0.5271 -0.7338 -0.2438
  161SOPE  H10118025   1.884   3.371   9.131 -1.6775  3.1311  2.5533
  161SOPE  C21118026   1.758   3.196   9.187 -0.4356  0.3933  0.2884
  161SOPE  H11R18027   1.667   3.232   9.136 -0.3440 -2.3338 -2.0586
  161SOPE  H11S18028   1.728   3.145   9.282  0.0850 -1.1353 -0.3326
  161SOPE  C21218029   1.822   3.083   9.093  0.0307 -1.2928 -0.7605
  161SOPE  H12R18030   1.927   3.060   9.119  0.9538  0.9356 -2.2049
  161SOPE  H12S18031   1.830   3.128   8.992 -1.9106  0.4941 -0.1827
  161SOPE  C21318032   1.734   2.963   9.084  0.0785 -0.3345 -0.4929
  161SOPE  H13R18033   1.633   2.987   9.045 -0.4229 -2.1308 -0.3812
  161SOPE  H13S18034   1.719   2.911   9.181  0.8158 -2.4113 -1.4208
  161SOPE  C21418035   1.795   2.855   8.990 -0.8288  0.0494  0.1701
  161SOPE  H14R18036   1.898   2.838   9.026 -0.8095  0.7439  0.4650
  161SOPE  H14S18037   1.815   2.905   8.892  2.3568 -0.3037  0.5477
  161SOPE  C21518038   1.708   2.732   8.972  0.3482 -0.5154 -0.0685
  161SOPE  H15R18039   1.606   2.750   8.930  0.2217 -2.9924 -0.9981
  161SOPE  H15S18040   1.699   2.695   9.077  3.3021  2.9567  1.5893
  161SOPE  C21618041   1.755   2.612   8.883  0.0931 -0.3120  0.4850
  161SOPE  H16R18042   1.740   2.640   8.777 -3.4309 -2.6201  0.1971
  161SOPE  H16S18043   1.670   2.540   8.888 -1.0652  0.9540 -0.3074
  161SOPE  C21718044   1.888   2.545   8.929 -0.5785 -0.0188 -0.4803
  161SOPE  H17R18045   1.893   2.561   9.038  0.2863 -0.6092 -0.4207
  161SOPE  H17S18046   1.965   2.604   8.875  0.3125  0.0555  0.8228
  161SOPE  C21818047   1.915   2.397   8.901  0.1092  0.3538 -0.3017
  161SOPE  H18R18048   1.838   2.326   8.938  1.0888 -1.6066 -1.8282
  161SOPE  H18S18049   2.019   2.374   8.932 -0.4040  1.4439  2.4938
  161SOPE  H18T18050   1.926   2.385   8.791 -2.7921 -1.5325 -0.4817
  161SOPE   C3318051   2.330   3.234   9.843 -0.3364  0.4380 -0.1232
  161SOPE   H3X18052   2.300   3.341   9.850 -0.6043  0.4078 -0.7096
  161SOPE   H3Y18053   2.244   3.168   9.818  0.8619 -0.6995 -1.4255
  161SOPE   C3418054   2.437   3.219   9.731  0.2875 -0.5282  0.5613
  161SOPE   H4X18055   2.492   3.123   9.742 -1.1963 -2.0754 -3.5533
  161SOPE   H4Y18056   2.506   3.306   9.736 -1.5426  0.9659  0.8655
  161SOPE   C3518057   2.377   3.201   9.599  1.0731  0.0362  0.3788
  161SOPE   H5X18058   2.305   3.116   9.609  4.3938 -2.9978  0.5537
  161SOPE   H5Y18059   2.449   3.166   9.522 -0.1348 -0.0850 -0.7457
  161SOPE   C3618060   2.317   3.328   9.530 -0.8266  0.3095  0.8647
  161SOPE   H6X18061   2.380   3.419   9.541 -0.4760  0.4457 -1.7131
  161SOPE   H6Y18062   2.226   3.354   9.589 -0.8520  2.3718 -0.0062
  161SOPE   C3718063   2.270   3.299   9.384  0.7519  0.1266  0.0936
  161SOPE   H7X18064   2.193   3.377   9.366 -1.2918 -1.0405  2.9682
  161SOPE   H7Y18065   2.219   3.201   9.373 -3.0619  1.9485 -0.0606
  161SOPE   C3818066   2.380   3.307   9.281  1.3462  0.3159  0.3102
  161SOPE   H8X18067   2.462   3.241   9.317  0.6503  1.2438  3.9766
  161SOPE   H8Y18068   2.418   3.411   9.277  0.0009  0.9395  2.1831
  161SOPE   C3918069   2.334   3.271   9.141 -0.9441  0.3993  0.3451
  161SOPE   H9X18070   2.268   3.344   9.090 -1.6925 -0.7257 -0.3449
  161SOPE   H9Y18071   2.282   3.173   9.138 -0.6900  0.2842 -0.6073
  161SOPE  C31018072   2.464   3.254   9.056  0.7668  0.1765  0.2660
  161SOPE  H10X18073   2.530   3.183   9.109 -0.8155 -0.0205  2.0907
  161SOPE  H10Y18074   2.516   3.351   9.044 -2.5972  2.0350 -0.9611
  161SOPE  C31118075   2.442   3.194   8.913  0.6554 -0.2680 -0.1367
  161SOPE  H11X18076   2.372   3.110   8.930  0.5422 -0.1825 -0.1819
  161SOPE  H11Y18077   2.546   3.162   8.890  1.2410  0.9933  0.6321
  161SOPE  C31218078   2.388   3.291   8.806 -1.0899  0.1829  0.0179
  161SOPE  H12X18079   2.307   3.351   8.851 -0.5197 -0.3142  1.7845
  161SOPE  H12Y18080   2.359   3.229   8.718  2.7359 -0.3663 -1.0458
  161SOPE  C31318081   2.497   3.382   8.757  0.1176 -0.8177  0.4019
  161SOPE  H13X18082   2.587   3.325   8.725  0.3560 -0.9180  1.2182
  161SOPE  H13Y18083   2.534   3.446   8.840 -0.1603 -2.3914  1.7881
  161SOPE  C31418084   2.446   3.477   8.647  0.4579  0.5118 -0.0710
  161SOPE  H14X18085   2.378   3.553   8.692  2.0973  2.5659 -0.8951
  161SOPE  H14Y18086   2.394   3.422   8.566 -0.6738 -0.6489  1.3802
  161SOPE  C31518087   2.557   3.549   8.579  0.1966 -0.1199  1.3098
  161SOPE  H15X18088   2.626   3.472   8.539 -1.3641 -0.9231  0.0622
  161SOPE  H15Y18089   2.606   3.610   8.658  0.4960  0.3333  0.7847
  161SOPE  C31618090   2.521   3.649   8.464  0.9262 -0.7782  0.0035
  161SOPE  H16X18091   2.452   3.602   8.390 -1.4213  2.4778 -0.0898
  161SOPE  H16Y18092   2.605   3.676   8.397 -0.6184 -1.2185 -2.2246
  161SOPE  C31718093   2.459   3.778   8.523  0.1972  0.3287 -0.2315
  161SOPE  H17X18094   2.420   3.760   8.626 -0.6233 -0.8892 -0.7308
  161SOPE  H17Y18095   2.377   3.813   8.457  0.6489  0.0026 -0.9745
  161SOPE  C31818096   2.573   3.882   8.517  0.4334  0.3187  0.0876
  161SOPE  H18X18097   2.642   3.870   8.604 -1.5695 -1.6318  1.5545
  161SOPE  H18Y18098   2.518   3.978   8.523  2.2566  1.4292 -0.3574
  161SOPE  H18Z18099   2.623   3.875   8.418  0.4123  0.3907  0.0722
  162SOPE     N18100   1.827   4.899  10.969 -0.4108  0.0445  0.5418
  162SOPE   HN118101   1.835   4.999  10.995 -0.0573  0.4911 -1.1551
  162SOPE   HN218102   1.849   4.877  10.870 -1.8380 -0.6712  0.3541
  162SOPE   HN318103   1.728   4.874  10.987 -1.6407  2.6165 -1.9182
  162SOPE   C1218104   1.911   4.794  11.040 -0.2338 -0.5059 -0.2454
  162SOPE  H12A18105   1.890   4.806  11.148  0.7339  0.5002 -0.1521
  162SOPE  H12B18106   2.018   4.815  11.022 -0.1742 -0.6741 -0.0903
  162SOPE   C1118107   1.873   4.645  10.998  0.2684 -0.0940 -0.0657
  162SOPE  H11A18108   1.928   4.577  11.067 -1.7754 -1.3792  0.3817
  162SOPE  H11B18109   1.896   4.624  10.891 -0.2589 -1.5099  0.0781
  162SOPE     P18110   1.679   4.477  10.993 -0.0930 -0.0901 -0.0109
  162SOPE   O1318111   1.556   4.445  11.074 -0.4245 -0.0567 -0.2692
  162SOPE   O1418112   1.789   4.383  11.021 -0.2146  0.3216 -0.2769
  162SOPE   O1218113   1.735   4.627  11.016  0.5408 -0.1155 -0.0054
  162SOPE   O1118114   1.649   4.470  10.839 -0.1928  0.3909 -0.0867
  162SOPE    C118115   1.592   4.586  10.773  0.2719  0.3423  0.5014
  162SOPE    HA18116   1.612   4.582  10.664  1.6725  0.5687  0.7315
  162SOPE    HB18117   1.636   4.683  10.804  1.7199 -0.7396  2.0107
  162SOPE    C218118   1.436   4.592  10.794 -0.3306 -0.6043  0.5492
  162SOPE    HS18119   1.428   4.596  10.904  0.8595  0.7622  0.6104
  162SOPE   O2118120   1.369   4.474  10.736 -0.2069  0.8530 -0.5439
  162SOPE   C2118121   1.235   4.467  10.756 -0.9184  0.1741  0.1088
  162SOPE   O2218122   1.174   4.548  10.823  0.0277 -0.3094  0.3086
  162SOPE   C2218123   1.179   4.344  10.694 -0.0102 -0.0576 -0.0804
  162SOPE   H2R18124   1.071   4.355  10.716  0.3646  0.9758  1.4537
  162SOPE   H2S18125   1.206   4.259  10.760 -3.2861 -0.3568  1.0528
  162SOPE    C318126   1.392   4.737  10.732  0.1316  0.1320  0.0392
  162SOPE    HX18127   1.466   4.816  10.756  0.8264 -0.2264 -0.8850
  162SOPE    HY18128   1.306   4.764  10.798  1.1015  0.4638  1.1960
  162SOPE   O3118129   1.383   4.731  10.586  0.0112  0.3999  0.2157
  162SOPE   C3118130   1.290   4.817  10.545 -0.4902  0.0325 -0.3818
  162SOPE   O3218131   1.240   4.909  10.610 -0.1348 -0.5341  1.0279
  162SOPE   C3218132   1.264   4.787  10.395 -0.2980 -0.3922  0.8264
  162SOPE   H2X18133   1.227   4.683  10.390 -2.5513  0.4097 -0.9374
  162SOPE   H2Y18134   1.364   4.782  10.348 -1.1159 -1.4113 -0.8959
  162SOPE   C2318135   1.209   4.332  10.541 -0.5240  0.0962  0.6398
  162SOPE   H3R18136   1.231   4.227  10.515  0.5068  0.4170  0.1580
  162SOPE   H3S18137   1.303   4.383  10.510  1.7284 -2.3820  2.9169
  162SOPE   C2418138   1.093   4.400  10.458  0.6405 -0.0879  0.2305
  162SOPE   H4R18139   0.991   4.359  10.472  0.1035  1.3718  0.7848
  162SOPE   H4S18140   1.075   4.500  10.502 -2.8166  0.1904 -1.5379
  162SOPE   C2518141   1.132   4.411  10.312  0.7831  0.0636 -0.1941
  162SOPE   H5R18142   1.231   4.461  10.303  1.0092  0.4013  2.9519
  162SOPE   H5S18143   1.143   4.304  10.285  3.2182 -0.3989  2.2599
  162SOPE   C2618144   1.027   4.469  10.209 -0.8014 -0.4312 -0.9921
  162SOPE   H6R18145   1.078   4.517  10.123 -2.7470  1.9119 -0.9407
  162SOPE   H6S18146   0.952   4.397  10.172 -1.5367 -0.5218  0.5758
  162SOPE   C2718147   0.945   4.579  10.268  0.3418 -0.2837  0.1336
  162SOPE   H7R18148   0.870   4.540  10.340 -0.3053  1.6019  0.5498
  162SOPE   H7S18149   1.005   4.656  10.320 -0.2620  1.0773 -1.1132
  162SOPE   C2818150   0.862   4.656  10.165 -0.2466  0.6071 -0.1678
  162SOPE   H8R18151   0.808   4.741  10.212  0.9638  0.8834  0.7631
  162SOPE   H8S18152   0.939   4.698  10.096  0.5113 -0.0114  0.3026
  162SOPE   C2918153   0.765   4.561  10.095  0.1273 -0.7207  0.1385
  162SOPE   H9118154   0.673   4.547  10.154 -0.5422  1.6594 -0.2572
  162SOPE  C21018155   0.770   4.512   9.973 -0.0842 -0.7626 -0.3156
  162SOPE  H10118156   0.683   4.457   9.935 -1.9579 -0.1683  2.7456
  162SOPE  C21118157   0.876   4.548   9.867 -0.3036 -0.0138 -0.4201
  162SOPE  H11R18158   0.972   4.493   9.879 -0.1010  0.5714  0.7685
  162SOPE  H11S18159   0.908   4.654   9.864 -0.8247  0.1448 -2.7384
  162SOPE  C21218160   0.837   4.533   9.721 -0.3310 -0.5441 -0.3836
  162SOPE  H12R18161   0.809   4.429   9.696 -4.4331 -0.1407  1.6576
  162SOPE  H12S18162   0.924   4.557   9.657  0.7567 -2.2700  0.3832
  162SOPE  C21318163   0.721   4.620   9.674  0.0314 -0.8736 -0.5931
  162SOPE  H13R18164   0.742   4.727   9.699 -1.7609  0.2146 -3.2397
  162SOPE  H13S18165   0.624   4.599   9.724 -1.7465  1.7836 -2.5989
  162SOPE  C21418166   0.705   4.595   9.519 -0.5012 -0.7852  0.5042
  162SOPE  H14R18167   0.684   4.487   9.503 -0.6534 -0.5953 -0.6638
  162SOPE  H14S18168   0.802   4.612   9.469 -0.4868 -1.2032  0.3849
  162SOPE  C21518169   0.598   4.686   9.462 -0.0103 -0.2417 -0.1052
  162SOPE  H15R18170   0.614   4.777   9.524 -1.8432 -0.0007  0.0503
  162SOPE  H15S18171   0.500   4.641   9.489 -0.2182  0.0455 -0.3728
  162SOPE  C21618172   0.593   4.710   9.307 -0.0788 -0.5060 -0.2724
  162SOPE  H16R18173   0.696   4.741   9.280 -0.9320  2.2798 -0.6664
  162SOPE  H16S18174   0.528   4.796   9.283 -2.0528 -1.2497  2.0315
  162SOPE  C21718175   0.552   4.585   9.230 -0.5086  0.8888 -0.0097
  162SOPE  H17R18176   0.463   4.533   9.271 -0.6406  0.6250 -0.6203
  162SOPE  H17S18177   0.639   4.516   9.237 -2.5941 -1.9590 -0.5855
  162SOPE  C21818178   0.525   4.601   9.080  0.4375  0.3833 -0.2749
  162SOPE  H18R18179   0.619   4.640   9.036  0.9309 -1.6036 -1.1154
  162SOPE  H18S18180   0.445   4.677   9.064  0.6907  0.7947  0.3510
  162SOPE  H18T18181   0.483   4.502   9.051 -0.6350  1.0621 -1.1255
  162SOPE   C3318182   1.165   4.884  10.331 -0.6023  0.1293  0.3221
  162SOPE   H3X18183   1.206   4.985  10.352  3.1641 -1.0848 -0.3600
  162SOPE   H3Y18184   1.062   4.878  10.372 -0.1169  0.8046  1.7127
  162SOPE   C3418185   1.152   4.873  10.174  0.5365  0.7663  0.7048
  162SOPE   H4X18186   1.060   4.929  10.144 -0.0003  0.7204  2.1920
  162SOPE   H4Y18187   1.137   4.766  10.145 -0.5816  0.9536  0.5456
  162SOPE   C3518188   1.271   4.924  10.095  0.3819 -0.2012  0.0843
  162SOPE   H5X18189   1.369   4.874  10.115  0.3785 -0.3330 -0.2258
  162SOPE   H5Y18190   1.293   5.031  10.113 -0.2860  0.3773 -2.2086
  162SOPE   C3618191   1.241   4.906   9.945 -0.2349 -0.3044 -0.2206
  162SOPE   H6X18192   1.167   4.977   9.902 -1.3413 -1.6985 -0.7293
  162SOPE   H6Y18193   1.193   4.806   9.933 -1.9315  0.4626 -0.1833
  162SOPE   C3718194   1.374   4.919   9.858 -1.0448 -0.3351 -0.5114
  162SOPE   H7X18195   1.438   4.830   9.875 -0.5038  0.3612  1.3600
  162SOPE   H7Y18196   1.433   5.005   9.899 -1.6939  0.7966 -1.8788
  162SOPE   C3818197   1.357   4.915   9.707 -0.8926  0.1993  0.1862
  162SOPE   H8X18198   1.445   4.873   9.654 -0.5808 -0.8823  1.5264
  162SOPE   H8Y18199   1.345   5.021   9.676 -0.6391 -0.1571 -1.1959
  162SOPE   C3918200   1.231   4.820   9.673  0.0349 -0.5855 -0.3584
  162SOPE   H9X18201   1.136   4.861   9.714 -1.2138 -4.0378  0.6149
  162SOPE   H9Y18202   1.251   4.724   9.726 -3.6094 -1.2618  0.1112
  162SOPE  C31018203   1.206   4.794   9.524 -0.0854  0.0799  0.8457
  162SOPE  H10X18204   1.102   4.759   9.505  1.6651 -4.2889 -2.3005
  162SOPE  H10Y18205   1.271   4.708   9.498  1.4548  0.1910  3.9537
  162SOPE  C31118206   1.244   4.913   9.430 -0.6745 -0.1763 -0.4004
  162SOPE  H11X18207   1.349   4.940   9.453 -0.9072 -1.1013  2.0654
  162SOPE  H11Y18208   1.178   4.999   9.454 -0.6055  0.3007 -1.8269
  162SOPE  C31218209   1.223   4.882   9.280  0.2416 -0.2325 -0.4420
  162SOPE  H12X18210   1.253   4.969   9.218 -0.9329 -0.7122 -1.7158
  162SOPE  H12Y18211   1.123   4.843   9.255 -0.1942 -0.1413  1.0323
  162SOPE  C31318212   1.321   4.772   9.240 -0.1539 -0.7040 -0.2177
  162SOPE  H13X18213   1.295   4.675   9.289 -0.3050  0.1897  1.5754
  162SOPE  H13Y18214   1.422   4.805   9.274 -0.2579  1.2887 -1.6891
  162SOPE  C31418215   1.316   4.745   9.091  0.2011  0.0592  0.9259
  162SOPE  H14X18216   1.368   4.825   9.034 -1.0963 -0.1846 -0.6632
  162SOPE  H14Y18217   1.209   4.742   9.061  0.8600  0.3124 -1.6913
  162SOPE  C31518218   1.379   4.615   9.068  0.0084  1.3077  0.2916
  162SOPE  H15X18219   1.332   4.530   9.122 -1.0831  0.6493 -1.5842
  162SOPE  H15Y18220   1.482   4.620   9.109 -0.6279 -1.5143  2.5942
  162SOPE  C31618221   1.370   4.571   8.927  1.1823  0.3353  0.8071
  162SOPE  H16X18222   1.431   4.636   8.860  1.9785 -0.7572  0.4351
  162SOPE  H16Y18223   1.263   4.563   8.896  0.9653  0.2788  1.5426
  162SOPE  C31718224   1.436   4.429   8.917 -0.0520 -0.5031 -0.0051
  162SOPE  H17X18225   1.392   4.363   8.994  0.1768  0.4547  0.9808
  162SOPE  H17Y18226   1.546   4.443   8.931 -0.0058 -2.2301  1.7243
  162SOPE  C31818227   1.416   4.356   8.785  0.3148  0.5716 -0.0194
  162SOPE  H18X18228   1.458   4.412   8.699  0.9861 -0.4478 -0.3675
  162SOPE  H18Y18229   1.311   4.333   8.757  0.7488 -0.5362 -0.7980
  162SOPE  H18Z18230   1.480   4.265   8.786  1.0275  0.9671 -2.6585
  163SOPE     N18231   3.360   1.357  10.922  0.5751 -0.2456  0.5457
  163SOPE   HN118232   3.299   1.356  11.006 -0.4102  0.5524 -0.1385
  163SOPE   HN218233   3.456   1.391  10.940  0.5153 -0.5068  1.3729
  163SOPE   HN318234   3.316   1.419  10.850 -3.3752 -0.4271  2.5229
  163SOPE   C1218235   3.370   1.222  10.856  0.1291 -0.4351  0.0665
  163SOPE  H12A18236   3.456   1.167  10.898  0.5298  0.3780  0.3351
  163SOPE  H12B18237   3.387   1.252  10.750  0.0719  0.5172  0.3106
  163SOPE   C1118238   3.234   1.147  10.876 -0.2840 -0.0520  0.3477
  163SOPE  H11A18239   3.228   1.109  10.980  1.5326 -2.7491 -0.4190
  163SOPE  H11B18240   3.224   1.057  10.811  1.2107 -0.5607  0.7750
  163SOPE     P18241   2.978   1.195  10.837  0.4196  0.1821  0.1347
  163SOPE   O1318242   2.923   1.244  10.968  0.4231  0.6354 -0.2468
  163SOPE   O1418243   2.970   1.047  10.813  0.8292 -0.5680  0.3922
  163SOPE   O1218244   3.127   1.239  10.851 -0.5539 -0.0287  0.5580
  163SOPE   O1118245   2.911   1.272  10.712 -0.3834  0.2385  0.5204
  163SOPE    C118246   2.951   1.400  10.677 -0.5044 -0.0816 -0.6988
  163SOPE    HA18247   3.037   1.436  10.737 -0.9756 -1.0593  0.6144
  163SOPE    HB18248   2.861   1.462  10.698 -1.6389 -2.1818  1.1273
  163SOPE    C218249   2.993   1.410  10.532 -0.4368 -0.1581 -0.6742
  163SOPE    HS18250   3.026   1.515  10.513 -0.5592 -0.4878 -2.9835
  163SOPE   O2118251   2.887   1.364  10.445 -0.4747  0.6921 -0.7297
  163SOPE   C2118252   2.826   1.465  10.377 -0.5791 -0.1426 -0.3914
  163SOPE   O2218253   2.829   1.583  10.407 -0.1195 -0.4692 -0.2711
  163SOPE   C2218254   2.754   1.405  10.258 -0.5216  0.1513  1.1038
  163SOPE   H2R18255   2.707   1.483  10.195 -0.6341 -1.3160 -0.7473
  163SOPE   H2S18256   2.673   1.340  10.297  0.6662 -1.7517  0.5653
  163SOPE    C318257   3.126   1.327  10.511 -0.1770 -0.2584  0.2260
  163SOPE    HX18258   3.099   1.221  10.495  1.4087 -0.6031 -0.2552
  163SOPE    HY18259   3.183   1.323  10.606  1.7823  0.8304 -0.8441
  163SOPE   O3118260   3.207   1.386  10.399 -0.0469 -0.6609  0.0667
  163SOPE   C3118261   3.290   1.300  10.352 -0.7499 -0.0547  0.7754
  163SOPE   O3218262   3.294   1.180  10.375 -0.3364  0.7023  0.1655
  163SOPE   C3218263   3.396   1.371  10.262  0.5550 -0.2093 -0.7130
  163SOPE   H2X18264   3.483   1.391  10.328  1.6222 -1.5016 -1.6827
  163SOPE   H2Y18265   3.356   1.464  10.216  0.1325  0.6261  1.2666
  163SOPE   C2318266   2.834   1.304  10.168  0.0728 -0.0482  0.1772
  163SOPE   H3R18267   2.770   1.261  10.089  3.7860 -4.5343 -0.8564
  163SOPE   H3S18268   2.861   1.220  10.236 -0.0476 -0.1770  0.0664
  163SOPE   C2418269   2.967   1.349  10.098  0.2804 -0.1345  0.9394
  163SOPE   H4R18270   3.026   1.414  10.167 -1.7120 -0.1575  2.7873
  163SOPE   H4S18271   3.023   1.258  10.069 -2.1647 -1.0529 -1.3004
  163SOPE   C2518272   2.945   1.421   9.965 -0.1839  0.1857 -0.0282
  163SOPE   H5R18273   2.880   1.509   9.981 -1.2020 -0.5707  0.0643
  163SOPE   H5S18274   3.046   1.455   9.931  0.3539 -0.4755  0.8526
  163SOPE   C2618275   2.868   1.344   9.855 -0.4291 -0.1893  0.2311
  163SOPE   H6R18276   2.896   1.237   9.868 -2.7855 -0.7805  1.1049
  163SOPE   H6S18277   2.759   1.335   9.876  0.0068 -0.3805  2.7569
  163SOPE   C2718278   2.892   1.395   9.718  0.1360  0.4211  0.4543
  163SOPE   H7R18279   2.845   1.494   9.697 -0.3967  0.1787  0.4837
  163SOPE   H7S18280   3.000   1.404   9.693 -0.1978  0.9875 -0.8850
  163SOPE   C2818281   2.848   1.295   9.605  0.6695 -0.5368  0.4023
  163SOPE   H8R18282   2.909   1.317   9.515  0.8008  2.2129  1.0853
  163SOPE   H8S18283   2.870   1.188   9.627 -0.2739 -0.2827  2.8676
  163SOPE   C2918284   2.701   1.306   9.577  0.1682 -0.2700  0.4072
  163SOPE   H9118285   2.636   1.300   9.666  1.7767  1.2624  1.7538
  163SOPE  C21018286   2.641   1.302   9.450 -0.4804 -0.0439  0.4929
  163SOPE  H10118287   2.532   1.313   9.441 -0.3891 -0.3058 -1.2991
  163SOPE  C21118288   2.726   1.274   9.329  0.2114  0.3428 -1.0134
  163SOPE  H11R18289   2.793   1.190   9.356 -0.2135  0.4149  0.3579
  163SOPE  H11S18290   2.782   1.359   9.287 -0.4903  0.7282 -1.1891
  163SOPE  C21218291   2.646   1.207   9.215  0.0842  0.4043  0.0810
  163SOPE  H12R18292   2.553   1.265   9.193 -1.4920 -0.7203  3.1462
  163SOPE  H12S18293   2.594   1.117   9.255 -4.2233  1.3186 -2.6641
  163SOPE  C21318294   2.731   1.178   9.088 -0.1101  0.4809  0.2790
  163SOPE  H13R18295   2.839   1.163   9.108 -0.1890  0.9788  1.1204
  163SOPE  H13S18296   2.725   1.269   9.026  1.2666  0.2147 -0.2822
  163SOPE  C21418297   2.678   1.060   9.008 -0.1330  1.0265 -0.0073
  163SOPE  H14R18298   2.577   1.088   8.971 -0.1469 -0.9514 -1.6286
  163SOPE  H14S18299   2.664   0.967   9.067 -0.1584 -0.6787 -2.5619
  163SOPE  C21518300   2.766   1.020   8.892  0.8752  0.9253 -0.0341
  163SOPE  H15R18301   2.726   0.948   8.817 -2.5672  3.5796 -1.0451
  163SOPE  H15S18302   2.862   0.982   8.933  0.5400 -0.2296 -0.2820
  163SOPE  C21618303   2.813   1.144   8.813 -0.3852  0.5123  0.7860
  163SOPE  H16R18304   2.862   1.224   8.871  0.1839  0.6333  0.1584
  163SOPE  H16S18305   2.733   1.196   8.756 -1.4555 -2.3231 -0.5268
  163SOPE  C21718306   2.918   1.113   8.702  0.5793 -0.0289  0.0676
  163SOPE  H17R18307   3.019   1.104   8.747  0.1588  0.5557  1.1554
  163SOPE  H17S18308   2.927   1.208   8.646  0.6004 -0.3273 -0.4467
  163SOPE  C21818309   2.877   1.006   8.604 -0.0507 -0.1860 -0.2669
  163SOPE  H18R18310   2.963   0.973   8.541 -1.1133 -0.0978 -1.8262
  163SOPE  H18S18311   2.785   1.037   8.549 -0.8046  0.1385  1.1214
  163SOPE  H18T18312   2.843   0.917   8.661  0.1761 -0.6494 -0.8502
  163SOPE   C3318313   3.444   1.273  10.150  0.4350 -0.2460 -0.8731
  163SOPE   H3X18314   3.479   1.181  10.202 -1.6809 -0.3626  0.4656
  163SOPE   H3Y18315   3.525   1.327  10.096  0.2692  2.6313  1.5133
  163SOPE   C3418316   3.333   1.257  10.047  0.1676 -0.6823  0.3290
  163SOPE   H4X18317   3.289   1.353  10.013 -3.0038 -2.6336 -1.5648
  163SOPE   H4Y18318   3.256   1.196  10.099  0.7358 -1.1431  0.6422
  163SOPE   C3518319   3.364   1.179   9.916 -0.0501 -0.1230 -0.1330
  163SOPE   H5X18320   3.268   1.171   9.862  0.3545 -0.8773 -0.7646
  163SOPE   H5Y18321   3.411   1.079   9.928 -0.3686 -0.8187 -3.5638
  163SOPE   C3618322   3.468   1.257   9.828  1.1110 -0.3145  0.1923
  163SOPE   H6X18323   3.560   1.268   9.889  1.3546  0.8688 -0.3581
  163SOPE   H6Y18324   3.428   1.347   9.778  1.2125 -1.7028 -2.5269
  163SOPE   C3718325   3.508   1.164   9.713  0.1810 -0.4873  0.0196
  163SOPE   H7X18326   3.547   1.069   9.756  0.3084 -1.4801 -2.1248
  163SOPE   H7Y18327   3.588   1.204   9.646 -1.9755 -0.8380 -3.0023
  163SOPE   C3818328   3.390   1.121   9.613  0.4034  0.6835  0.0019
  163SOPE   H8X18329   3.302   1.084   9.670  0.9406 -1.1617 -0.3139
  163SOPE   H8Y18330   3.441   1.042   9.554 -0.6114  0.2718 -0.3486
  163SOPE   C3918331   3.346   1.233   9.530 -0.6639  0.5153 -0.1598
  163SOPE   H9X18332   3.419   1.259   9.450 -0.5578 -2.1423 -1.0237
  163SOPE   H9Y18333   3.334   1.324   9.591 -0.9679  0.8966 -0.7714
  163SOPE  C31018334   3.209   1.211   9.455  0.1581 -0.0574 -0.0218
  163SOPE  H10X18335   3.124   1.232   9.522  1.4314  0.3869  1.5044
  163SOPE  H10Y18336   3.201   1.104   9.425 -1.6080 -0.3148  1.2410
  163SOPE  C31118337   3.207   1.309   9.343 -0.5108 -0.8956  0.6650
  163SOPE  H11X18338   3.292   1.290   9.274  1.1630 -1.9077  2.8675
  163SOPE  H11Y18339   3.204   1.413   9.383  0.0824 -0.0694 -1.3006
  163SOPE  C31218340   3.082   1.313   9.252  0.4699 -0.6666 -0.3010
  163SOPE  H12X18341   2.990   1.331   9.311  0.6810 -0.9331  0.1152
  163SOPE  H12Y18342   3.074   1.212   9.207 -2.1176 -0.5010 -0.3937
  163SOPE  C31318343   3.089   1.414   9.136 -0.7031 -0.5082  0.8112
  163SOPE  H13X18344   3.079   1.512   9.188 -0.3267 -2.2657  4.4674
  163SOPE  H13Y18345   3.010   1.392   9.062 -0.2198  2.0588 -0.6156
  163SOPE  C31418346   3.212   1.410   9.045 -0.1579  0.0155 -0.1591
  163SOPE  H14X18347   3.308   1.429   9.098  0.1732 -0.6015 -0.5178
  163SOPE  H14Y18348   3.189   1.483   8.965  1.4763 -1.0155 -1.6398
  163SOPE  C31518349   3.225   1.277   8.977 -1.0020  0.7121  0.6361
  163SOPE  H15X18350   3.124   1.240   8.950 -1.4398 -0.2832  3.3260
  163SOPE  H15Y18351   3.249   1.206   9.059 -1.0340  1.2254  1.0843
  163SOPE  C31618352   3.334   1.269   8.865  0.1943 -0.1295  0.0784
  163SOPE  H16X18353   3.421   1.326   8.906  0.9534 -2.0583  1.2607
  163SOPE  H16Y18354   3.292   1.328   8.780  1.0245 -0.4159 -0.5519
  163SOPE  C31718355   3.351   1.117   8.832  0.2334 -0.5233  0.1661
  163SOPE  H17X18356   3.256   1.095   8.778 -1.0363  1.8890  1.2746
  163SOPE  H17Y18357   3.340   1.056   8.924  0.7142 -0.0208  0.5613
  163SOPE  C31818358   3.476   1.089   8.748 -0.3050  0.2633  0.1682
  163SOPE  H18X18359   3.560   1.111   8.817 -0.2704 -0.3045  0.3159
  163SOPE  H18Y18360   3.502   1.148   8.658  3.0941 -0.9115  0.2443
  163SOPE  H18Z18361   3.481   0.978   8.739 -2.0570  0.1618  0.1421
  164SOPE     N18362   2.977   6.768  10.819 -0.1700 -0.4413  0.1084
  164SOPE   HN118363   3.008   6.703  10.894  1.6744 -0.2381 -0.4219
  164SOPE   HN218364   2.891   6.815  10.852  0.9864  1.1885  0.9414
  164SOPE   HN318365   2.950   6.715  10.733 -1.6376 -2.5082  1.7537
  164SOPE   C1218366   3.085   6.866  10.785 -0.2022  0.5014 -0.5179
  164SOPE  H12A18367   3.110   6.926  10.875  1.2562 -1.1100  0.2007
  164SOPE  H12B18368   3.048   6.933  10.705 -2.4411  0.6026  0.5401
  164SOPE   C1118369   3.215   6.788  10.746 -0.1093  0.8492 -0.5248
  164SOPE  H11A18370   3.298   6.856  10.718 -0.5093  0.6308 -2.4090
  164SOPE  H11B18371   3.186   6.736  10.652 -0.9016 -0.1995  0.2823
  164SOPE     P18372   3.389   6.616  10.841 -0.0575 -0.2378 -0.0838
  164SOPE   O1318373   3.384   6.489  10.923 -0.7095 -0.5694  0.2022
  164SOPE   O1418374   3.494   6.709  10.882  0.4119 -0.0550 -0.2309
  164SOPE   O1218375   3.251   6.691  10.853 -0.1213 -0.4289 -0.5267
  164SOPE   O1118376   3.398   6.584  10.689 -0.1897 -0.4101 -0.1187
  164SOPE    C118377   3.314   6.480  10.632  0.7942  0.6172  0.0135
  164SOPE    HA18378   3.222   6.523  10.587  0.1419 -0.6161  0.1232
  164SOPE    HB18379   3.281   6.418  10.718  2.0758  0.2515  0.2721
  164SOPE    C218380   3.395   6.379  10.552  0.9000 -0.3858 -0.7524
  164SOPE    HS18381   3.478   6.355  10.622 -0.4339  4.2441  2.9647
  164SOPE   O2118382   3.433   6.452  10.435  0.3944 -0.2999  0.2085
  164SOPE   C2118383   3.565   6.460  10.420  0.5297 -0.3954  0.4760
  164SOPE   O2218384   3.647   6.428  10.502  0.3251  0.1865 -0.0826
  164SOPE   C2218385   3.593   6.522  10.279  0.3164  0.2370  0.1517
  164SOPE   H2R18386   3.639   6.622  10.293  0.4783  0.5185 -2.0365
  164SOPE   H2S18387   3.501   6.546  10.221  1.5364 -1.3420 -2.6732
  164SOPE    C318388   3.318   6.254  10.517  0.0362  0.0110  0.1656
  164SOPE    HX18389   3.297   6.202  10.613 -0.8374 -3.1226 -1.5948
  164SOPE    HY18390   3.380   6.188  10.453 -0.8826 -1.1362  0.4294
  164SOPE   O3118391   3.190   6.284  10.462 -0.1909  0.5720  0.2354
  164SOPE   C3118392   3.186   6.300  10.328 -0.3253 -0.5328 -0.8717
  164SOPE   O3218393   3.282   6.283  10.255 -0.1893 -0.1887  0.5373
  164SOPE   C3218394   3.042   6.332  10.289  0.5990  0.3051 -0.7387
  164SOPE   H2X18395   3.033   6.432  10.336  2.4260 -0.0118  0.3858
  164SOPE   H2Y18396   2.985   6.252  10.342 -0.0840  1.6002  0.5547
  164SOPE   C2318397   3.675   6.432  10.189 -0.1450 -0.1841 -0.9134
  164SOPE   H3R18398   3.648   6.325  10.199  2.2523 -0.6739  1.0796
  164SOPE   H3S18399   3.783   6.432  10.214 -0.3400  2.2766  0.2999
  164SOPE   C2418400   3.639   6.465  10.042 -0.2927 -0.0113 -0.4944
  164SOPE   H4R18401   3.528   6.451  10.042 -0.2010 -0.8743  0.5907
  164SOPE   H4S18402   3.655   6.574  10.031  0.7126 -0.2648 -1.7719
  164SOPE   C2518403   3.725   6.383   9.940 -0.6150  0.7147 -0.0444
  164SOPE   H5R18404   3.831   6.415   9.943 -0.3549 -0.0993 -0.2010
  164SOPE   H5S18405   3.710   6.275   9.965  0.6733  0.5605  0.1179
  164SOPE   C2618406   3.681   6.408   9.793  0.0632  0.2591  0.2401
  164SOPE   H6R18407   3.571   6.403   9.789  0.0828  0.5144 -0.8744
  164SOPE   H6S18408   3.711   6.509   9.757  0.9478  0.0021  0.2188
  164SOPE   C2718409   3.731   6.300   9.694  0.4070 -0.8148  0.4634
  164SOPE   H7R18410   3.840   6.298   9.677  0.4954 -2.4840  0.9808
  164SOPE   H7S18411   3.692   6.206   9.739 -0.1879 -1.0417 -0.4770
  164SOPE   C2818412   3.664   6.310   9.553  0.7799 -0.1389 -0.4996
  164SOPE   H8R18413   3.672   6.211   9.504 -1.4785 -0.5457 -0.1571
  164SOPE   H8S18414   3.557   6.323   9.581  0.9273  2.0887 -0.8017
  164SOPE   C2918415   3.703   6.437   9.473 -0.4694 -0.0339  0.1498
  164SOPE   H9118416   3.682   6.531   9.526  0.7912  1.4621 -1.8503
  164SOPE  C21018417   3.739   6.426   9.338 -0.5366  0.6707 -0.2318
  164SOPE  H10118418   3.768   6.522   9.292 -0.3143  0.5812 -0.2786
  164SOPE  C21118419   3.749   6.297   9.257 -0.1014  0.1806 -0.3072
  164SOPE  H11R18420   3.657   6.239   9.274 -0.7059  2.0237  4.3732
  164SOPE  H11S18421   3.826   6.244   9.317 -0.1759  1.0912  0.6167
  164SOPE  C21218422   3.786   6.302   9.106 -0.0539  0.4406  0.2937
  164SOPE  H12R18423   3.697   6.342   9.052  0.8839  3.8963  1.0620
  164SOPE  H12S18424   3.796   6.196   9.075  0.0509  0.0219  1.7177
  164SOPE  C21318425   3.914   6.379   9.083 -0.1832  0.2620  0.0050
  164SOPE  H13R18426   3.999   6.313   9.111  0.3664 -0.3862 -2.8460
  164SOPE  H13S18427   3.915   6.468   9.149  2.2269  2.5521 -2.8660
  164SOPE  C21418428   3.932   6.411   8.933 -0.4009 -0.3013  0.1293
  164SOPE  H14R18429   3.980   6.511   8.929 -1.9072  0.5613  2.0327
  164SOPE  H14S18430   3.831   6.411   8.886 -0.2323 -0.9562 -0.2532
  164SOPE  C21518431   4.023   6.308   8.860 -0.3097 -0.0473  0.7155
  164SOPE  H15R18432   3.979   6.209   8.882 -2.1933  0.8269  1.0636
  164SOPE  H15S18433   4.121   6.310   8.912 -0.0684  0.0179  0.2612
  164SOPE  C21618434   4.049   6.329   8.707 -0.4805  0.1155 -0.1050
  164SOPE  H16R18435   4.074   6.436   8.694 -1.8198  0.5808  0.9333
  164SOPE  H16S18436   3.954   6.304   8.656  0.3723 -1.5857 -0.9491
  164SOPE  C21718437   4.150   6.241   8.628 -0.2788  0.4306 -0.6492
  164SOPE  H17R18438   4.130   6.134   8.651  0.5937  0.0505 -1.5944
  164SOPE  H17S18439   4.255   6.262   8.657 -0.6325  0.9567  0.3094
  164SOPE  C21818440   4.151   6.257   8.474  0.8043  0.4642  0.1468
  164SOPE  H18R18441   4.054   6.247   8.420  0.0540  1.9126  1.1697
  164SOPE  H18S18442   4.221   6.185   8.426  0.8063 -0.8806  2.0812
  164SOPE  H18T18443   4.181   6.360   8.443  0.5925  0.4094 -0.2508
  164SOPE   C3318444   3.014   6.339  10.138  0.3165 -0.4410 -0.0565
  164SOPE   H3X18445   3.029   6.232  10.113  1.0712  0.0909 -2.0593
  164SOPE   H3Y18446   3.083   6.404  10.080 -1.1795  1.4637  0.1937
  164SOPE   C3418447   2.872   6.389  10.105 -0.0066 -0.0076  0.5741
  164SOPE   H4X18448   2.860   6.490  10.149  1.1211  0.2062  0.4241
  164SOPE   H4Y18449   2.786   6.328  10.140  0.3385 -1.3230 -0.7940
  164SOPE   C3518450   2.846   6.405   9.953 -0.2013  0.1213  0.5963
  164SOPE   H5X18451   2.818   6.306   9.912  1.3943 -0.8088  1.6084
  164SOPE   H5Y18452   2.941   6.428   9.899 -1.1996  0.7243 -0.9604
  164SOPE   C3618453   2.746   6.521   9.916 -0.8011  0.5409  0.1534
  164SOPE   H6X18454   2.784   6.620   9.947  0.4812  0.5077 -1.1841
  164SOPE   H6Y18455   2.655   6.495   9.974  0.2222 -2.8953  0.4726
  164SOPE   C3718456   2.698   6.532   9.775  0.1288  0.1351 -0.1899
  164SOPE   H7X18457   2.616   6.605   9.761 -1.4009 -1.7726 -1.7232
  164SOPE   H7Y18458   2.641   6.441   9.748 -0.0302  0.1199  0.1868
  164SOPE   C3818459   2.812   6.568   9.684 -0.0069 -0.0817  0.7192
  164SOPE   H8X18460   2.888   6.489   9.668 -0.8846 -0.6435 -0.9959
  164SOPE   H8Y18461   2.872   6.651   9.725  2.0426 -1.0874 -0.0919
  164SOPE   C3918462   2.774   6.617   9.543  0.4211  1.0275  0.2299
  164SOPE   H9X18463   2.861   6.648   9.481 -0.6677 -0.6457 -2.3197
  164SOPE   H9Y18464   2.707   6.705   9.532  1.0201  1.3840 -0.6401
  164SOPE  C31018465   2.712   6.495   9.465  0.6532  0.0553 -0.7605
  164SOPE  H10X18466   2.605   6.481   9.494  1.1767  0.0064  1.3267
  164SOPE  H10Y18467   2.765   6.401   9.490 -2.0597 -1.9361 -1.9571
  164SOPE  C31118468   2.740   6.507   9.317 -0.3929 -0.0080  0.9144
  164SOPE  H11X18469   2.734   6.411   9.260 -0.7811  0.5683 -0.0500
  164SOPE  H11Y18470   2.849   6.529   9.306 -0.3543 -1.2584 -2.4061
  164SOPE  C31218471   2.671   6.616   9.246  0.2215  0.1800  0.3021
  164SOPE  H12X18472   2.691   6.716   9.289  1.9611 -0.0731  0.1508
  164SOPE  H12Y18473   2.564   6.586   9.258  1.1230 -3.2566  0.9958
  164SOPE  C31318474   2.697   6.618   9.098 -0.1218 -0.1176  0.4325
  164SOPE  H13X18475   2.616   6.679   9.052 -0.3228 -1.1619 -0.6543
  164SOPE  H13Y18476   2.695   6.511   9.066  0.9677 -0.1137  0.3178
  164SOPE  C31418477   2.841   6.669   9.066 -0.4556  0.1887 -0.2118
  164SOPE  H14X18478   2.908   6.626   9.143  1.1455  1.3324 -0.9206
  164SOPE  H14Y18479   2.849   6.777   9.089  1.6594 -0.3628  2.1156
  164SOPE  C31518480   2.877   6.627   8.922  0.0845  0.7574  0.0265
  164SOPE  H15X18481   2.815   6.687   8.852 -1.0620  0.7811  1.0181
  164SOPE  H15Y18482   2.872   6.519   8.895  3.0928  0.6233 -0.2893
  164SOPE  C31618483   3.024   6.652   8.907 -0.2301  0.3112  0.5716
  164SOPE  H16X18484   3.075   6.586   8.980 -2.7138 -1.3433  0.9425
  164SOPE  H16Y18485   3.048   6.758   8.930 -1.7170  1.7450 -3.5722
  164SOPE  C31718486   3.094   6.621   8.774 -0.5625  0.9236  0.2624
  164SOPE  H17X18487   3.120   6.516   8.745  0.8891  1.2918  0.1411
  164SOPE  H17Y18488   3.192   6.672   8.777 -0.4672  0.7825 -0.2501
  164SOPE  C31818489   3.020   6.668   8.650  0.3118  0.4886  0.1510
  164SOPE  H18X18490   2.939   6.598   8.623 -0.0091 -0.0348  2.2836
  164SOPE  H18Y18491   3.092   6.670   8.565 -0.2641 -2.9327 -0.5595
  164SOPE  H18Z18492   2.975   6.768   8.669  1.4293  0.8692  0.9327
  165SOPE     N18493   2.540   0.542  10.917  0.4461 -0.2263  0.0445
  165SOPE   HN118494   2.592   0.629  10.894  0.5947 -0.6700 -1.3778
  165SOPE   HN218495   2.453   0.568  10.969  1.5875  0.8570  1.5064
  165SOPE   HN318496   2.592   0.474  10.976 -0.4116 -0.4691  0.5425
  165SOPE   C1218497   2.492   0.487  10.785  0.0768 -0.2857 -0.3660
  165SOPE  H12A18498   2.446   0.573  10.733 -1.5907 -1.4699 -0.9317
  165SOPE  H12B18499   2.416   0.406  10.796 -0.2904  0.1445  0.3184
  165SOPE   C1118500   2.617   0.438  10.704 -0.1548  0.0264 -0.5972
  165SOPE  H11A18501   2.687   0.516  10.667  1.0635 -0.9206 -0.3858
  165SOPE  H11B18502   2.576   0.390  10.613  0.8633 -2.2811  0.0760
  165SOPE     P18503   2.658   0.199  10.821 -0.2708 -0.1396 -0.0603
  165SOPE   O1318504   2.552   0.208  10.925 -0.6266  0.1328 -0.3207
  165SOPE   O1418505   2.774   0.109  10.854  0.2969 -0.0717 -0.4118
  165SOPE   O1218506   2.696   0.344  10.781 -0.4492  0.0609  0.5555
  165SOPE   O1118507   2.599   0.139  10.685 -0.0188 -0.5397  0.4977
  165SOPE    C118508   2.696   0.122  10.574 -0.2308  0.6823  0.0511
  165SOPE    HA18509   2.802   0.124  10.606  0.0630 -1.9004 -0.4856
  165SOPE    HB18510   2.688   0.208  10.504  2.8441 -0.0497 -1.3649
  165SOPE    C218511   2.671  -0.002  10.493 -0.1168  0.4583  0.0012
  165SOPE    HS18512   2.679  -0.097  10.551  2.8952  0.1900 -0.6754
  165SOPE   O2118513   2.767  -0.033  10.385  0.0195 -0.1251 -0.1160
  165SOPE   C2118514   2.886  -0.067  10.427  0.4038 -0.1089  0.2068
  165SOPE   O2218515   2.925  -0.074  10.544  0.3727 -0.3008 -0.2249
  165SOPE   C2218516   2.974  -0.109  10.306 -0.8381  0.1373  0.1775
  165SOPE   H2R18517   2.920  -0.066  10.219  2.5626  0.5038 -1.8926
  165SOPE   H2S18518   2.976  -0.219  10.294  1.3461 -0.0046  1.4167
  165SOPE    C318519   2.526  -0.015  10.434 -0.5270  0.9035  0.5605
  165SOPE    HX18520   2.465   0.027  10.517 -1.2473  2.7046 -0.8118
  165SOPE    HY18521   2.505  -0.122  10.417  0.8915  0.7515 -0.3558
  165SOPE   O3118522   2.508   0.065  10.310 -0.4906 -0.4403 -0.3153
  165SOPE   C3118523   2.534  -0.000  10.199 -0.4488  0.3552 -0.5589
  165SOPE   O3218524   2.550  -0.120  10.183  0.2467 -0.3584  0.3493
  165SOPE   C3218525   2.530   0.101  10.083  0.1062  0.1591 -0.9333
  165SOPE   H2X18526   2.603   0.184  10.096 -1.0897  1.0917  0.0696
  165SOPE   H2Y18527   2.434   0.156  10.081 -0.0399 -0.0490  0.0175
  165SOPE   C2318528   3.116  -0.055  10.319  0.0243  0.1147 -0.6309
  165SOPE   H3R18529   3.160  -0.129  10.389  0.7140  0.2721 -0.8910
  165SOPE   H3S18530   3.118   0.047  10.365 -3.4115  0.9393 -1.9582
  165SOPE   C2418531   3.185  -0.046  10.183  0.1854  0.6047  0.3495
  165SOPE   H4R18532   3.112   0.012  10.122 -1.1209 -2.0109 -0.7493
  165SOPE   H4S18533   3.287  -0.007  10.203  0.4765  0.1215 -0.1791
  165SOPE   C2518534   3.203  -0.186  10.113  0.0125  0.0324 -0.4160
  165SOPE   H5R18535   3.235  -0.256  10.194  0.8095  0.3242 -0.4716
  165SOPE   H5S18536   3.101  -0.223  10.088 -1.3239  2.7862  0.6303
  165SOPE   C2618537   3.301  -0.181  10.003  0.5368  0.3157 -0.9309
  165SOPE   H6R18538   3.397  -0.139  10.040  0.9206 -1.7915  0.7178
  165SOPE   H6S18539   3.333  -0.286   9.985  2.4149  0.7795 -0.4590
  165SOPE   C2718540   3.253  -0.127   9.870  0.3139 -0.0364 -0.0359
  165SOPE   H7R18541   3.213  -0.024   9.878  2.6458  1.1315 -2.1401
  165SOPE   H7S18542   3.337  -0.097   9.804 -0.5586  2.4046 -0.1488
  165SOPE   C2818543   3.149  -0.209   9.795 -0.1073 -0.4837 -0.0073
  165SOPE   H8R18544   3.053  -0.205   9.850 -0.2367 -0.0775 -0.2600
  165SOPE   H8S18545   3.132  -0.151   9.702  1.9779 -0.3798 -0.3717
  165SOPE   C2918546   3.184  -0.352   9.751  0.0648  0.0517  0.7236
  165SOPE   H9118547   3.168  -0.427   9.829  2.3003 -0.9987  0.2359
  165SOPE  C21018548   3.218  -0.385   9.629 -0.7171  0.2636  0.6454
  165SOPE  H10118549   3.224  -0.491   9.600 -2.2359  0.4090 -0.2923
  165SOPE  C21118550   3.242  -0.286   9.517 -1.0155 -0.2090 -0.5697
  165SOPE  H11R18551   3.327  -0.223   9.549  0.7290 -1.9890 -1.4698
  165SOPE  H11S18552   3.152  -0.224   9.494 -0.4591  0.0330 -2.3096
  165SOPE  C21218553   3.291  -0.351   9.391  0.5751  0.0933  0.9373
  165SOPE  H12R18554   3.378  -0.419   9.392  0.2048 -0.5806 -2.0682
  165SOPE  H12S18555   3.317  -0.264   9.327  2.1327 -0.4833  0.7663
  165SOPE  C21318556   3.179  -0.419   9.314 -0.0037  0.3152  0.0551
  165SOPE  H13R18557   3.084  -0.362   9.322  0.1795  0.5078  0.9849
  165SOPE  H13S18558   3.149  -0.519   9.351 -0.3108 -0.2281 -1.5849
  165SOPE  C21418559   3.235  -0.443   9.175 -0.0872  0.9993 -0.0975
  165SOPE  H14R18560   3.325  -0.509   9.184  0.2352  1.5890  1.1909
  165SOPE  H14S18561   3.264  -0.359   9.109 -1.5261  2.1494  0.6923
  165SOPE  C21518562   3.124  -0.510   9.095  0.2311  0.1621 -0.0854
  165SOPE  H15R18563   3.040  -0.439   9.079  0.4764  0.2126 -1.1690
  165SOPE  H15S18564   3.078  -0.594   9.152 -0.9451 -1.4700 -3.2169
  165SOPE  C21618565   3.169  -0.564   8.956 -0.0928 -0.8118 -0.0068
  165SOPE  H16R18566   3.251  -0.636   8.974 -0.0302 -0.1427  2.8608
  165SOPE  H16S18567   3.221  -0.477   8.909  1.8824 -1.1145  1.4843
  165SOPE  C21718568   3.054  -0.615   8.868  0.5236  0.3630 -0.2032
  165SOPE  H17R18569   2.984  -0.531   8.854 -1.2068 -1.1930 -1.4589
  165SOPE  H17S18570   3.017  -0.701   8.927 -1.9589  1.4450 -0.0950
  165SOPE  C21818571   3.101  -0.672   8.732  0.0701 -0.4423  0.0374
  165SOPE  H18R18572   3.158  -0.765   8.714 -1.1150 -0.7560 -2.4730
  165SOPE  H18S18573   3.163  -0.594   8.684 -0.6996  0.6104  0.6935
  165SOPE  H18T18574   3.012  -0.689   8.667  0.5242 -1.1381 -0.4101
  165SOPE   C3318575   2.544   0.029   9.954  0.4200  0.1638 -0.1794
  165SOPE   H3X18576   2.471  -0.049   9.923  0.4895 -0.0965  0.2957
  165SOPE   H3Y18577   2.650  -0.005   9.953  1.4513  2.7341  2.9710
  165SOPE   C3418578   2.538   0.137   9.840  0.2453 -1.1077  0.5147
  165SOPE   H4X18579   2.625   0.205   9.848  0.5518 -1.4038 -0.2301
  165SOPE   H4Y18580   2.445   0.197   9.840  1.2097  0.4354 -0.3478
  165SOPE   C3518581   2.560   0.079   9.702 -0.1904  0.9988  0.1026
  165SOPE   H5X18582   2.474   0.010   9.687  1.0189 -0.6443  0.4603
  165SOPE   H5Y18583   2.646   0.009   9.698  0.4424  1.7282  0.5830
  165SOPE   C3618584   2.581   0.181   9.598 -0.3387 -0.0219  0.1723
  165SOPE   H6X18585   2.661   0.255   9.617 -2.7853  3.4523 -1.8875
  165SOPE   H6Y18586   2.487   0.240   9.593 -0.0800  0.3112 -1.0588
  165SOPE   C3718587   2.591   0.126   9.454 -0.4505  0.8209  0.5691
  165SOPE   H7X18588   2.508   0.060   9.422  1.1078 -0.3743 -1.2740
  165SOPE   H7Y18589   2.670   0.048   9.457  0.2385  1.5195  1.0747
  165SOPE   C3818590   2.619   0.230   9.342 -0.8587  0.2599  0.3794
  165SOPE   H8X18591   2.692   0.309   9.368 -0.9246  1.3473 -2.4324
  165SOPE   H8Y18592   2.529   0.291   9.321 -1.2495 -0.8470 -1.3468
  165SOPE   C3918593   2.647   0.163   9.212 -0.2374  0.1031  0.4384
  165SOPE   H9X18594   2.569   0.089   9.185  0.6493 -0.6265 -0.1670
  165SOPE   H9Y18595   2.749   0.122   9.224  0.1577  0.9930  0.1853
  165SOPE  C31018596   2.663   0.269   9.102 -0.0650  0.0272 -0.1697
  165SOPE  H10X18597   2.759   0.321   9.126 -1.1131  0.7413  3.0594
  165SOPE  H10Y18598   2.585   0.348   9.095 -0.2746  0.0614  1.8614
  165SOPE  C31118599   2.682   0.200   8.970  0.2605  0.7805  0.3373
  165SOPE  H11X18600   2.771   0.134   8.975 -0.2531 -0.0046 -0.4693
  165SOPE  H11Y18601   2.705   0.276   8.892 -1.1440  0.7021 -0.1910
  165SOPE  C31218602   2.558   0.116   8.925 -0.4173 -0.0150 -0.0664
  165SOPE  H12X18603   2.478   0.182   8.966  1.1834  3.2333 -1.7416
  165SOPE  H12Y18604   2.571   0.015   8.968 -0.3831  0.9716  2.4633
  165SOPE  C31318605   2.535   0.122   8.778 -0.3828  0.0509  0.3668
  165SOPE  H13X18606   2.492   0.219   8.746 -0.8249 -0.8912 -2.1821
  165SOPE  H13Y18607   2.452   0.049   8.764 -0.5868  0.3092  0.2336
  165SOPE  C31418608   2.665   0.086   8.693  0.5704 -0.0962  0.0624
  165SOPE  H14X18609   2.728   0.001   8.728 -0.3960 -0.9665 -0.2845
  165SOPE  H14Y18610   2.722   0.181   8.702 -2.2812  1.5886  2.4711
  165SOPE  C31518611   2.640   0.065   8.543  0.1401  0.0084 -0.2792
  165SOPE  H15X18612   2.738   0.054   8.490  0.8560 -2.2507  1.3570
  165SOPE  H15Y18613   2.585   0.151   8.499 -2.6655 -1.3764  0.3032
  165SOPE  C31618614   2.547  -0.052   8.510  0.3614  0.1289 -0.5025
  165SOPE  H16X18615   2.449  -0.035   8.559  0.7942  3.2120 -0.5247
  165SOPE  H16Y18616   2.593  -0.145   8.550  0.0970  0.3233  0.2780
  165SOPE  C31718617   2.518  -0.064   8.356 -0.2031 -0.0785 -0.5573
  165SOPE  H17X18618   2.485   0.031   8.308 -1.7350 -0.1712  0.2764
  165SOPE  H17Y18619   2.428  -0.129   8.350 -1.8456  1.7262  2.1842
  165SOPE  C31818620   2.631  -0.128   8.270  0.1208  0.1000  0.2764
  165SOPE  H18X18621   2.715  -0.058   8.248 -0.2023  1.1200  2.1170
  165SOPE  H18Y18622   2.588  -0.169   8.176  2.4003  1.6549 -1.5750
  165SOPE  H18Z18623   2.675  -0.210   8.331  1.2875 -1.2153 -2.1296
  166SOPE     N18624   6.317   6.326  10.642  0.0370  0.6217  0.0763
  166SOPE   HN118625   6.275   6.231  10.639  1.2627  0.0971 -1.5474
  166SOPE   HN218626   6.418   6.308  10.660  0.1617  1.8978  0.7450
  166SOPE   HN318627   6.276   6.386  10.716  0.8937  0.5537  0.6187
  166SOPE   C1218628   6.296   6.400  10.512  0.4888 -0.0110  0.1840
  166SOPE  H12A18629   6.287   6.320  10.435  1.0780 -1.3542  1.4799
  166SOPE  H12B18630   6.387   6.459  10.488 -0.0285  0.0712 -1.8227
  166SOPE   C1118631   6.174   6.487  10.524  0.5525 -0.6437 -0.3152
  166SOPE  H11A18632   6.090   6.419  10.548  1.4125 -2.0975 -1.2141
  166SOPE  H11B18633   6.142   6.544  10.433 -1.8734 -0.3928  0.6197
  166SOPE     P18634   6.240   6.721  10.654 -0.2076 -0.0746 -0.3207
  166SOPE   O1318635   6.355   6.726  10.754  0.7657 -0.3845 -0.0463
  166SOPE   O1418636   6.129   6.810  10.681  0.5150 -0.0187 -0.4248
  166SOPE   O1218637   6.182   6.572  10.636 -0.3893 -0.7588 -0.4112
  166SOPE   O1118638   6.306   6.749  10.514 -0.3184  0.2201 -0.2617
  166SOPE    C118639   6.334   6.884  10.473  0.3037  0.3492 -0.4064
  166SOPE    HA18640   6.347   6.954  10.559  1.0488 -1.1926  0.7866
  166SOPE    HB18641   6.244   6.915  10.416 -1.8696  0.0547  2.6373
  166SOPE    C218642   6.455   6.903  10.370  0.5662  0.4556  0.1346
  166SOPE    HS18643   6.478   7.012  10.369  1.8005  0.2075  0.1155
  166SOPE   O2118644   6.430   6.840  10.242 -0.2712 -0.1450  0.2668
  166SOPE   C2118645   6.374   6.927  10.152  0.3107 -0.6613 -0.5028
  166SOPE   O2218646   6.331   7.035  10.180  0.0092  0.0195  0.0374
  166SOPE   C2218647   6.365   6.859  10.015 -0.2767 -0.7425  0.3394
  166SOPE   H2R18648   6.269   6.803  10.008  0.4585 -1.8435 -1.4232
  166SOPE   H2S18649   6.453   6.792  10.003 -0.1157 -0.5800  0.5892
  166SOPE    C318650   6.580   6.825  10.418 -0.0268  0.1214 -0.8605
  166SOPE    HX18651   6.531   6.728  10.440 -0.8633  0.3712 -1.5910
  166SOPE    HY18652   6.612   6.875  10.512 -0.3274 -0.9848 -0.1502
  166SOPE   O3118653   6.691   6.818  10.330  0.2815 -0.8689  0.2090
  166SOPE   C3118654   6.709   6.706  10.271  0.0205  0.8678 -0.4327
  166SOPE   O3218655   6.651   6.600  10.302  0.0866 -0.0952 -0.2735
  166SOPE   C3218656   6.794   6.718  10.146 -0.3586 -0.6990  0.1204
  166SOPE   H2X18657   6.893   6.765  10.163 -1.6093  2.3418 -0.3462
  166SOPE   H2Y18658   6.730   6.786  10.085 -1.1960 -1.7068 -0.1597
  166SOPE   C2318659   6.372   6.971   9.905  0.0796  0.3798  0.2279
  166SOPE   H3R18660   6.462   7.036   9.911  0.1459  0.3140 -0.0545
  166SOPE   H3S18661   6.282   7.034   9.920 -0.6614 -0.5885 -0.0697
  166SOPE   C2418662   6.359   6.925   9.760 -0.2437 -0.2525 -0.3256
  166SOPE   H4R18663   6.295   6.834   9.754  0.8099 -1.1641  1.4861
  166SOPE   H4S18664   6.319   7.011   9.703  1.7187  0.7115 -0.3276
  166SOPE   C2518665   6.502   6.901   9.700 -0.2431  0.9513  0.3142
  166SOPE   H5R18666   6.559   6.994   9.720 -0.4423  1.0490  0.4390
  166SOPE   H5S18667   6.541   6.814   9.757  2.0379  0.0569 -2.4415
  166SOPE   C2618668   6.512   6.865   9.552  0.3972 -0.3955  0.2253
  166SOPE   H6R18669   6.447   6.780   9.523 -0.1606  0.5715 -1.5242
  166SOPE   H6S18670   6.461   6.945   9.494 -2.7118 -2.0365  0.4456
  166SOPE   C2718671   6.652   6.862   9.497 -0.0232 -0.7028 -0.4041
  166SOPE   H7R18672   6.646   6.829   9.392 -0.3239  0.7929 -0.8848
  166SOPE   H7S18673   6.695   6.965   9.502  1.7128 -1.4323  1.4926
  166SOPE   C2818674   6.745   6.764   9.577 -0.4091  0.2011 -0.2977
  166SOPE   H8R18675   6.851   6.783   9.549 -0.7684  2.5491 -0.2643
  166SOPE   H8S18676   6.744   6.792   9.684  0.9520  2.5143 -0.8203
  166SOPE   C2918677   6.691   6.625   9.572  0.3334 -0.5832  0.5941
  166SOPE   H9118678   6.623   6.605   9.656  1.3736 -1.5865  1.2249
  166SOPE  C21018679   6.713   6.524   9.484 -0.4857 -0.6517  0.3644
  166SOPE  H10118680   6.669   6.425   9.501 -1.8237 -0.1309 -0.0013
  166SOPE  C21118681   6.799   6.524   9.359  0.3101  0.0435 -0.4506
  166SOPE  H11R18682   6.873   6.442   9.360 -0.0455 -0.4053  3.5919
  166SOPE  H11S18683   6.851   6.622   9.347 -1.2517  1.0605  0.6784
  166SOPE  C21218684   6.711   6.498   9.236 -0.3906  0.0752  0.0688
  166SOPE  H12R18685   6.653   6.592   9.223 -1.5144 -0.4053  1.3268
  166SOPE  H12S18686   6.633   6.422   9.254 -0.0427 -0.0427  1.1853
  166SOPE  C21318687   6.801   6.468   9.112 -0.4583  0.0944 -0.4912
  166SOPE  H13R18688   6.887   6.538   9.119  0.0826 -0.4137 -1.8234
  166SOPE  H13S18689   6.735   6.486   9.025 -1.7694 -0.3344  0.3887
  166SOPE  C21418690   6.846   6.325   9.099  0.5599 -0.2469  0.2854
  166SOPE  H14R18691   6.766   6.254   9.128  1.0276 -1.8202 -2.0317
  166SOPE  H14S18692   6.926   6.310   9.176  0.2978 -0.1582  0.5776
  166SOPE  C21518693   6.879   6.282   8.949 -0.1783  0.1016 -0.6730
  166SOPE  H15R18694   6.919   6.179   8.957 -2.0604 -0.5092  4.8261
  166SOPE  H15S18695   6.959   6.343   8.903  0.1471  0.1403 -0.0529
  166SOPE  C21618696   6.769   6.293   8.845 -0.5120 -0.2744 -0.1543
  166SOPE  H16R18697   6.717   6.391   8.849 -0.1054 -0.0594 -0.0533
  166SOPE  H16S18698   6.692   6.218   8.873 -0.0152 -1.5883 -2.1517
  166SOPE  C21718699   6.826   6.256   8.706  0.0226  0.5178  0.4036
  166SOPE  H17R18700   6.918   6.314   8.686 -0.2730  1.0311  0.5098
  166SOPE  H17S18701   6.746   6.288   8.636 -0.0530  3.4629  1.6764
  166SOPE  C21818702   6.852   6.107   8.688  0.0312  0.2334 -0.1888
  166SOPE  H18R18703   6.757   6.064   8.650 -0.9278  2.8264 -0.9585
  166SOPE  H18S18704   6.880   6.066   8.788  1.3251 -0.6666 -0.8839
  166SOPE  H18T18705   6.934   6.092   8.615 -0.9568  1.3869 -1.5910
  166SOPE   C3318706   6.811   6.582  10.079 -0.0247  0.1992 -0.1660
  166SOPE   H3X18707   6.716   6.525  10.073 -0.0503  0.3165 -0.9883
  166SOPE   H3Y18708   6.875   6.526  10.151 -0.4759  0.7611  0.6886
  166SOPE   C3418709   6.865   6.584   9.932  0.5434  0.4143 -0.8006
  166SOPE   H4X18710   6.965   6.634   9.931  0.1384  1.2457 -2.5914
  166SOPE   H4Y18711   6.785   6.634   9.874 -1.8539 -1.7630  0.4435
  166SOPE   C3518712   6.887   6.439   9.878  1.0556  0.6136  0.8520
  166SOPE   H5X18713   6.792   6.411   9.828  0.5477  0.8338  1.6669
  166SOPE   H5Y18714   6.919   6.367   9.957  0.7818  1.3771  1.6771
  166SOPE   C3618715   6.987   6.419   9.767  0.9149  0.2028  0.7621
  166SOPE   H6X18716   7.091   6.429   9.806  0.5546  1.1565  1.5205
  166SOPE   H6Y18717   6.974   6.494   9.687 -0.1574  1.7364  2.2919
  166SOPE   C3718718   6.966   6.278   9.702  0.8605 -0.0838 -0.4906
  166SOPE   H7X18719   6.856   6.264   9.693  0.4128  2.3948  0.3087
  166SOPE   H7Y18720   6.994   6.199   9.775  2.6836 -1.6122 -2.7143
  166SOPE   C3818721   7.050   6.256   9.575 -0.5665 -0.4110 -1.2751
  166SOPE   H8X18722   7.155   6.270   9.608 -1.5797  0.4190  2.0792
  166SOPE   H8Y18723   7.036   6.340   9.503  3.2655  2.2868  0.7400
  166SOPE   C3918724   7.031   6.107   9.525  0.3427 -0.4507  0.2937
  166SOPE   H9X18725   6.925   6.081   9.504  0.2137 -0.8813  1.4049
  166SOPE   H9Y18726   7.075   6.029   9.590  3.0024 -0.0455 -0.9175
  166SOPE  C31018727   7.106   6.089   9.392 -0.1056 -0.5647  0.4706
  166SOPE  H10X18728   7.214   6.114   9.400  1.0139 -3.6562 -2.4905
  166SOPE  H10Y18729   7.064   6.155   9.313  1.0384  0.9679  1.0849
  166SOPE  C31118730   7.103   5.950   9.342  0.1998  0.4445 -0.2033
  166SOPE  H11X18731   7.025   5.882   9.382  1.8807 -0.8324  1.0642
  166SOPE  H11Y18732   7.200   5.901   9.369  0.0172 -1.1714 -2.2184
  166SOPE  C31218733   7.097   5.948   9.192  0.6644  0.0739 -0.3650
  166SOPE  H12X18734   7.161   6.029   9.150 -1.0543  2.3415  1.1503
  166SOPE  H12Y18735   6.998   5.974   9.151  1.4122  0.6210 -1.9213
  166SOPE  C31318736   7.162   5.819   9.131 -0.2637 -0.9202 -0.2336
  166SOPE  H13X18737   7.089   5.736   9.140 -1.3324 -0.1922 -1.7142
  166SOPE  H13Y18738   7.253   5.800   9.193 -1.5753 -0.0728  2.0950
  166SOPE  C31418739   7.193   5.839   8.981  0.3428 -0.4614  0.0953
  166SOPE  H14X18740   7.299   5.872   8.971 -0.0060  1.1436  1.2785
  166SOPE  H14Y18741   7.136   5.926   8.945  1.1628  1.3263  2.7866
  166SOPE  C31518742   7.173   5.714   8.894  0.1095  0.1321  0.4361
  166SOPE  H15X18743   7.067   5.681   8.898 -0.4643  1.9189  0.9377
  166SOPE  H15Y18744   7.229   5.629   8.938 -1.5783 -1.6720 -0.7227
  166SOPE  C31618745   7.215   5.740   8.750  0.0639 -0.1168 -0.1062
  166SOPE  H16X18746   7.203   5.642   8.700 -0.0825 -1.7426  2.8837
  166SOPE  H16Y18747   7.324   5.762   8.745  0.3410 -1.1576  0.8538
  166SOPE  C31718748   7.135   5.859   8.678  0.6696 -0.3193 -0.2987
  166SOPE  H17X18749   7.175   5.951   8.725 -2.2155  1.1236 -0.4336
  166SOPE  H17Y18750   7.025   5.856   8.694  0.7477  1.0555  0.7164
  166SOPE  C31818751   7.171   5.869   8.528 -0.2425  0.1495  0.6302
  166SOPE  H18X18752   7.115   5.960   8.496 -1.2715 -0.5256  0.4563
  166SOPE  H18Y18753   7.147   5.776   8.472  0.3543  1.2858 -1.6726
  166SOPE  H18Z18754   7.281   5.881   8.520 -0.0764 -1.0640  0.9866
  167SOPE     N18755   1.936   4.609   6.108 -0.2880 -0.8142  0.4536
  167SOPE   HN118756   1.976   4.544   6.178 -0.0697 -2.8732 -1.4472
  167SOPE   HN218757   2.004   4.606   6.029  0.3067  0.4565  0.8930
  167SOPE   HN318758   1.928   4.703   6.150 -0.7626 -0.4107 -0.5287
  167SOPE   C1218759   1.795   4.573   6.070 -0.4129 -0.7671  0.2627
  167SOPE  H12A18760   1.772   4.636   5.982 -0.0915 -1.7201 -0.5337
  167SOPE  H12B18761   1.732   4.597   6.158  2.9302 -0.4269  2.7911
  167SOPE   C1118762   1.778   4.424   6.029 -0.2122  0.3052 -0.1009
  167SOPE  H11A18763   1.835   4.406   5.936 -2.2607 -0.0665 -1.3295
  167SOPE  H11B18764   1.673   4.408   5.996  0.4745  0.2395 -2.4279
  167SOPE     P18765   1.805   4.189   6.129 -0.1024 -0.5746  0.3411
  167SOPE   O1318766   1.932   4.137   6.176 -0.3617  0.2564  0.9101
  167SOPE   O1418767   1.757   4.149   5.993 -0.2848 -1.2916 -0.0867
  167SOPE   O1218768   1.811   4.348   6.140  0.7533 -0.2589  0.4018
  167SOPE   O1118769   1.696   4.142   6.231 -0.3905 -0.8172 -0.3919
  167SOPE    C118770   1.586   4.226   6.273  0.0343 -0.0028 -0.5899
  167SOPE    HA18771   1.500   4.164   6.307  0.5833 -0.0620  0.7656
  167SOPE    HB18772   1.542   4.277   6.185  0.0427 -0.5962 -0.9426
  167SOPE    C218773   1.623   4.337   6.383 -0.1621 -0.3063 -0.6626
  167SOPE    HS18774   1.659   4.422   6.322  0.0025  0.3209  0.2965
  167SOPE   O2118775   1.728   4.299   6.473 -0.2351  0.0243  0.1094
  167SOPE   C2118776   1.700   4.193   6.551 -0.7061 -0.4014  0.1548
  167SOPE   O2218777   1.601   4.123   6.542  0.2992 -0.0308 -0.3783
  167SOPE   C2218778   1.810   4.174   6.654  0.2829 -0.6151  0.9650
  167SOPE   H2R18779   1.894   4.124   6.602 -1.4076 -0.8161 -1.8009
  167SOPE   H2S18780   1.778   4.090   6.719  1.0728 -0.8098  1.1155
  167SOPE    C318781   1.503   4.382   6.469  0.3944  0.4739 -1.5718
  167SOPE    HX18782   1.451   4.299   6.522  1.5727  0.1828 -0.8414
  167SOPE    HY18783   1.431   4.418   6.393  1.4929  2.2823 -1.8075
  167SOPE   O3118784   1.534   4.490   6.564  0.7198  0.4225 -0.5821
  167SOPE   C3118785   1.479   4.609   6.543 -0.0668 -0.4236 -0.4826
  167SOPE   O3218786   1.402   4.639   6.455 -0.3811 -0.5379 -0.1140
  167SOPE   C3218787   1.542   4.705   6.644 -0.8610 -0.1085 -0.1421
  167SOPE   H2X18788   1.462   4.724   6.718 -1.0681 -3.3794  0.6227
  167SOPE   H2Y18789   1.577   4.794   6.588 -3.9975  1.6198  0.4062
  167SOPE   C2318790   1.851   4.304   6.729  0.3608  0.4135  0.0532
  167SOPE   H3R18791   1.775   4.304   6.811  0.7098 -2.0618  0.4658
  167SOPE   H3S18792   1.843   4.388   6.657 -2.7073  1.1385  1.0595
  167SOPE   C2418793   1.992   4.309   6.791 -0.5695 -0.2998 -0.1880
  167SOPE   H4R18794   1.990   4.220   6.858  0.9994 -0.8635 -0.8542
  167SOPE   H4S18795   2.064   4.273   6.715  0.1241 -0.8168  0.6991
  167SOPE   C2518796   2.024   4.428   6.873  0.2825  0.1281 -0.1111
  167SOPE   H5R18797   2.124   4.423   6.922 -0.0114  0.3870  0.5222
  167SOPE   H5S18798   2.024   4.515   6.804 -0.6006 -2.5639 -3.8581
  167SOPE   C2618799   1.920   4.445   6.983  0.0309 -0.1957 -0.6458
  167SOPE   H6R18800   1.830   4.486   6.933  1.4979  0.4659 -2.8748
  167SOPE   H6S18801   1.893   4.344   7.022 -0.4981 -0.2167 -1.0621
  167SOPE   C2718802   1.976   4.546   7.085 -0.1874  0.1883  0.6305
  167SOPE   H7R18803   2.075   4.513   7.123  0.7684  2.7943  0.5648
  167SOPE   H7S18804   1.990   4.643   7.033  0.6124  0.1609  0.7838
  167SOPE   C2818805   1.864   4.568   7.186  0.1604  0.7232 -0.5416
  167SOPE   H8R18806   1.849   4.676   7.209 -1.5454  0.2573  0.7371
  167SOPE   H8S18807   1.770   4.540   7.134  0.0887 -0.9666  0.4446
  167SOPE   C2918808   1.862   4.478   7.305 -0.1950 -0.0896  0.2451
  167SOPE   H9118809   1.872   4.373   7.274  0.4470  0.2964 -0.9215
  167SOPE  C21018810   1.864   4.514   7.430 -0.2385 -0.6045 -0.8109
  167SOPE  H10118811   1.852   4.441   7.512  0.7135 -1.8987 -1.7917
  167SOPE  C21118812   1.868   4.656   7.488  0.5258  0.0868 -0.0462
  167SOPE  H11R18813   1.767   4.701   7.477  0.0437 -0.4198  1.8973
  167SOPE  H11S18814   1.935   4.717   7.423 -0.0603 -1.3277 -2.1042
  167SOPE  C21218815   1.888   4.674   7.647  0.1940  0.3255  0.3479
  167SOPE  H12R18816   1.824   4.595   7.693 -0.0640  1.2503  1.6309
  167SOPE  H12S18817   1.858   4.778   7.672 -0.0542  0.0351  1.2757
  167SOPE  C21318818   2.028   4.652   7.691 -0.7888  0.3567  0.3123
  167SOPE  H13R18819   2.096   4.736   7.665  0.2628 -0.8780 -1.1343
  167SOPE  H13S18820   2.073   4.559   7.649 -0.7521 -0.8898  2.8903
  167SOPE  C21418821   2.041   4.629   7.842  0.1298 -0.6608 -0.0724
  167SOPE  H14R18822   1.961   4.689   7.890 -0.7091 -1.4832 -0.4368
  167SOPE  H14S18823   2.143   4.656   7.878  0.0521  1.7715 -1.4423
  167SOPE  C21518824   2.014   4.485   7.886 -0.8671 -0.3266  0.2226
  167SOPE  H15R18825   2.063   4.407   7.825 -0.4380 -0.9268  1.3019
  167SOPE  H15S18826   1.904   4.470   7.883 -0.7104 -2.2653  2.0594
  167SOPE  C21618827   2.053   4.474   8.032  0.5378  0.1702 -0.2658
  167SOPE  H16R18828   2.010   4.563   8.082  1.3762  0.4120  0.0435
  167SOPE  H16S18829   2.163   4.479   8.044  0.4356 -0.5408  1.0820
  167SOPE  C21718830   1.974   4.353   8.099 -0.9003 -0.7187 -0.3898
  167SOPE  H17R18831   1.870   4.349   8.061 -0.0725 -0.9081 -2.8193
  167SOPE  H17S18832   1.970   4.377   8.207  0.5930 -1.2979 -0.1768
  167SOPE  C21818833   2.034   4.215   8.077 -0.1043 -0.6476  0.0656
  167SOPE  H18R18834   2.049   4.196   7.968 -0.8591  1.5912 -0.4862
  167SOPE  H18S18835   1.952   4.145   8.107 -1.8028  0.3231 -1.9936
  167SOPE  H18T18836   2.130   4.200   8.130  0.9555 -0.8464 -1.8308
  167SOPE   C3318837   1.654   4.642   6.735 -0.1991 -0.0258 -0.8812
  167SOPE   H3X18838   1.729   4.605   6.662  2.3306  0.9112  1.0852
  167SOPE   H3Y18839   1.620   4.559   6.800 -0.2421  0.5769 -0.1165
  167SOPE   C3418840   1.712   4.753   6.823 -0.2256 -0.4870  0.4370
  167SOPE   H4X18841   1.727   4.838   6.754 -1.4452  0.5330  1.3730
  167SOPE   H4Y18842   1.808   4.725   6.870 -1.0358  0.0636  2.5483
  167SOPE   C3518843   1.613   4.808   6.933  0.3931  0.2097 -0.0812
  167SOPE   H5X18844   1.560   4.722   6.980  2.5395 -0.6165  0.9802
  167SOPE   H5Y18845   1.536   4.871   6.884 -1.7703  0.7214  3.6309
  167SOPE   C3618846   1.682   4.890   7.052  0.8329 -0.1039 -0.1422
  167SOPE   H6X18847   1.723   4.985   7.013  1.8854  0.0379  1.2305
  167SOPE   H6Y18848   1.758   4.822   7.096  0.6130 -1.0312 -1.1518
  167SOPE   C3718849   1.584   4.918   7.168 -0.0682 -0.4972  0.2014
  167SOPE   H7X18850   1.520   4.829   7.186  2.1665 -2.2857 -0.2927
  167SOPE   H7Y18851   1.528   5.011   7.144  2.0493  0.8584  0.2382
  167SOPE   C3818852   1.654   4.940   7.303  0.4188  0.5313 -0.0272
  167SOPE   H8X18853   1.731   5.020   7.294 -1.5990  2.8386  1.7210
  167SOPE   H8Y18854   1.706   4.845   7.328  0.7077  1.0298  1.4174
  167SOPE   C3918855   1.562   4.989   7.426  0.1585  0.6514 -0.5061
  167SOPE   H9X18856   1.503   5.077   7.394 -0.8869 -0.4178 -1.5992
  167SOPE   H9Y18857   1.634   5.013   7.507 -1.0177  1.2156  0.3947
  167SOPE  C31018858   1.457   4.882   7.471 -0.5103  1.3286  0.5854
  167SOPE  H10X18859   1.502   4.781   7.475  0.1029  1.5994  0.5737
  167SOPE  H10Y18860   1.393   4.868   7.380  0.6784  0.3224 -0.1205
  167SOPE  C31118861   1.379   4.917   7.595 -0.1381 -0.7313 -0.0460
  167SOPE  H11X18862   1.298   4.844   7.612  0.4834 -1.4408 -0.0998
  167SOPE  H11Y18863   1.326   5.014   7.582  0.4488 -0.7027 -2.7454
  167SOPE  C31218864   1.458   4.942   7.725 -0.3550  0.7279 -0.4081
  167SOPE  H12X18865   1.384   4.973   7.802  0.1010 -0.2070  0.4235
  167SOPE  H12Y18866   1.526   5.030   7.721 -0.5436  1.1159  2.4471
  167SOPE  C31318867   1.551   4.821   7.764  0.2099 -0.4082  0.9490
  167SOPE  H13X18868   1.644   4.844   7.707 -0.7144  0.4315 -0.2727
  167SOPE  H13Y18869   1.507   4.728   7.723 -0.0449 -1.0039  2.5118
  167SOPE  C31418870   1.571   4.808   7.913  0.5554  0.0411  0.1924
  167SOPE  H14X18871   1.556   4.898   7.976 -1.8038 -0.3900  0.3575
  167SOPE  H14Y18872   1.663   4.751   7.939 -0.8137 -2.2358  0.2843
  167SOPE  C31518873   1.460   4.716   7.978 -0.3067  0.4108 -0.0376
  167SOPE  H15X18874   1.441   4.624   7.919 -2.7018 -1.1043  2.8492
  167SOPE  H15Y18875   1.361   4.763   7.994 -0.5524 -0.0997 -0.0281
  167SOPE  C31618876   1.503   4.659   8.116  0.3195 -0.0604  0.2813
  167SOPE  H16X18877   1.530   4.741   8.186  0.5897  0.4287 -0.3850
  167SOPE  H16Y18878   1.589   4.588   8.111 -0.2774 -0.7803  0.0638
  167SOPE  C31718879   1.398   4.580   8.199 -0.2541  0.1094 -0.8250
  167SOPE  H17X18880   1.390   4.481   8.148  0.2142 -0.2309 -0.2552
  167SOPE  H17Y18881   1.291   4.610   8.192 -1.4336 -3.5034 -0.3929
  167SOPE  C31818882   1.434   4.569   8.341 -0.1743  0.2589 -0.4446
  167SOPE  H18X18883   1.445   4.661   8.402 -0.7455 -1.3016  2.1417
  167SOPE  H18Y18884   1.530   4.512   8.346  0.5645  1.5907  2.2163
  167SOPE  H18Z18885   1.371   4.494   8.392  0.9906 -1.1199 -0.9302
  168SOPE     N18886   1.612   2.300   6.045  0.0598  0.2711  0.5263
  168SOPE   HN118887   1.532   2.362   6.073 -0.6945 -1.1870  1.7600
  168SOPE   HN218888   1.569   2.222   5.992 -0.8773  0.6928  0.6413
  168SOPE   HN318889   1.665   2.275   6.131  1.0791  1.8746  0.4148
  168SOPE   C1218890   1.717   2.362   5.958 -0.4687 -0.2543 -0.3192
  168SOPE  H12A18891   1.677   2.422   5.873  3.1720 -1.7116 -3.3611
  168SOPE  H12B18892   1.779   2.280   5.915  1.4042  0.0256  1.6571
  168SOPE   C1118893   1.807   2.452   6.046 -0.2497  0.1023  0.8107
  168SOPE  H11A18894   1.743   2.540   6.069 -1.2025 -0.4940  0.4801
  168SOPE  H11B18895   1.888   2.490   5.980 -2.0287 -0.2526 -1.7388
  168SOPE     P18896   1.978   2.310   6.184 -0.3472 -0.2139  0.0662
  168SOPE   O1318897   2.089   2.413   6.193  0.9611  0.1153  0.3675
  168SOPE   O1418898   1.998   2.199   6.084  0.1595 -0.1633 -0.1883
  168SOPE   O1218899   1.850   2.387   6.164  0.6908 -0.4757 -0.4490
  168SOPE   O1118900   1.961   2.249   6.334 -0.1132 -0.1572  0.7385
  168SOPE    C118901   1.846   2.178   6.374 -0.3493  0.4985  0.2817
  168SOPE    HA18902   1.780   2.148   6.290  1.2139 -0.4292 -0.6883
  168SOPE    HB18903   1.784   2.246   6.436 -2.1269 -1.4667  0.7597
  168SOPE    C218904   1.869   2.048   6.454 -1.1314  0.3414  0.2904
  168SOPE    HS18905   1.793   1.970   6.434  1.1935 -1.9862 -0.1344
  168SOPE   O2118906   1.896   2.076   6.599 -0.2559  0.3850  0.7738
  168SOPE   C2118907   1.821   2.002   6.679  0.4529 -0.2044 -0.0401
  168SOPE   O2218908   1.772   1.895   6.658 -0.0891  0.4767  0.0565
  168SOPE   C2218909   1.809   2.064   6.818  0.2979 -0.2294  0.3765
  168SOPE   H2R18910   1.771   2.168   6.814 -2.1314 -1.0436  0.6016
  168SOPE   H2S18911   1.916   2.080   6.845 -0.1270  3.3588  0.3119
  168SOPE    C318912   1.997   1.980   6.390 -0.3654  0.3778  0.0430
  168SOPE    HX18913   2.089   2.041   6.403  0.9677 -1.7146  0.9607
  168SOPE    HY18914   1.986   1.965   6.281  0.5526  0.5910 -0.0848
  168SOPE   O3118915   2.018   1.846   6.451  0.0645  0.2478  0.2116
  168SOPE   C3118916   1.927   1.753   6.425  0.1562  0.5865 -0.3126
  168SOPE   O3218917   1.851   1.761   6.333 -0.0762 -0.4023  0.5599
  168SOPE   C3218918   1.938   1.648   6.534  0.3560  0.0299  0.4511
  168SOPE   H2X18919   1.976   1.706   6.621  1.5079  0.9681 -0.6476
  168SOPE   H2Y18920   2.025   1.582   6.512  1.6137  1.2452  1.6285
  168SOPE   C2318921   1.742   1.984   6.936  0.8206 -0.5338  0.7266
  168SOPE   H3R18922   1.788   1.883   6.939  0.1132 -0.8631  0.7150
  168SOPE   H3S18923   1.639   1.963   6.902  1.1797 -0.6390 -0.3596
  168SOPE   C2418924   1.736   2.063   7.063 -0.5679  0.3210  0.2895
  168SOPE   H4R18925   1.843   2.078   7.090 -0.0642 -0.6364 -1.0519
  168SOPE   H4S18926   1.680   2.159   7.057  0.0329  0.6761  0.2297
  168SOPE   C2518927   1.681   1.980   7.180  0.6502  0.5513  0.3429
  168SOPE   H5R18928   1.577   1.965   7.144  1.9401 -0.4784 -3.3700
  168SOPE   H5S18929   1.739   1.886   7.179  1.0979  0.8279 -0.0626
  168SOPE   C2618930   1.690   2.059   7.309 -0.1821  0.1912  0.0950
  168SOPE   H6R18931   1.788   2.104   7.337 -0.1603  0.6666 -0.7209
  168SOPE   H6S18932   1.614   2.139   7.295 -0.3942  0.2482  1.4708
  168SOPE   C2718933   1.648   1.992   7.439  0.1402  0.3475  0.4763
  168SOPE   H7R18934   1.560   1.925   7.431  1.4236 -1.4148  0.5584
  168SOPE   H7S18935   1.727   1.933   7.489 -1.5426 -0.3672  2.4566
  168SOPE   C2818936   1.609   2.103   7.543 -0.6116  0.5899 -0.5170
  168SOPE   H8R18937   1.702   2.161   7.563  0.5891 -1.8098  1.3740
  168SOPE   H8S18938   1.523   2.163   7.507 -1.8270 -0.2594  0.8843
  168SOPE   C2918939   1.567   2.030   7.668 -0.0701  0.5155  0.5463
  168SOPE   H9118940   1.461   2.005   7.680 -0.3910  2.5248  2.3281
  168SOPE  C21018941   1.638   2.006   7.778 -0.8193  0.1631 -0.0227
  168SOPE  H10118942   1.598   1.935   7.852 -0.9315  0.1621 -0.0850
  168SOPE  C21118943   1.784   2.039   7.794 -0.1205 -0.2061 -0.4793
  168SOPE  H11R18944   1.833   2.077   7.702 -1.4941 -3.1303 -2.5554
  168SOPE  H11S18945   1.845   1.954   7.832  1.3530  1.5160  1.2130
  168SOPE  C21218946   1.796   2.142   7.908 -0.0237 -0.3423  0.1932
  168SOPE  H12R18947   1.728   2.228   7.892  0.2368  0.0835  1.2594
  168SOPE  H12S18948   1.899   2.183   7.912  0.3163 -1.0433 -0.9258
  168SOPE  C21318949   1.760   2.089   8.047  0.4719 -0.1611 -1.0180
  168SOPE  H13R18950   1.830   2.009   8.081  1.3322  0.3585 -1.5215
  168SOPE  H13S18951   1.658   2.046   8.055  0.6712 -0.3694  0.9726
  168SOPE  C21418952   1.764   2.201   8.155 -0.5323  0.5322 -0.4729
  168SOPE  H14R18953   1.690   2.273   8.116 -0.0850  0.3979 -1.6259
  168SOPE  H14S18954   1.868   2.241   8.156  0.2754 -1.3845 -1.5583
  168SOPE  C21518955   1.751   2.149   8.302  0.4115  0.4479  0.3211
  168SOPE  H15R18956   1.846   2.103   8.337 -0.5662 -1.4657  0.5975
  168SOPE  H15S18957   1.678   2.065   8.303 -0.6546  1.2525 -1.9312
  168SOPE  C21618958   1.707   2.251   8.404 -0.0779 -0.6302 -0.4722
  168SOPE  H16R18959   1.617   2.296   8.357 -1.2074 -0.7593  1.4578
  168SOPE  H16S18960   1.784   2.331   8.416  0.8366 -1.4144 -0.9273
  168SOPE  C21718961   1.695   2.200   8.546 -0.2684 -0.0859 -0.1691
  168SOPE  H17R18962   1.676   2.280   8.621  0.1905 -0.5542  0.4601
  168SOPE  H17S18963   1.792   2.149   8.564 -0.1333 -0.2712 -1.3325
  168SOPE  C21818964   1.583   2.091   8.546  0.5627 -0.5754  0.0049
  168SOPE  H18R18965   1.617   1.988   8.521  0.3960 -0.6480  0.0803
  168SOPE  H18S18966   1.510   2.122   8.468 -0.1955 -0.1356  0.8717
  168SOPE  H18T18967   1.537   2.074   8.645  1.6954 -1.1881  0.4491
  168SOPE   C3318968   1.802   1.581   6.556 -0.2500  0.6434 -0.4543
  168SOPE   H3X18969   1.774   1.512   6.473  0.3366 -0.0935 -0.0513
  168SOPE   H3Y18970   1.722   1.658   6.555 -1.9033 -0.9817 -1.4776
  168SOPE   C3418971   1.805   1.492   6.683 -0.4640  0.4075  0.4395
  168SOPE   H4X18972   1.909   1.456   6.675  0.5201  3.2405 -1.2319
  168SOPE   H4Y18973   1.734   1.408   6.666 -1.4666  1.1568  0.7712
  168SOPE   C3518974   1.765   1.566   6.805 -0.0219 -0.3673  0.9734
  168SOPE   H5X18975   1.663   1.607   6.822  0.0905  0.0534  0.6587
  168SOPE   H5Y18976   1.824   1.661   6.804 -0.2404 -0.2148  1.7880
  168SOPE   C3618977   1.810   1.487   6.934 -0.4240 -0.6708  0.6546
  168SOPE   H6X18978   1.916   1.457   6.921 -0.4548 -0.4849 -0.0294
  168SOPE   H6Y18979   1.753   1.394   6.955  0.7867 -1.0918  2.3000
  168SOPE   C3718980   1.783   1.580   7.059  0.4182 -0.0520 -0.0090
  168SOPE   H7X18981   1.675   1.601   7.074 -0.0620 -1.3411 -1.4130
  168SOPE   H7Y18982   1.827   1.682   7.049 -3.1483  1.5461 -1.0313
  168SOPE   C3818983   1.834   1.505   7.181 -0.4246  0.3734 -0.0782
  168SOPE   H8X18984   1.942   1.481   7.170 -0.4491 -0.4894  1.2533
  168SOPE   H8Y18985   1.781   1.407   7.192  0.8261 -0.4338 -0.9906
  168SOPE   C3918986   1.816   1.588   7.310 -0.1104 -0.4465  0.4852
  168SOPE   H9X18987   1.714   1.631   7.314 -0.4703 -1.0100 -1.5732
  168SOPE   H9Y18988   1.888   1.671   7.293  1.2805 -1.9322 -1.4119
  168SOPE  C31018989   1.817   1.501   7.437  0.2927  0.3031  0.6820
  168SOPE  H10X18990   1.899   1.426   7.449 -1.5955 -1.8915  0.5696
  168SOPE  H10Y18991   1.728   1.435   7.434  1.1487 -0.8662 -2.1429
  168SOPE  C31118992   1.805   1.587   7.562  0.1010 -0.7270  0.0805
  168SOPE  H11X18993   1.708   1.640   7.558  0.9687  0.8712 -3.0498
  168SOPE  H11Y18994   1.879   1.670   7.564 -0.7725  0.0773 -0.3705
  168SOPE  C31218995   1.827   1.518   7.689 -0.5936  0.5027 -0.2244
  168SOPE  H12X18996   1.928   1.471   7.683 -0.8742 -0.2925  0.8800
  168SOPE  H12Y18997   1.759   1.432   7.706  1.1623 -0.7180  0.9752
  168SOPE  C31318998   1.827   1.619   7.808 -0.2324  0.6824 -0.3335
  168SOPE  H13X18999   1.748   1.697   7.794 -0.1126  0.7102 -0.8791
  168SOPE  H13Y19000   1.920   1.679   7.797 -2.1591  3.8743 -0.6331
  168SOPE  C31419001   1.817   1.543   7.942 -1.0079  0.1298  0.4392
  168SOPE  H14X19002   1.891   1.459   7.944 -1.5060 -0.3132  0.4135
  168SOPE  H14Y19003   1.716   1.496   7.946 -0.1441 -2.0516 -1.2437
  168SOPE  C31519004   1.846   1.645   8.056  0.7825  0.0695 -0.2490
  168SOPE  H15X19005   1.779   1.733   8.044 -0.9325 -1.4381 -2.7240
  168SOPE  H15Y19006   1.954   1.670   8.062  1.6392 -3.4360  2.6187
  168SOPE  C31619007   1.798   1.595   8.197 -0.0631  0.5878  0.7942
  168SOPE  H16X19008   1.831   1.489   8.194 -0.7390  0.3588 -2.9550
  168SOPE  H16Y19009   1.687   1.604   8.201 -0.3640  1.1815 -3.8666
  168SOPE  C31719010   1.846   1.697   8.298 -0.5309  0.5329  0.1816
  168SOPE  H17X19011   1.933   1.762   8.276 -0.6211  1.0541  1.3170
  168SOPE  H17Y19012   1.864   1.650   8.397 -1.5705  1.2693  0.7270
  168SOPE  C31819013   1.735   1.799   8.349 -0.4208  0.3370  0.3323
  168SOPE  H18X19014   1.704   1.857   8.260  2.3214  1.5599  0.0774
  168SOPE  H18Y19015   1.784   1.870   8.418 -0.4702  1.0883 -0.3865
  168SOPE  H18Z19016   1.657   1.740   8.402  0.0828 -1.7921 -1.1265
  169SOPE     N19017   5.829   5.069   6.510 -0.1511 -0.1455  0.4357
  169SOPE   HN119018   5.912   5.026   6.464  0.3178  1.3655 -0.1595
  169SOPE   HN219019   5.780   4.989   6.555  0.4574 -2.3723 -2.5337
  169SOPE   HN319020   5.774   5.118   6.437 -0.2309  1.9233  1.8092
  169SOPE   C1219021   5.862   5.173   6.612 -0.2308  0.4355  1.1310
  169SOPE  H12A19022   5.965   5.203   6.583 -0.9368  0.6044 -1.5119
  169SOPE  H12B19023   5.852   5.135   6.716 -0.5185 -0.5913  0.7394
  169SOPE   C1119024   5.773   5.291   6.597 -0.8447 -0.2811 -0.7245
  169SOPE  H11A19025   5.805   5.367   6.672 -0.3121  2.9226 -3.8804
  169SOPE  H11B19026   5.670   5.255   6.613 -0.6582 -1.9041 -2.7359
  169SOPE     P19027   5.700   5.463   6.407  0.2333 -0.1976  0.2943
  169SOPE   O1319028   5.648   5.415   6.274  0.0437  0.2277 -0.4875
  169SOPE   O1419029   5.781   5.584   6.411  0.2254  0.1048  0.0211
  169SOPE   O1219030   5.791   5.352   6.466 -0.8043  0.1225  0.1376
  169SOPE   O1119031   5.581   5.478   6.509  0.1956  0.2697  0.0622
  169SOPE    C119032   5.596   5.567   6.623 -0.1935  0.4626 -0.0377
  169SOPE    HA19033   5.602   5.672   6.588 -0.2172  0.3764 -0.3032
  169SOPE    HB19034   5.697   5.553   6.669  0.5270 -1.9677 -2.1064
  169SOPE    C219035   5.466   5.579   6.705  0.1526  0.0692  0.4770
  169SOPE    HS19036   5.380   5.596   6.637  1.5101 -0.3046 -1.4460
  169SOPE   O2119037   5.492   5.680   6.808  0.5271  0.0553  0.1241
  169SOPE   C2119038   5.393   5.762   6.850  0.2285 -0.7157 -0.6296
  169SOPE   O2219039   5.274   5.750   6.822 -0.5994  0.2415  0.0187
  169SOPE   C2219040   5.458   5.864   6.943 -0.1033  0.2245 -0.0059
  169SOPE   H2R19041   5.470   5.953   6.877  0.7703  0.0274 -0.1123
  169SOPE   H2S19042   5.559   5.836   6.979 -0.6681  0.1792  1.6640
  169SOPE    C319043   5.440   5.457   6.787 -0.7427  0.5013  0.9469
  169SOPE    HX19044   5.523   5.448   6.860  0.0636 -1.2554 -0.1080
  169SOPE    HY19045   5.445   5.374   6.714 -0.0138  0.6193  0.8590
  169SOPE   O3119046   5.321   5.459   6.851  0.1021 -0.0595  0.2737
  169SOPE   C3119047   5.270   5.356   6.904 -0.3087  0.1147  0.4846
  169SOPE   O3219048   5.323   5.244   6.908 -0.2190 -0.1218 -0.4746
  169SOPE   C3219049   5.133   5.374   6.960  0.3716  0.5845 -0.6530
  169SOPE   H2X19050   5.132   5.364   7.070  0.6425  2.1848 -0.4736
  169SOPE   H2Y19051   5.055   5.312   6.911  1.5468  0.0609 -1.9251
  169SOPE   C2319052   5.367   5.922   7.059  0.5401 -0.1392  0.1682
  169SOPE   H3R19053   5.279   5.960   7.002 -0.0839  0.8179  1.7004
  169SOPE   H3S19054   5.409   6.013   7.106 -0.7505  0.9668 -0.7290
  169SOPE   C2419055   5.319   5.820   7.170 -0.7300 -0.8269  0.5971
  169SOPE   H4R19056   5.263   5.880   7.245 -0.4175  0.2075  0.0234
  169SOPE   H4S19057   5.255   5.743   7.122  0.4457 -1.7102  0.3971
  169SOPE   C2519058   5.438   5.753   7.238 -0.2162 -0.0580 -0.3066
  169SOPE   H5R19059   5.514   5.718   7.165  0.0157  1.3835 -0.7800
  169SOPE   H5S19060   5.488   5.832   7.298 -2.6610 -0.6356  2.7509
  169SOPE   C2619061   5.387   5.653   7.345 -0.0907 -0.0850 -0.0379
  169SOPE   H6R19062   5.457   5.659   7.432 -0.8654  0.0511  0.5863
  169SOPE   H6S19063   5.294   5.708   7.368  0.6909  1.4058 -0.3224
  169SOPE   C2719064   5.377   5.514   7.282 -0.1182  0.2736  0.4349
  169SOPE   H7R19065   5.304   5.525   7.199  2.2739  0.8993 -1.7261
  169SOPE   H7S19066   5.473   5.489   7.232 -0.1448 -1.1993  1.0777
  169SOPE   C2819067   5.345   5.401   7.378  0.1042  0.0290 -0.0254
  169SOPE   H8R19068   5.412   5.413   7.466 -1.8925  1.5366  1.3600
  169SOPE   H8S19069   5.244   5.426   7.416  0.3359 -0.2130  0.7657
  169SOPE   C2919070   5.336   5.265   7.324  0.2360 -0.0498  0.1390
  169SOPE   H9119071   5.265   5.256   7.240  0.8233  1.3794 -0.5369
  169SOPE  C21019072   5.385   5.149   7.386 -0.1970 -0.3015  0.2412
  169SOPE  H10119073   5.351   5.054   7.343  0.6081 -1.1406  1.3995
  169SOPE  C21119074   5.465   5.140   7.512  0.5848  0.7122 -0.4850
  169SOPE  H11R19075   5.472   5.235   7.569  0.6962  2.2879 -2.9981
  169SOPE  H11S19076   5.568   5.108   7.482  0.5597 -1.7359  1.6353
  169SOPE  C21219077   5.424   5.019   7.605 -0.5411 -1.0644 -0.4940
  169SOPE  H12R19078   5.396   4.931   7.543  1.2180  0.0057 -2.9783
  169SOPE  H12S19079   5.331   5.058   7.652  0.1866  0.3764 -0.2153
  169SOPE  C21319080   5.527   4.996   7.719 -0.2684 -0.9295  0.5094
  169SOPE  H13R19081   5.559   5.097   7.755 -0.5848 -0.1264 -1.3512
  169SOPE  H13S19082   5.606   4.938   7.667 -1.8578 -1.8762 -0.9582
  169SOPE  C21419083   5.461   4.914   7.827 -0.6277  0.0366  0.6837
  169SOPE  H14R19084   5.449   4.808   7.796 -1.7087  0.6934 -1.2921
  169SOPE  H14S19085   5.358   4.952   7.847 -1.4748 -1.2216 -1.0335
  169SOPE  C21519086   5.553   4.908   7.955 -0.1615 -0.2348  0.2814
  169SOPE  H15R19087   5.491   4.856   8.031  2.4856 -2.2525  1.2324
  169SOPE  H15S19088   5.580   5.009   7.993  0.5250  0.1722 -1.1872
  169SOPE  C21619089   5.684   4.825   7.934  0.0725  0.2601  1.3317
  169SOPE  H16R19090   5.722   4.851   7.833 -0.3782  0.5916  1.2463
  169SOPE  H16S19091   5.668   4.715   7.945 -1.5129  0.4090  0.8376
  169SOPE  C21719092   5.797   4.874   8.027 -0.1447 -0.4608  0.0793
  169SOPE  H17R19093   5.818   4.969   7.973 -1.2386 -1.3304 -2.0125
  169SOPE  H17S19094   5.881   4.802   8.026 -0.5878 -1.0008  0.8535
  169SOPE  C21819095   5.759   4.901   8.174 -0.1727 -0.1455 -0.7359
  169SOPE  H18R19096   5.659   4.948   8.181 -0.0608  0.3961 -2.3665
  169SOPE  H18S19097   5.834   4.967   8.225 -0.2845  0.5732 -1.4866
  169SOPE  H18T19098   5.763   4.806   8.232  2.7204  1.0899  1.3753
  169SOPE   C3319099   5.085   5.517   6.932  0.0328 -0.5211  0.2441
  169SOPE   H3X19100   5.096   5.532   6.823 -2.4790 -2.0389 -0.3173
  169SOPE   H3Y19101   5.149   5.590   6.985 -1.0261 -0.3594  1.3617
  169SOPE   C3419102   4.930   5.549   6.954  0.1930 -0.1699 -0.4369
  169SOPE   H4X19103   4.867   5.471   6.907  0.6091  0.2687 -1.7656
  169SOPE   H4Y19104   4.911   5.649   6.910 -0.7019  1.0280  2.4505
  169SOPE   C3519105   4.904   5.557   7.107  0.8130  0.1293 -0.1639
  169SOPE   H5X19106   4.946   5.469   7.161 -0.6791 -0.7336 -0.3530
  169SOPE   H5Y19107   4.795   5.544   7.124  0.4423  2.6016 -0.2813
  169SOPE   C3619108   4.949   5.687   7.179 -0.5392 -0.0187  0.4884
  169SOPE   H6X19109   4.906   5.763   7.110  0.8070 -2.0418 -2.8372
  169SOPE   H6Y19110   5.060   5.690   7.179 -0.5600  1.9419  0.1723
  169SOPE   C3719111   4.903   5.682   7.325 -0.4399 -0.4534  0.0025
  169SOPE   H7X19112   4.911   5.579   7.367 -0.9351 -0.7162 -0.5477
  169SOPE   H7Y19113   4.797   5.712   7.338 -0.8333 -0.6704 -2.2733
  169SOPE   C3819114   4.987   5.786   7.409  0.3419 -0.1931 -0.0254
  169SOPE   H8X19115   5.093   5.756   7.396 -0.2189 -1.8146 -1.2765
  169SOPE   H8Y19116   4.969   5.884   7.361 -0.1144 -1.0762 -1.7366
  169SOPE   C3919117   4.935   5.792   7.561 -0.1340  0.0264  0.4787
  169SOPE   H9X19118   4.964   5.695   7.609 -0.1222  0.6542  1.7982
  169SOPE   H9Y19119   4.825   5.803   7.560 -0.2424 -0.5690 -2.6096
  169SOPE  C31019120   4.999   5.902   7.643  0.7390  0.1671  0.3293
  169SOPE  H10X19121   4.984   5.998   7.589 -0.8889 -0.2862 -0.0857
  169SOPE  H10Y19122   5.108   5.885   7.636  0.7082  0.1082  0.0118
  169SOPE  C31119123   4.962   5.910   7.792  0.2229 -0.2011  0.1615
  169SOPE  H11X19124   4.946   5.805   7.825  0.5616 -0.8367 -1.5995
  169SOPE  H11Y19125   4.861   5.955   7.803 -0.0824 -1.4405  4.0272
  169SOPE  C31219126   5.058   6.000   7.877  0.2278 -0.3020  0.4874
  169SOPE  H12X19127   5.085   6.093   7.823  1.6475 -0.3502  1.0576
  169SOPE  H12Y19128   5.157   5.951   7.887 -0.0700 -0.8322  0.9139
  169SOPE  C31319129   5.008   6.039   8.020  0.2143 -0.4674 -0.1587
  169SOPE  H13X19130   4.965   5.958   8.084 -0.4888  1.3390  1.7860
  169SOPE  H13Y19131   4.920   6.106   8.009 -1.8050 -3.2114 -2.3742
  169SOPE  C31419132   5.120   6.111   8.107  0.8918 -0.8514 -0.0283
  169SOPE  H14X19133   5.078   6.144   8.204  1.4967 -1.0006  0.2919
  169SOPE  H14Y19134   5.168   6.196   8.054  0.0916 -1.6153 -2.0950
  169SOPE  C31519135   5.222   6.001   8.153  0.3978 -0.9189  0.0982
  169SOPE  H15X19136   5.280   5.967   8.064 -1.0702  0.2394 -1.3791
  169SOPE  H15Y19137   5.162   5.909   8.172 -3.0960  0.0197 -4.4762
  169SOPE  C31619138   5.320   6.033   8.266 -0.1351 -0.3844  0.9003
  169SOPE  H16X19139   5.371   5.939   8.295  1.0142 -0.6230 -1.6069
  169SOPE  H16Y19140   5.265   6.073   8.354  0.9280 -0.3893  1.5898
  169SOPE  C31719141   5.442   6.116   8.213  0.9366  0.1475 -0.2856
  169SOPE  H17X19142   5.406   6.202   8.153  0.9331  0.2420 -0.1488
  169SOPE  H17Y19143   5.510   6.060   8.146  3.0189  2.9537 -0.6750
  169SOPE  C31819144   5.531   6.160   8.329  0.1053 -0.1825 -0.2168
  169SOPE  H18X19145   5.566   6.072   8.387  0.0745  0.0880  0.2224
  169SOPE  H18Y19146   5.491   6.231   8.404  0.5183  0.2018 -0.3561
  169SOPE  H18Z19147   5.626   6.199   8.286  0.5991 -0.0112  0.9764
  170SOPE     N19148   5.607   3.074   6.249 -0.0455  0.1744  0.1611
  170SOPE   HN119149   5.669   3.153   6.224  1.1998 -0.2584  1.7540
  170SOPE   HN219150   5.653   2.982   6.264 -0.9093 -0.3913 -0.5557
  170SOPE   HN319151   5.542   3.060   6.169  0.6202 -2.0497 -0.0671
  170SOPE   C1219152   5.531   3.115   6.375 -0.5461 -0.6840  0.3049
  170SOPE  H12A19153   5.482   3.030   6.426  0.3953 -0.4217  1.7302
  170SOPE  H12B19154   5.453   3.189   6.345  0.6214  1.3466  1.9776
  170SOPE   C1119155   5.615   3.200   6.481 -0.6557 -0.3472 -0.5387
  170SOPE  H11A19156   5.697   3.130   6.509 -0.7237 -0.0276  0.4917
  170SOPE  H11B19157   5.552   3.235   6.565  0.5731  1.4865 -0.3345
  170SOPE     P19158   5.615   3.447   6.385  0.3884 -0.2513  0.2483
  170SOPE   O1319159   5.498   3.421   6.293  0.3311 -0.3458  0.0187
  170SOPE   O1419160   5.714   3.545   6.334 -0.7979 -0.4709 -0.6618
  170SOPE   O1219161   5.680   3.308   6.424  0.1526 -0.3962 -0.1891
  170SOPE   O1119162   5.566   3.499   6.528  0.2727  0.0109  0.5110
  170SOPE    C119163   5.426   3.534   6.556 -0.3224 -0.4963  0.7765
  170SOPE    HA19164   5.380   3.442   6.598 -1.6194 -0.2028  0.0247
  170SOPE    HB19165   5.368   3.559   6.466  1.1754  0.5430  0.0528
  170SOPE    C219166   5.416   3.661   6.648  0.2453  0.0001  0.2787
  170SOPE    HS19167   5.485   3.741   6.614  0.6938 -0.8432 -0.8538
  170SOPE   O2119168   5.445   3.622   6.788  0.7035  0.0668  0.9352
  170SOPE   C2119169   5.449   3.729   6.869  0.4291 -0.1340 -0.0749
  170SOPE   O2219170   5.465   3.844   6.833 -0.4687 -0.6855 -0.0224
  170SOPE   C2219171   5.465   3.679   7.015  0.4257 -1.4116 -0.2197
  170SOPE   H2R19172   5.555   3.615   7.020  0.1307 -1.8135  0.0461
  170SOPE   H2S19173   5.380   3.608   7.028 -1.1425  0.4128 -0.0613
  170SOPE    C319174   5.272   3.720   6.636  0.0303 -0.5913 -0.0129
  170SOPE    HX19175   5.255   3.749   6.530 -1.5267 -1.4613 -0.0471
  170SOPE    HY19176   5.254   3.815   6.690 -0.7914 -0.5978 -0.2533
  170SOPE   O3119177   5.172   3.624   6.670  0.2884 -0.1227  0.0257
  170SOPE   C3119178   5.127   3.609   6.794 -0.0096  0.3921 -0.2898
  170SOPE   O3219179   5.166   3.682   6.886 -0.2961  0.0907 -0.6110
  170SOPE   C3219180   5.013   3.503   6.797  0.1273 -0.3163 -0.6266
  170SOPE   H2X19181   5.041   3.403   6.838 -2.9957 -0.9114  0.3211
  170SOPE   H2Y19182   4.977   3.486   6.693 -0.4240 -0.0997 -0.4747
  170SOPE   C2319183   5.466   3.797   7.123 -0.2583 -0.1746 -0.0679
  170SOPE   H3R19184   5.359   3.825   7.131  0.3699  1.9485  1.9711
  170SOPE   H3S19185   5.530   3.874   7.075  1.3220 -2.3830 -1.7146
  170SOPE   C2419186   5.515   3.755   7.262  0.0833 -0.6320 -0.0619
  170SOPE   H4R19187   5.467   3.661   7.298  0.1710 -0.8509 -0.5116
  170SOPE   H4S19188   5.625   3.736   7.265  0.4500  0.7268 -2.4139
  170SOPE   C2519189   5.494   3.867   7.366  0.2380 -0.1412  0.2938
  170SOPE   H5R19190   5.568   3.947   7.346 -0.0140  0.0638  0.1807
  170SOPE   H5S19191   5.387   3.896   7.355  0.6176  1.3382  0.3396
  170SOPE   C2619192   5.504   3.805   7.512  0.3662  0.1698  0.2013
  170SOPE   H6R19193   5.422   3.732   7.528 -0.3902  1.1676  0.9954
  170SOPE   H6S19194   5.604   3.756   7.511  1.3459  2.0951 -0.3467
  170SOPE   C2719195   5.514   3.913   7.623 -0.8085  0.3950 -0.1908
  170SOPE   H7R19196   5.563   3.876   7.716  1.3991 -0.0776 -1.4750
  170SOPE   H7S19197   5.580   3.994   7.585  2.1012 -1.1931  1.0875
  170SOPE   C2819198   5.375   3.954   7.672  0.6782 -0.4600  0.0485
  170SOPE   H8R19199   5.309   3.973   7.585 -1.2448  2.2751  1.9118
  170SOPE   H8S19200   5.331   3.873   7.734 -0.2563  0.7800  1.0986
  170SOPE   C2919201   5.373   4.089   7.748 -0.0348  0.7366  0.3123
  170SOPE   H9119202   5.336   4.174   7.689  1.8546  1.6238  0.3136
  170SOPE  C21019203   5.405   4.110   7.880  0.8948  1.0142  1.0966
  170SOPE  H10119204   5.397   4.213   7.919 -0.3018  0.8107  1.4272
  170SOPE  C21119205   5.458   4.008   7.975 -0.1740  0.4661  0.0774
  170SOPE  H11R19206   5.522   3.935   7.921 -1.6660 -0.2891 -0.7582
  170SOPE  H11S19207   5.372   3.954   8.021 -0.4294  0.0397 -0.8687
  170SOPE  C21219208   5.537   4.083   8.082 -0.0649  0.1567 -0.7284
  170SOPE  H12R19209   5.577   4.185   8.063  1.1463  0.2255  1.8164
  170SOPE  H12S19210   5.624   4.016   8.098  0.7483  0.5407 -3.2395
  170SOPE  C21319211   5.457   4.092   8.214 -0.2612  0.0764  0.0453
  170SOPE  H13R19212   5.388   4.009   8.243 -1.8917  1.7545  1.1965
  170SOPE  H13S19213   5.389   4.179   8.203  0.3609  0.4545 -0.8626
  170SOPE  C21419214   5.544   4.125   8.340 -0.2926  0.7595 -0.1055
  170SOPE  H14R19215   5.603   4.215   8.312 -1.2518  1.1701 -0.8707
  170SOPE  H14S19216   5.615   4.042   8.355 -0.8728  0.5604  1.7915
  170SOPE  C21519217   5.476   4.154   8.475  0.2723 -0.0710  0.3608
  170SOPE  H15R19218   5.552   4.169   8.554  0.9395 -3.6583  0.5800
  170SOPE  H15S19219   5.421   4.063   8.507  3.2156 -1.9997  0.2993
  170SOPE  C21619220   5.396   4.280   8.459  0.1630 -0.6204 -0.0519
  170SOPE  H16R19221   5.325   4.262   8.376  2.2570 -3.4442 -1.4176
  170SOPE  H16S19222   5.448   4.373   8.428 -1.3689  0.0112 -0.8245
  170SOPE  C21719223   5.324   4.326   8.595 -0.1865  0.4680  0.0335
  170SOPE  H17R19224   5.399   4.383   8.653  0.5083 -0.2339 -0.1516
  170SOPE  H17S19225   5.287   4.232   8.641  0.5106  1.0433  1.8587
  170SOPE  C21819226   5.194   4.396   8.561  0.3363  0.1758 -0.7787
  170SOPE  H18R19227   5.197   4.504   8.587 -1.5773 -0.2844  1.6834
  170SOPE  H18S19228   5.101   4.364   8.612  0.7890  3.2699  2.3288
  170SOPE  H18T19229   5.169   4.391   8.452 -0.7034 -2.8058 -0.5028
  170SOPE   C3319230   4.885   3.548   6.873  0.4742  0.5078 -0.1852
  170SOPE   H3X19231   4.837   3.636   6.826  0.0286 -0.2078 -1.0792
  170SOPE   H3Y19232   4.914   3.568   6.979 -2.5048  0.8708  0.6561
  170SOPE   C3419233   4.777   3.440   6.876  0.1207  0.3092  0.4214
  170SOPE   H4X19234   4.747   3.418   6.771 -5.1569  0.2256  1.6999
  170SOPE   H4Y19235   4.682   3.460   6.930 -0.8965 -0.5882 -0.9611
  170SOPE   C3519236   4.820   3.300   6.935 -0.0417 -0.1391 -0.8375
  170SOPE   H5X19237   4.929   3.285   6.917  0.7351  4.2768 -1.0464
  170SOPE   H5Y19238   4.767   3.216   6.885  0.5736 -1.0055 -0.0598
  170SOPE   C3619239   4.801   3.302   7.087 -0.5536  0.0014 -0.7380
  170SOPE   H6X19240   4.693   3.321   7.104 -0.9444  1.6523 -4.0842
  170SOPE   H6Y19241   4.872   3.383   7.113 -0.4872  0.8995 -3.3887
  170SOPE   C3719242   4.865   3.177   7.142 -0.5336  0.4349 -0.1433
  170SOPE   H7X19243   4.974   3.197   7.133 -0.8439  1.8510 -0.9806
  170SOPE   H7Y19244   4.846   3.090   7.076 -0.1156  1.0228 -1.0668
  170SOPE   C3819245   4.845   3.156   7.292 -0.1012 -0.6890  0.3699
  170SOPE   H8X19246   4.907   3.068   7.321 -2.6591 -3.6588 -2.3517
  170SOPE   H8Y19247   4.739   3.132   7.315  0.1577 -0.4450  1.9291
  170SOPE   C3919248   4.868   3.273   7.392  0.1141  0.0614  0.3819
  170SOPE   H9X19249   4.774   3.332   7.403 -0.1996 -0.2148 -0.7053
  170SOPE   H9Y19250   4.942   3.345   7.350 -1.4521  1.0763 -0.7737
  170SOPE  C31019251   4.916   3.232   7.529 -0.8636 -0.0747  0.4421
  170SOPE  H10X19252   5.000   3.162   7.511 -1.3265 -0.4098 -0.4775
  170SOPE  H10Y19253   4.829   3.177   7.570 -1.5379 -0.5236 -1.4497
  170SOPE  C31119254   4.962   3.351   7.619 -0.3173  0.3951 -0.1664
  170SOPE  H11X19255   4.877   3.422   7.629 -1.2619 -0.7141 -0.1191
  170SOPE  H11Y19256   5.046   3.414   7.582 -0.5525 -0.7157 -2.8511
  170SOPE  C31219257   5.001   3.296   7.758  0.0884  0.8489 -0.0042
  170SOPE  H12X19258   5.099   3.251   7.731 -0.0465 -0.0932  1.0276
  170SOPE  H12Y19259   4.930   3.220   7.797  1.5378 -0.3364  0.4368
  170SOPE  C31319260   5.030   3.407   7.860 -0.1944 -0.3707  0.0591
  170SOPE  H13X19261   4.944   3.470   7.891  0.3804 -0.6726  2.4959
  170SOPE  H13Y19262   5.105   3.472   7.808  0.6531 -1.6080 -0.3052
  170SOPE  C31419263   5.082   3.365   7.995 -0.2099 -0.2873  0.3515
  170SOPE  H14X19264   5.130   3.455   8.040  2.0747 -1.2713  0.0499
  170SOPE  H14Y19265   5.161   3.287   7.995  1.1519  1.0546  0.5981
  170SOPE  C31519266   4.963   3.322   8.095 -0.5079 -0.5350  0.3545
  170SOPE  H15X19267   5.003   3.290   8.194 -0.8602  0.2876  0.7668
  170SOPE  H15Y19268   4.895   3.239   8.066  0.1961 -0.8779 -0.3501
  170SOPE  C31619269   4.877   3.441   8.151 -0.8484 -0.6534  0.0203
  170SOPE  H16X19270   4.834   3.490   8.061  0.6915 -1.4820 -1.2220
  170SOPE  H16Y19271   4.945   3.519   8.191  0.4654 -1.8685  0.2496
  170SOPE  C31719272   4.771   3.404   8.259  0.0721  0.4289  0.5433
  170SOPE  H17X19273   4.728   3.312   8.213  0.7266  0.6604 -0.5507
  170SOPE  H17Y19274   4.691   3.481   8.255 -1.5598 -1.2577 -1.7094
  170SOPE  C31819275   4.827   3.387   8.399 -0.0505  0.1057  0.1593
  170SOPE  H18X19276   4.904   3.307   8.400 -0.7711 -0.5961  1.7164
  170SOPE  H18Y19277   4.743   3.351   8.461 -1.8819  2.0441 -1.0526
  170SOPE  H18Z19278   4.847   3.488   8.440 -2.6133  1.3196 -1.3529
  171SOPE     N19279   4.608   0.313   6.467 -0.4792  0.7517 -0.6292
  171SOPE   HN119280   4.527   0.315   6.402  1.2114  2.6069 -2.8678
  171SOPE   HN219281   4.640   0.411   6.484 -1.0987  0.9724 -0.7244
  171SOPE   HN319282   4.688   0.267   6.420 -1.3668 -1.8534  0.2731
  171SOPE   C1219283   4.575   0.242   6.597  0.4131  0.5312  0.2150
  171SOPE  H12A19284   4.502   0.309   6.648  2.6252  1.3652  2.4630
  171SOPE  H12B19285   4.669   0.240   6.656 -0.1973  0.9680  1.2249
  171SOPE   C1119286   4.531   0.099   6.566  0.5255  0.2261 -0.9753
  171SOPE  H11A19287   4.426   0.100   6.529  0.1930 -1.2706 -0.1232
  171SOPE  H11B19288   4.524   0.052   6.666 -2.0767  1.9161 -0.2622
  171SOPE     P19289   4.582  -0.094   6.402 -0.8008  0.0384  0.0629
  171SOPE   O1319290   4.692  -0.195   6.387 -0.1499 -0.0808  0.0480
  171SOPE   O1419291   4.545  -0.044   6.266 -0.3463 -0.0647  0.2310
  171SOPE   O1219292   4.630   0.029   6.486  0.0067 -0.0601  0.3706
  171SOPE   O1119293   4.456  -0.146   6.482  0.3119  0.0337  0.5262
  171SOPE    C119294   4.442  -0.282   6.486 -0.0392  0.5884  0.3470
  171SOPE    HA19295   4.507  -0.326   6.564  2.8562  1.9650 -1.1227
  171SOPE    HB19296   4.467  -0.336   6.392 -1.2757 -1.1015  0.9535
  171SOPE    C219297   4.295  -0.329   6.536 -0.0734  0.6246 -0.7667
  171SOPE    HS19298   4.226  -0.295   6.456 -2.1222 -0.7497  0.3406
  171SOPE   O2119299   4.272  -0.250   6.654  0.6468 -0.0538 -0.1424
  171SOPE   C2119300   4.148  -0.262   6.697  0.0837  0.8519 -0.2738
  171SOPE   O2219301   4.063  -0.336   6.654 -0.7731  0.0949 -0.3878
  171SOPE   C2219302   4.135  -0.183   6.824 -0.7783 -0.5156  0.2413
  171SOPE   H2R19303   4.148  -0.075   6.801  0.5855 -1.0777 -1.9761
  171SOPE   H2S19304   4.211  -0.219   6.897 -0.2080 -1.5151 -0.8131
  171SOPE    C319305   4.294  -0.486   6.563 -0.2849 -0.7744  0.3170
  171SOPE    HX19306   4.324  -0.543   6.472  0.4229 -2.3211  1.4755
  171SOPE    HY19307   4.190  -0.521   6.576 -1.0203  0.8506 -0.8445
  171SOPE   O3119308   4.361  -0.538   6.673  0.2657 -0.4193  0.0823
  171SOPE   C3119309   4.476  -0.608   6.663  0.2424 -0.7015 -0.0587
  171SOPE   O3219310   4.527  -0.644   6.561 -0.3198 -0.0215 -0.1056
  171SOPE   C3219311   4.539  -0.630   6.803 -0.2808  0.3750 -0.4006
  171SOPE   H2X19312   4.531  -0.531   6.852 -0.4451  0.0594  0.2240
  171SOPE   H2Y19313   4.645  -0.658   6.780 -1.2263 -2.1398 -2.1634
  171SOPE   C2319314   4.003  -0.208   6.897  0.6563 -0.4417  0.3497
  171SOPE   H3R19315   3.970  -0.314   6.906  0.2069 -0.3325 -0.0029
  171SOPE   H3S19316   3.923  -0.151   6.846  1.1250  1.3926  1.5421
  171SOPE   C2419317   4.004  -0.168   7.042 -0.4504 -0.5175 -0.4470
  171SOPE   H4R19318   4.076  -0.236   7.093 -0.5552 -0.9444 -0.8613
  171SOPE   H4S19319   4.037  -0.063   7.052 -3.5577  0.5884 -0.8066
  171SOPE   C2519320   3.869  -0.149   7.101  0.5782  0.4210 -0.3268
  171SOPE   H5R19321   3.823  -0.060   7.052  1.8006  0.5782 -1.2169
  171SOPE   H5S19322   3.815  -0.246   7.093 -1.4432  1.4032  0.5590
  171SOPE   C2619323   3.878  -0.125   7.258 -0.7375 -0.2458 -0.1032
  171SOPE   H6R19324   3.960  -0.187   7.299 -0.2201  0.0586 -0.6699
  171SOPE   H6S19325   3.906  -0.021   7.285 -1.5038 -0.4620  1.6620
  171SOPE   C2719326   3.745  -0.159   7.334 -0.5016 -0.0972  0.8867
  171SOPE   H7R19327   3.670  -0.088   7.294  0.8013 -0.3355 -2.3373
  171SOPE   H7S19328   3.718  -0.262   7.300  0.6637  0.2994 -1.4857
  171SOPE   C2819329   3.762  -0.170   7.489  0.8544  0.2129  0.1850
  171SOPE   H8R19330   3.660  -0.191   7.528  0.8280  1.0192  0.5537
  171SOPE   H8S19331   3.825  -0.261   7.501 -0.2711 -0.7889 -1.1819
  171SOPE   C2919332   3.829  -0.054   7.557  0.2914  0.2740 -0.6798
  171SOPE   H9119333   3.924  -0.027   7.509  0.3673 -1.7015 -1.7226
  171SOPE  C21019334   3.778   0.015   7.668  0.2717  0.1808  1.4183
  171SOPE  H10119335   3.839   0.099   7.706  1.6587  0.7874 -1.7688
  171SOPE  C21119336   3.653  -0.017   7.744  0.2897  0.5992  0.5254
  171SOPE  H11R19337   3.626  -0.125   7.751  1.0107  0.5083  2.6366
  171SOPE  H11S19338   3.570   0.040   7.697 -0.3001  0.3456  1.2411
  171SOPE  C21219339   3.662   0.035   7.890  0.0443  0.2958 -0.2118
  171SOPE  H12R19340   3.729   0.123   7.886  1.4353 -0.5011  2.5399
  171SOPE  H12S19341   3.714  -0.040   7.954  0.1149 -1.5241 -2.3008
  171SOPE  C21319342   3.528   0.068   7.957 -0.2622 -0.4635 -0.5519
  171SOPE  H13R19343   3.462  -0.022   7.959 -2.4741  1.0512 -1.2292
  171SOPE  H13S19344   3.474   0.147   7.899 -1.4501  0.4499  1.6795
  171SOPE  C21419345   3.545   0.122   8.095 -0.0164 -0.5878 -0.3113
  171SOPE  H14R19346   3.579   0.227   8.083  1.7994 -1.4117 -3.7142
  171SOPE  H14S19347   3.624   0.070   8.154  0.4426  0.7325  0.2676
  171SOPE  C21519348   3.414   0.113   8.180  0.2846 -0.1474 -0.4296
  171SOPE  H15R19349   3.364   0.014   8.173  0.8639 -0.5561  0.9172
  171SOPE  H15S19350   3.348   0.199   8.156  0.7963  0.4204  0.1682
  171SOPE  C21619351   3.435   0.132   8.330  0.1929 -0.4877  0.3954
  171SOPE  H16R19352   3.512   0.065   8.373  0.3460 -0.4422  0.1912
  171SOPE  H16S19353   3.338   0.104   8.377 -1.2860  2.3084 -0.7230
  171SOPE  C21719354   3.458   0.287   8.367  0.4813  0.1228  0.5636
  171SOPE  H17R19355   3.364   0.329   8.411 -0.4688  0.3751 -1.5652
  171SOPE  H17S19356   3.453   0.351   8.276 -1.4559  1.1004  1.3034
  171SOPE  C21819357   3.578   0.324   8.452 -1.0690  0.1296 -0.5650
  171SOPE  H18R19358   3.674   0.322   8.397 -0.8632 -1.6051 -0.2250
  171SOPE  H18S19359   3.579   0.263   8.546  0.1698  0.9447 -0.0178
  171SOPE  H18T19360   3.565   0.428   8.489  1.7848  0.2083  0.5288
  171SOPE   C3319361   4.455  -0.742   6.885  0.0559 -0.1129 -0.1952
  171SOPE   H3X19362   4.523  -0.808   6.944 -1.2596  0.2006  1.7431
  171SOPE   H3Y19363   4.404  -0.812   6.815 -0.1427 -0.4902  0.3167
  171SOPE   C3419364   4.350  -0.681   6.973 -0.0010 -0.8485 -1.1166
  171SOPE   H4X19365   4.278  -0.765   6.985  0.8187 -1.6626 -1.7290
  171SOPE   H4Y19366   4.314  -0.587   6.926  1.5525  0.6588  0.5236
  171SOPE   C3519367   4.398  -0.641   7.119 -0.4431  0.2103  0.3647
  171SOPE   H5X19368   4.473  -0.560   7.118 -0.7015  0.4921  1.6338
  171SOPE   H5Y19369   4.445  -0.737   7.151 -2.7669 -1.1833 -0.1214
  171SOPE   C3619370   4.295  -0.587   7.210 -0.0506  0.0793 -0.3566
  171SOPE   H6X19371   4.201  -0.636   7.175  0.6981 -1.5361 -0.1664
  171SOPE   H6Y19372   4.285  -0.478   7.187  2.2506  0.2644 -0.6748
  171SOPE   C3719373   4.320  -0.602   7.361 -0.3074  0.7522 -0.3550
  171SOPE   H7X19374   4.396  -0.526   7.391 -2.5664  2.7909  0.5564
  171SOPE   H7Y19375   4.336  -0.709   7.386 -0.5739  0.3569 -1.8148
  171SOPE   C3819376   4.209  -0.563   7.453  0.2338 -0.5037 -0.4534
  171SOPE   H8X19377   4.233  -0.616   7.548 -0.7967 -1.1107 -0.5232
  171SOPE   H8Y19378   4.112  -0.607   7.423  0.3167 -1.8049  1.0738
  171SOPE   C3919379   4.200  -0.406   7.471  0.9105 -0.8253  0.3081
  171SOPE   H9X19380   4.158  -0.353   7.383 -0.8930  0.4929  1.9011
  171SOPE   H9Y19381   4.298  -0.357   7.490  0.2223  0.4684  0.5699
  171SOPE  C31019382   4.106  -0.376   7.589 -0.5923  0.4166  1.0502
  171SOPE  H10X19383   4.038  -0.464   7.595  0.4247 -0.4489  0.1243
  171SOPE  H10Y19384   4.049  -0.284   7.563 -0.1999  1.4577  3.5604
  171SOPE  C31119385   4.166  -0.358   7.729 -0.7978  0.3118  0.3933
  171SOPE  H11X19386   4.230  -0.267   7.739  1.1086 -0.8745 -0.4934
  171SOPE  H11Y19387   4.229  -0.448   7.737 -2.2792 -0.8195 -0.1165
  171SOPE  C31219388   4.057  -0.354   7.839 -0.4459 -0.2009  0.4094
  171SOPE  H12X19389   3.996  -0.445   7.854  0.3907 -0.8548 -0.0703
  171SOPE  H12Y19390   3.982  -0.276   7.815 -1.7624 -0.9000  2.0748
  171SOPE  C31319391   4.123  -0.332   7.977 -0.0862  0.4117 -0.4366
  171SOPE  H13X19392   4.208  -0.261   7.973  0.2574 -0.0057 -0.6913
  171SOPE  H13Y19393   4.172  -0.427   8.009  0.2174  0.0261 -1.9985
  171SOPE  C31419394   4.028  -0.285   8.085  0.2340  0.3325 -0.1110
  171SOPE  H14X19395   3.935  -0.345   8.081 -0.8212  1.9392 -0.2882
  171SOPE  H14Y19396   4.000  -0.183   8.053 -0.0596 -0.1853 -1.5855
  171SOPE  C31519397   4.089  -0.290   8.223  0.0219 -0.1940 -0.5383
  171SOPE  H15X19398   4.190  -0.245   8.219 -0.5195  0.9856 -1.5551
  171SOPE  H15Y19399   4.097  -0.396   8.257  0.0239  0.1602  0.5725
  171SOPE  C31619400   4.013  -0.218   8.341 -0.2837  0.7940  0.1784
  171SOPE  H16X19401   4.025  -0.112   8.309  1.9519  0.4642 -0.2640
  171SOPE  H16Y19402   4.067  -0.241   8.435 -0.9006 -2.7813 -0.1804
  171SOPE  C31719403   3.862  -0.257   8.343  0.4346 -0.0615 -0.2223
  171SOPE  H17X19404   3.855  -0.366   8.362 -1.4371 -0.4475 -2.5765
  171SOPE  H17Y19405   3.812  -0.233   8.246  0.4378 -0.9508 -0.4585
  171SOPE  C31819406   3.790  -0.176   8.445  0.3782  0.3262 -0.7981
  171SOPE  H18X19407   3.817  -0.214   8.546  0.0801  1.1262 -0.4136
  171SOPE  H18Y19408   3.680  -0.176   8.431 -0.0921 -0.0207  2.1619
  171SOPE  H18Z19409   3.838  -0.076   8.451  1.0160  0.0576 -1.3312
  172SOPE     N19410   5.153   1.614   6.351  0.4757  0.9082 -0.6385
  172SOPE   HN119411   5.099   1.681   6.410  0.0410 -0.5214  0.6572
  172SOPE   HN219412   5.191   1.672   6.274  0.6580  1.2106 -0.3253
  172SOPE   HN319413   5.100   1.538   6.305  1.2592  0.0352 -0.1374
  172SOPE   C1219414   5.247   1.543   6.434  0.0454  0.2644 -0.0780
  172SOPE  H12A19415   5.343   1.599   6.431  0.8662 -1.1322 -0.7324
  172SOPE  H12B19416   5.261   1.436   6.405  1.5456  0.2524  0.5939
  172SOPE   C1119417   5.196   1.553   6.581 -0.0626  0.1551 -0.8027
  172SOPE  H11A19418   5.182   1.654   6.626 -0.3558  0.3274 -1.2781
  172SOPE  H11B19419   5.270   1.503   6.647 -1.5803 -0.4379  0.5111
  172SOPE     P19420   5.080   1.328   6.631 -0.0756  0.0829 -0.4277
  172SOPE   O1319421   5.181   1.244   6.556 -0.2889 -0.8254  0.0274
  172SOPE   O1419422   4.939   1.283   6.631 -0.0370  0.4222  0.4259
  172SOPE   O1219423   5.068   1.480   6.589 -0.6036  0.1571 -0.1455
  172SOPE   O1119424   5.144   1.335   6.772  0.4450  0.5596 -0.4567
  172SOPE    C119425   5.092   1.403   6.887  0.0542  0.3735 -0.0019
  172SOPE    HA19426   5.014   1.477   6.859 -0.8717  1.0023  3.7428
  172SOPE    HB19427   5.184   1.442   6.936  1.3836 -2.1766 -0.2566
  172SOPE    C219428   5.012   1.315   6.993  0.3247  0.1723  0.2088
  172SOPE    HS19429   4.949   1.388   7.049 -1.6668  0.0671 -1.7603
  172SOPE   O2119430   5.114   1.253   7.073 -0.4303  0.4556 -0.3841
  172SOPE   C2119431   5.075   1.233   7.200 -0.2550 -0.2629  0.0942
  172SOPE   O2219432   4.976   1.274   7.258  0.3271  0.0405  0.0099
  172SOPE   C2219433   5.177   1.132   7.258 -0.3213 -0.0502 -0.0348
  172SOPE   H2R19434   5.282   1.169   7.249 -0.2925  0.5612  2.2121
  172SOPE   H2S19435   5.185   1.040   7.197 -0.1610 -0.1987  0.2069
  172SOPE    C319436   4.916   1.209   6.934  0.1643 -0.0634  0.5466
  172SOPE    HX19437   4.975   1.164   6.851 -1.4924  2.5227 -2.2030
  172SOPE    HY19438   4.825   1.243   6.880  0.5139  0.9559  0.5795
  172SOPE   O3119439   4.881   1.106   7.032 -0.6035  0.6318  0.4449
  172SOPE   C3119440   4.769   1.132   7.098  0.2726 -0.7669  0.3839
  172SOPE   O3219441   4.693   1.226   7.074  0.4336 -0.1633 -0.0635
  172SOPE   C3219442   4.750   1.038   7.211 -0.0397 -0.3223 -0.0842
  172SOPE   H2X19443   4.812   1.069   7.298  1.4029  0.2425 -1.2616
  172SOPE   H2Y19444   4.800   0.943   7.182  1.0879  0.7793 -1.9640
  172SOPE   C2319445   5.135   1.080   7.402 -0.2579 -0.3613  0.1471
  172SOPE   H3R19446   5.209   1.000   7.423 -1.2874 -2.0601 -2.2006
  172SOPE   H3S19447   5.030   1.043   7.398 -0.6890  0.8657 -0.9480
  172SOPE   C2419448   5.141   1.176   7.516 -0.2524 -0.4744 -0.6363
  172SOPE   H4R19449   5.247   1.201   7.541 -0.3220 -0.3320 -0.4850
  172SOPE   H4S19450   5.086   1.271   7.496 -0.0306 -0.3393 -0.6101
  172SOPE   C2519451   5.066   1.112   7.638 -0.5372  0.5029  0.7131
  172SOPE   H5R19452   5.026   1.192   7.704  1.5294  2.5778 -0.4270
  172SOPE   H5S19453   4.974   1.062   7.600  0.0502 -0.6545  0.7806
  172SOPE   C2619454   5.157   1.014   7.712 -0.7077  0.2183 -0.7039
  172SOPE   H6R19455   5.196   0.934   7.646  0.9780  0.0436  0.4378
  172SOPE   H6S19456   5.252   1.060   7.744 -0.8023  1.7050 -2.4019
  172SOPE   C2719457   5.092   0.942   7.834 -0.0949 -0.2128  0.0323
  172SOPE   H7R19458   4.985   0.950   7.807  0.2007  1.0449 -0.8755
  172SOPE   H7S19459   5.108   0.833   7.837 -0.6573 -0.2819  0.7664
  172SOPE   C2819460   5.134   0.977   7.984  0.1978 -0.6241  0.1420
  172SOPE   H8R19461   5.056   0.926   8.043  0.3521 -0.8631  0.1390
  172SOPE   H8S19462   5.237   0.937   7.996 -0.0586 -1.2675  0.2457
  172SOPE   C2919463   5.136   1.124   8.012 -0.6383  0.0397  0.8749
  172SOPE   H9119464   5.163   1.183   7.923 -1.1367 -1.3098 -0.1983
  172SOPE  C21019465   5.113   1.182   8.132 -0.2173  0.2052  0.3352
  172SOPE  H10119466   5.112   1.292   8.128  0.7468  0.2154  0.2696
  172SOPE  C21119467   5.084   1.110   8.253  0.0452  0.0881 -0.1084
  172SOPE  H11R19468   5.145   1.140   8.341  2.1545 -3.8557  0.0024
  172SOPE  H11S19469   5.104   1.001   8.245 -2.4046 -0.4939  0.7797
  172SOPE  C21219470   4.941   1.118   8.296  0.0291  0.1239 -0.4754
  172SOPE  H12R19471   4.878   1.050   8.234 -0.9623  0.8537 -0.2765
  172SOPE  H12S19472   4.893   1.217   8.287 -3.9296 -1.4136  1.2113
  172SOPE  C21319473   4.927   1.070   8.443  0.1402  0.6992  0.1889
  172SOPE  H13R19474   4.986   1.137   8.509 -0.3971 -1.8031  3.5024
  172SOPE  H13S19475   4.959   0.964   8.443  1.7359  1.1558 -0.1302
  172SOPE  C21419476   4.781   1.074   8.499 -0.7783  0.0566 -0.5498
  172SOPE  H14R19477   4.800   1.039   8.603  1.6008  1.2612 -0.4908
  172SOPE  H14S19478   4.705   1.008   8.455 -3.2677  1.6939  1.0386
  172SOPE  C21519479   4.716   1.213   8.502  0.0846 -0.2310  1.0238
  172SOPE  H15R19480   4.704   1.244   8.396 -0.4826 -1.9105  0.5766
  172SOPE  H15S19481   4.786   1.289   8.542  0.6409 -0.0824 -0.1943
  172SOPE  C21619482   4.578   1.208   8.563 -0.1288  0.3402  0.2953
  172SOPE  H16R19483   4.589   1.192   8.673  2.5347  2.0113  0.3596
  172SOPE  H16S19484   4.514   1.137   8.508 -0.8401  2.4220 -1.6881
  172SOPE  C21719485   4.530   1.352   8.551 -0.2619  0.2277  0.4072
  172SOPE  H17R19486   4.525   1.369   8.441  1.8446  1.0997  0.3858
  172SOPE  H17S19487   4.606   1.424   8.589  0.4535 -0.3279  0.0498
  172SOPE  C21819488   4.398   1.375   8.617  0.3760 -0.6330 -0.7022
  172SOPE  H18R19489   4.373   1.483   8.625 -1.3160 -1.0026 -0.6188
  172SOPE  H18S19490   4.392   1.326   8.716 -0.0127  0.2134 -0.2986
  172SOPE  H18T19491   4.319   1.331   8.554  0.1300 -0.9483 -0.1782
  172SOPE   C3319492   4.604   1.010   7.260 -0.2167  0.0425 -0.3712
  172SOPE   H3X19493   4.544   0.987   7.170 -1.2617  1.6328 -0.1272
  172SOPE   H3Y19494   4.554   1.105   7.291 -0.2797 -0.1163  0.0230
  172SOPE   C3419495   4.598   0.898   7.369  1.0660  0.3814 -0.1763
  172SOPE   H4X19496   4.625   0.799   7.328 -0.5226  0.4552 -1.4924
  172SOPE   H4Y19497   4.492   0.890   7.404  0.3784 -4.6158 -2.5207
  172SOPE   C3519498   4.676   0.932   7.498 -0.0826  0.0255 -0.2417
  172SOPE   H5X19499   4.786   0.920   7.492 -0.0307 -0.4778  1.3520
  172SOPE   H5Y19500   4.664   0.843   7.563  0.4312  0.9506  1.1691
  172SOPE   C3619501   4.637   1.068   7.563  0.3491  0.0036  0.2828
  172SOPE   H6X19502   4.532   1.103   7.565  1.4068  3.5566 -0.1257
  172SOPE   H6Y19503   4.688   1.154   7.516  0.6056 -0.7397 -0.8456
  172SOPE   C3719504   4.702   1.084   7.698 -0.8352 -0.4306 -0.3666
  172SOPE   H7X19505   4.812   1.067   7.698 -0.6401  0.6336 -1.3304
  172SOPE   H7Y19506   4.657   1.000   7.755  0.4979  0.6828  2.4595
  172SOPE   C3819507   4.682   1.223   7.760  0.6369  0.3680 -0.1664
  172SOPE   H8X19508   4.574   1.247   7.773  0.9723  1.8075  0.1746
  172SOPE   H8Y19509   4.714   1.301   7.688 -1.4821  0.2132 -1.3675
  172SOPE   C3919510   4.750   1.247   7.893  0.0218 -0.1495 -0.5401
  172SOPE   H9X19511   4.860   1.237   7.889 -0.1635 -2.5951 -0.7421
  172SOPE   H9Y19512   4.716   1.173   7.969 -3.1012  1.1133 -0.5429
  172SOPE  C31019513   4.694   1.375   7.962  0.7484  0.4693  0.5164
  172SOPE  H10X19514   4.584   1.371   7.948  0.8423 -3.3906 -0.0673
  172SOPE  H10Y19515   4.729   1.462   7.903 -2.0744  1.9236  0.8072
  172SOPE  C31119516   4.726   1.393   8.108  0.3719 -0.2597  0.0200
  172SOPE  H11X19517   4.827   1.350   8.126  0.7317  0.4925 -0.1567
  172SOPE  H11Y19518   4.650   1.346   8.174 -0.9892  0.5593 -0.9148
  172SOPE  C31219519   4.726   1.537   8.151 -0.0432  0.2012 -0.1835
  172SOPE  H12X19520   4.621   1.573   8.147 -0.6485 -0.8640  2.9616
  172SOPE  H12Y19521   4.794   1.598   8.089  0.5147 -1.6423 -1.4602
  172SOPE  C31319522   4.776   1.547   8.297  0.1728 -0.7841  0.6497
  172SOPE  H13X19523   4.879   1.506   8.309  0.9083  0.3225 -1.2624
  172SOPE  H13Y19524   4.705   1.500   8.368  0.1040 -0.0255  1.0881
  172SOPE  C31419525   4.774   1.692   8.344 -0.3074 -0.4632 -0.5777
  172SOPE  H14X19526   4.670   1.726   8.324 -0.0158  1.1713  0.5488
  172SOPE  H14Y19527   4.835   1.759   8.281  0.5501  2.1211  2.7263
  172SOPE  C31519528   4.799   1.712   8.495  0.1024  1.1067  0.4651
  172SOPE  H15X19529   4.730   1.648   8.554  2.4508 -0.8458  1.2540
  172SOPE  H15Y19530   4.761   1.814   8.518 -0.6052  1.2992 -1.4127
  172SOPE  C31619531   4.932   1.667   8.548 -0.4307 -0.1204 -0.0975
  172SOPE  H16X19532   4.954   1.568   8.501 -0.8719  0.7440 -2.2720
  172SOPE  H16Y19533   4.928   1.660   8.658  0.1977 -0.1315 -0.0716
  172SOPE  C31719534   5.049   1.757   8.510  0.4284 -0.2659  0.1821
  172SOPE  H17X19535   5.022   1.864   8.516  0.6353 -0.2597  1.0350
  172SOPE  H17Y19536   5.065   1.741   8.401  1.1937 -1.4075  0.4400
  172SOPE  C31819537   5.182   1.732   8.574  0.8473  0.1311  0.4334
  172SOPE  H18X19538   5.174   1.765   8.680  0.5680  0.9990  0.1499
  172SOPE  H18Y19539   5.265   1.784   8.523  0.3453 -1.6242 -2.3795
  172SOPE  H18Z19540   5.206   1.625   8.557 -0.6396 -0.3017  0.8555
  173SAPI   C1219541   6.458   5.912  10.568  0.1733  0.0190 -0.3311
  173SAPI    H219542   6.357   5.956  10.551 -0.0999 -1.2743 -2.4220
  173SAPI    O219543   6.516   5.891  10.442  0.3810  0.3452  0.0648
  173SAPI   HO219544   6.477   5.810  10.405  0.8697 -0.5680  1.4905
  173SAPI   C1319545   6.539   6.003  10.656  0.2022  0.6145 -0.7506
  173SAPI    H319546   6.478   6.023  10.747 -0.7327  0.2009 -1.2697
  173SAPI    O319547   6.556   6.130  10.592  0.0914  0.0453 -0.6923
  173SAPI   HO319548   6.580   6.104  10.503 -1.9696  0.2601 -1.3621
  173SAPI   C1419549   6.677   5.943  10.695  0.3197  0.3889  0.4183
  173SAPI    H419550   6.735   5.926  10.602  0.0144 -1.7617  0.5837
  173SAPI    O419551   6.747   6.022  10.779  0.5484 -0.1520 -0.3814
  173SAPI   HO419552   6.834   6.039  10.743  0.1423  0.9544 -0.8701
  173SAPI   C1519553   6.652   5.802  10.754 -0.1247 -0.2254  0.4569
  173SAPI    H519554   6.602   5.835  10.847  0.2711  0.7175  0.3468
  173SAPI    O519555   6.777   5.747  10.792  0.7276  0.4685 -0.4608
  173SAPI   HO519556   6.785   5.670  10.735  0.4311  0.0440  0.0718
  173SAPI   C1619557   6.569   5.712  10.663  0.8216  0.0434 -0.2585
  173SAPI    H619558   6.632   5.703  10.572  2.0375  4.4152 -0.1046
  173SAPI    O619559   6.543   5.589  10.733  0.0635  0.3605  0.3463
  173SAPI   HO619560   6.567   5.518  10.673 -3.2873 -0.1991 -0.5235
  173SAPI   C1119561   6.439   5.780  10.641  0.4002 -0.0079 -0.5598
  173SAPI    H119562   6.399   5.795  10.744  0.4628  1.5935 -0.7388
  173SAPI     P19563   6.192   5.673  10.594  0.0849  0.0714  0.1685
  173SAPI   O1319564   6.166   5.677  10.743 -0.4665 -0.2284  0.0692
  173SAPI   O1419565   6.153   5.542  10.534  0.1635  0.0824 -0.1702
  173SAPI   O1219566   6.354   5.696  10.562 -0.2980 -0.0261 -0.4706
  173SAPI   O1119567   6.127   5.799  10.526  0.0525  0.0734  0.1453
  173SAPI    C119568   6.020   5.796  10.431 -0.3182 -0.1480  0.0804
  173SAPI    HA19569   5.946   5.717  10.453  0.1142  0.1568  3.1259
  173SAPI    HB19570   5.957   5.888  10.426 -0.2553 -0.1871 -2.0720
  173SAPI    C219571   6.063   5.794  10.282  0.1570  1.1605 -0.6815
  173SAPI    HS19572   6.119   5.700  10.262 -0.8853  0.4077 -0.1641
  173SAPI   O2119573   6.136   5.907  10.254 -0.6307 -0.2814  0.4783
  173SAPI   C2119574   6.264   5.891  10.225 -0.0158  0.4424 -0.9477
  173SAPI   O2219575   6.330   5.790  10.230 -0.1280  0.4388 -0.4730
  173SAPI   C2219576   6.324   6.023  10.176  0.1758 -0.8882  0.0839
  173SAPI   H2R19577   6.245   6.067  10.112 -0.3581 -1.1124  0.5800
  173SAPI   H2S19578   6.338   6.082  10.269  4.1507  2.3527 -2.2541
  173SAPI    C319579   5.940   5.783  10.188  0.0771 -0.7312  0.0949
  173SAPI    HX19580   5.896   5.884  10.178 -0.0688 -0.8923 -0.9977
  173SAPI    HY19581   5.854   5.726  10.230 -1.9595  2.6200  0.8230
  173SAPI   O3119582   5.972   5.723  10.063  0.0840  0.1215 -0.1346
  173SAPI   C3119583   6.021   5.815   9.971 -0.2164  0.1050 -0.0837
  173SAPI   O3219584   6.031   5.931   9.997 -0.5542  0.0669 -0.4142
  173SAPI   C3219585   6.076   5.734   9.850  0.2425 -0.8610 -0.1797
  173SAPI   H2X19586   5.995   5.689   9.790  0.5302 -1.8293  0.1487
  173SAPI   H2Y19587   6.133   5.649   9.893 -0.3124 -0.8911  0.5102
  173SAPI   C2319588   6.460   6.001  10.107 -0.3102  0.3082 -0.0043
  173SAPI   H3R19589   6.444   5.945  10.012 -0.1987  0.5766 -0.1796
  173SAPI   H3S19590   6.538   5.946  10.164  0.8108 -0.8558 -2.5049
  173SAPI   C2419591   6.529   6.135  10.065  1.0368 -0.2961  0.3225
  173SAPI   H4R19592   6.566   6.187  10.156  0.5218  1.2297 -0.3064
  173SAPI   H4S19593   6.454   6.194  10.008 -0.1017 -3.1238 -1.2665
  173SAPI   C2519594   6.653   6.101   9.986  0.1020  0.5792  0.3101
  173SAPI   H5R19595   6.755   6.123  10.020  0.7533  2.1426 -2.3497
  173SAPI   C2619596   6.648   6.061   9.853  0.7583  0.5415  0.1667
  173SAPI   H6R19597   6.743   6.033   9.804  1.5840 -0.1430  2.0596
  173SAPI   C2719598   6.530   6.047   9.760  0.0648 -0.1243 -0.0857
  173SAPI   H7R19599   6.541   6.110   9.669 -1.0168  0.0403 -0.1140
  173SAPI   H7S19600   6.437   6.077   9.813 -0.5200 -3.9831  1.4300
  173SAPI   C2819601   6.493   5.909   9.715  0.1770 -0.0606 -0.1986
  173SAPI   H8R19602   6.459   5.844   9.798 -0.0721  0.3154 -0.0042
  173SAPI   C2919603   6.494   5.870   9.588 -0.1485 -0.0863 -0.2999
  173SAPI   H9R19604   6.440   5.775   9.571  0.0903 -0.4427  0.8037
  173SAPI  C21019605   6.524   5.944   9.465  0.0970  0.1174 -0.3810
  173SAPI  H10R19606   6.474   6.043   9.465 -1.6564 -0.5402  4.0200
  173SAPI  H10S19607   6.487   5.895   9.372 -0.8930  1.4325 -0.7068
  173SAPI  C21119608   6.670   5.976   9.438  0.7272 -0.2911 -0.8001
  173SAPI  H11R19609   6.712   6.058   9.497  1.4741 -0.9883 -0.3432
  173SAPI  C21219610   6.746   5.934   9.339 -1.0645  0.2286 -0.0818
  173SAPI  H12R19611   6.851   5.960   9.319 -1.5357  1.5373 -1.0018
  173SAPI  C21319612   6.706   5.823   9.248  0.3776  0.3199 -0.0085
  173SAPI  H13R19613   6.634   5.760   9.305  1.0429 -0.7215 -0.2874
  173SAPI  H13S19614   6.787   5.747   9.243  0.7468  0.7098  0.0165
  173SAPI  C21419615   6.653   5.873   9.115  0.1696 -0.4800  0.0288
  173SAPI  H14R19616   6.576   5.951   9.118  1.6739  1.1159 -1.1010
  173SAPI  C21519617   6.703   5.836   8.998  0.2525  0.0183 -0.2946
  173SAPI  H15R19618   6.667   5.880   8.903  1.4210  0.8735 -0.3739
  173SAPI  C21619619   6.817   5.743   8.985 -0.4086 -0.5166  0.5153
  173SAPI  H16R19620   6.850   5.689   9.077 -0.9056 -0.2822  0.8392
  173SAPI  H16S19621   6.893   5.815   8.950 -1.0340  0.4421  1.0786
  173SAPI  C21719622   6.790   5.635   8.877 -0.0683  0.0359 -0.2209
  173SAPI  H17R19623   6.887   5.580   8.881 -0.6513 -0.9384  1.2887
  173SAPI  H17S19624   6.785   5.687   8.779  1.9343 -0.2158 -0.5069
  173SAPI  C21819625   6.669   5.542   8.879  0.4727  0.3951 -1.0363
  173SAPI  H18R19626   6.587   5.587   8.820 -1.7994 -1.1736  0.7001
  173SAPI  H18S19627   6.634   5.510   8.980 -2.3750 -1.6493 -2.5406
  173SAPI  C21919628   6.695   5.407   8.803 -0.5492 -0.7476  0.1319
  173SAPI  H19R19629   6.755   5.430   8.713  2.3394 -0.8942  1.8924
  173SAPI  H19S19630   6.598   5.370   8.764 -1.0916  1.3541 -0.6282
  173SAPI  C22019631   6.759   5.299   8.884 -0.0873  1.0001  0.6230
  173SAPI  H20R19632   6.730   5.197   8.848  3.2684  0.3386 -0.5092
  173SAPI  H20S19633   6.713   5.311   8.984 -0.9958  1.5448  0.1518
  173SAPI  H20T19634   6.869   5.298   8.893 -0.0425 -1.7465  0.8704
  173SAPI   C3319635   6.167   5.830   9.760 -0.3546 -0.7643 -0.3906
  173SAPI   H3X19636   6.232   5.779   9.687  0.2193  0.4042 -0.7120
  173SAPI   H3Y19637   6.240   5.877   9.829 -0.7283  1.4048 -1.3918
  173SAPI   C3419638   6.089   5.938   9.689  0.2204  0.3280 -0.3318
  173SAPI   H4X19639   6.157   6.003   9.630  0.1748  3.5715  2.9024
  173SAPI   H4Y19640   6.048   6.000   9.772  0.5895 -0.0870  0.1652
  173SAPI   C3519641   5.974   5.900   9.600 -0.1653 -0.3198  0.4876
  173SAPI   H5X19642   5.921   5.993   9.570  1.1587  0.0733 -0.7365
  173SAPI   H5Y19643   5.892   5.841   9.647  0.9209 -1.7774  0.6385
  173SAPI   C3619644   6.020   5.810   9.485  0.2018  1.0710  0.3616
  173SAPI   H6X19645   5.940   5.741   9.454  0.7029  0.6842 -0.0985
  173SAPI   H6Y19646   6.105   5.744   9.513  0.5089  1.3029 -0.0129
  173SAPI   C3719647   6.047   5.894   9.355  0.0378  0.5404 -0.6839
  173SAPI   H7X19648   6.104   5.988   9.372  1.3516 -0.2605 -0.5255
  173SAPI   H7Y19649   5.949   5.939   9.328  0.4168  0.8646 -1.5529
  173SAPI   C3819650   6.089   5.802   9.237  0.0381 -0.3631 -0.4493
  173SAPI   H8X19651   6.029   5.708   9.232 -1.2229  0.3699  0.5070
  173SAPI   H8Y19652   6.194   5.768   9.252  0.1946 -0.2622 -1.2601
  173SAPI   C3919653   6.085   5.872   9.100  0.5078 -0.5336 -0.8009
  173SAPI   H9X19654   6.128   5.974   9.098 -2.4453  0.8011 -2.6442
  173SAPI   H9Y19655   5.981   5.872   9.060  1.0324  0.6688 -2.2393
  173SAPI  C31019656   6.170   5.798   8.996 -0.0882  0.0062 -0.0574
  173SAPI  H10X19657   6.145   5.690   8.996  0.1068 -0.0428  0.6345
  173SAPI  H10Y19658   6.270   5.813   9.042  0.6652  1.5286 -2.0332
  173SAPI  C31119659   6.173   5.861   8.858 -0.6777  0.1239  0.2139
  173SAPI  H11X19660   6.207   5.967   8.857  1.6758 -0.5181  1.8116
  173SAPI  H11Y19661   6.077   5.858   8.803 -0.2073 -1.4221 -0.5768
  173SAPI  C31219662   6.288   5.790   8.777  0.2082 -0.3348  0.0582
  173SAPI  H12X19663   6.268   5.681   8.777 -0.0166 -0.2957 -0.1035
  173SAPI  H12Y19664   6.388   5.793   8.824  1.5383 -0.7311 -2.5513
  173SAPI  C31319665   6.304   5.858   8.627  0.2221 -0.9285  0.6467
  173SAPI  H13X19666   6.206   5.847   8.577 -0.9547  1.0064  2.3440
  173SAPI  H13Y19667   6.383   5.800   8.575 -1.9437 -1.5473 -2.1891
  173SAPI  C31419668   6.338   6.006   8.641 -0.7822 -0.3819 -0.4640
  173SAPI  H14X19669   6.411   6.036   8.718 -1.7439  2.4513 -0.5219
  173SAPI  H14Y19670   6.236   6.049   8.656 -0.3977  0.4556 -0.2186
  173SAPI  C31519671   6.373   6.056   8.499  0.4495  0.5482 -0.4725
  173SAPI  H15X19672   6.274   6.054   8.448 -1.6763  1.8484  3.1904
  173SAPI  H15Y19673   6.438   5.986   8.443 -1.9116 -3.5467  1.4432
  173SAPI  C31619674   6.433   6.195   8.498  0.1877  0.1018  0.0064
  173SAPI  H16X19675   6.534   6.186   8.542 -0.3746  1.3495  1.6462
  173SAPI  H16Y19676   6.375   6.255   8.571 -1.4324 -1.3131 -0.0546
  173SAPI  C31719677   6.428   6.264   8.358  0.0168  0.3959  0.8772
  173SAPI  H17X19678   6.481   6.359   8.380 -3.7784  2.5230  1.6512
  173SAPI  H17Y19679   6.326   6.289   8.325 -0.0683 -0.7202  0.2356
  173SAPI  C31819680   6.502   6.188   8.255 -0.0686  0.8694  1.0811
  173SAPI  H18X19681   6.432   6.157   8.175  0.6825 -2.0864  1.4644
  173SAPI  H18Y19682   6.555   6.102   8.301 -1.9152 -1.1719 -0.3830
  173SAPI  H18Z19683   6.585   6.249   8.214  1.5137 -0.0273  2.8056
  174SAPI   C1219684   2.365   6.084  11.014  0.1205  0.5028  0.9650
  174SAPI    H219685   2.436   6.002  11.040 -0.7767 -0.7442 -0.4152
  174SAPI    O219686   2.245   6.036  11.055  0.8761  0.4191 -1.1499
  174SAPI   HO219687   2.227   5.943  11.036 -4.0771  1.0380 -0.8029
  174SAPI   C1319688   2.406   6.200  11.094 -0.3289  0.0435 -0.0521
  174SAPI    H319689   2.505   6.234  11.057 -0.5376 -1.7745 -2.5130
  174SAPI    O319690   2.434   6.163  11.227  0.3135 -0.3550 -0.7847
  174SAPI   HO319691   2.386   6.085  11.255  1.1470 -0.2392  1.0960
  174SAPI   C1419692   2.311   6.320  11.084  0.1776 -0.4544  0.2043
  174SAPI    H419693   2.207   6.287  11.109 -0.5728  0.1826 -1.8555
  174SAPI    O419694   2.348   6.431  11.163  0.3474  0.5585  0.6007
  174SAPI   HO419695   2.322   6.415  11.254 -1.1566  0.4424  0.1799
  174SAPI   C1519696   2.312   6.358  10.935 -0.6234  0.0086 -0.0085
  174SAPI    H519697   2.416   6.387  10.907 -0.2146 -0.6639  0.7704
  174SAPI    O519698   2.236   6.481  10.905 -0.2448  0.1843 -0.2519
  174SAPI   HO519699   2.143   6.455  10.901 -1.0405  2.4347  1.3949
  174SAPI   C1619700   2.276   6.238  10.845  0.7770  0.6955 -0.1760
  174SAPI    H619701   2.176   6.197  10.870  1.0775  0.7381  1.1973
  174SAPI    O619702   2.285   6.275  10.702 -0.2344 -0.6336 -0.3533
  174SAPI   HO619703   2.196   6.276  10.668 -0.6068 -1.9032  0.4901
  174SAPI   C1119704   2.376   6.126  10.866 -0.0231  0.1375 -0.3872
  174SAPI    H119705   2.479   6.159  10.843  0.3608  0.8903  2.0362
  174SAPI     P19706   2.442   5.897  10.737  0.1613 -0.0499  0.1479
  174SAPI   O1319707   2.378   5.771  10.716  0.0862 -0.0178 -0.3832
  174SAPI   O1419708   2.574   5.900  10.812  0.1663  0.0824 -0.8878
  174SAPI   O1219709   2.334   6.011  10.785 -0.1970 -0.0973  0.1259
  174SAPI   O1119710   2.478   5.953  10.590  0.5848 -0.1894  0.7003
  174SAPI    C119711   2.594   5.915  10.523  0.3004  0.0024  0.5721
  174SAPI    HA19712   2.663   6.002  10.521 -0.4717  0.6599 -2.2630
  174SAPI    HB19713   2.633   5.818  10.560 -1.9748 -2.3020 -2.4928
  174SAPI    C219714   2.573   5.891  10.372 -0.6366 -0.1887 -0.0058
  174SAPI    HS19715   2.670   5.911  10.322 -1.4422  3.6726 -0.3199
  174SAPI   O2119716   2.481   5.995  10.320 -0.6674 -0.1981  0.4932
  174SAPI   C2119717   2.492   6.035  10.192  0.2901 -0.2018 -0.4112
  174SAPI   O2219718   2.575   6.000  10.114  0.1953 -0.4140  0.1085
  174SAPI   C2219719   2.383   6.138  10.168 -0.6243 -0.4163 -0.0020
  174SAPI   H2R19720   2.289   6.079  10.157 -0.7291 -0.9708  2.9540
  174SAPI   H2S19721   2.377   6.192  10.265  2.7887 -2.0834  1.2659
  174SAPI    C319722   2.518   5.750  10.355  0.6151  0.0330  0.2674
  174SAPI    HX19723   2.435   5.741  10.429  1.2901 -4.3222  0.7579
  174SAPI    HY19724   2.592   5.678  10.394 -0.5633 -0.7968  1.0636
  174SAPI   O3119725   2.460   5.719  10.220 -0.4278 -0.3398  0.3390
  174SAPI   C3119726   2.540   5.648  10.141  0.0166 -0.0101 -0.4069
  174SAPI   O3219727   2.660   5.628  10.161 -0.6579 -0.3477  0.1952
  174SAPI   C3219728   2.461   5.595  10.022  0.0740  0.5411  0.4167
  174SAPI   H2X19729   2.385   5.523  10.058  0.1325  0.6573  0.7766
  174SAPI   H2Y19730   2.526   5.535   9.956  0.7200  0.3101  1.2436
  174SAPI   C2319731   2.411   6.228  10.041 -0.0421  0.1153  0.2868
  174SAPI   H3R19732   2.396   6.160   9.955 -0.5434 -0.4569  0.8182
  174SAPI   H3S19733   2.519   6.251  10.051  0.2340 -1.2669  0.6041
  174SAPI   C2419734   2.323   6.353  10.029 -0.1393 -0.5743  0.3094
  174SAPI   H4R19735   2.341   6.411  10.122 -0.9172 -0.5130  0.4236
  174SAPI   H4S19736   2.215   6.328  10.027 -0.2229 -0.4878  2.3548
  174SAPI   C2519737   2.362   6.433   9.907 -0.1742 -0.6976 -0.9081
  174SAPI   H5R19738   2.428   6.516   9.940 -0.1068 -1.0413 -0.1496
  174SAPI   C2619739   2.343   6.410   9.775  0.3051  0.4954 -0.0158
  174SAPI   H6R19740   2.363   6.490   9.703 -0.3154  1.4612  0.8585
  174SAPI   C2719741   2.259   6.293   9.724  0.1033 -0.2848  0.2031
  174SAPI   H7R19742   2.181   6.266   9.797 -1.6857 -0.0566 -1.5296
  174SAPI   H7S19743   2.319   6.200   9.709 -0.1438 -0.1263 -2.2987
  174SAPI   C2819744   2.184   6.324   9.595  0.7235  0.3370 -0.5086
  174SAPI   H8R19745   2.089   6.379   9.603  1.2851  2.0749 -3.8534
  174SAPI   C2919746   2.231   6.289   9.472  0.0373 -0.0152  0.5659
  174SAPI   H9R19747   2.180   6.333   9.385  1.7113  0.8849 -0.0059
  174SAPI  C21019748   2.359   6.228   9.435  0.1822  0.0262 -0.1845
  174SAPI  H10R19749   2.417   6.189   9.521 -0.4491  0.2444  0.3515
  174SAPI  H10S19750   2.424   6.315   9.410  1.9426 -1.4380 -0.9000
  174SAPI  C21119751   2.344   6.114   9.333  0.5360  0.5617  0.6661
  174SAPI  H11R19752   2.330   6.010   9.364 -0.7249  0.7771  0.8470
  174SAPI  C21219753   2.347   6.128   9.201 -0.2775 -0.3693  0.0602
  174SAPI  H12R19754   2.353   6.035   9.143  0.6696 -1.5475  1.9449
  174SAPI  C21319755   2.368   6.256   9.130 -0.3210  0.1260  1.2858
  174SAPI  H13R19756   2.376   6.352   9.187 -0.4308  0.3870  0.8656
  174SAPI  H13S19757   2.284   6.276   9.061  1.9272  2.1218 -1.0990
  174SAPI  C21419758   2.490   6.244   9.042 -0.1440 -0.3264  1.0686
  174SAPI  H14R19759   2.568   6.311   9.080 -1.1588  0.3380  2.0140
  174SAPI  C21519760   2.519   6.157   8.935  0.3019 -0.8562  0.8920
  174SAPI  H15R19761   2.620   6.153   8.891  0.6192  2.7450  0.9860
  174SAPI  C21619762   2.421   6.055   8.873  0.4161  0.6546  0.0422
  174SAPI  H16R19763   2.321   6.052   8.921 -0.8437 -0.6612 -2.4193
  174SAPI  H16S19764   2.472   5.956   8.876  1.5056  1.2232  2.4426
  174SAPI  C21719765   2.393   6.083   8.719 -0.0652 -0.2275  0.3888
  174SAPI  H17R19766   2.349   5.993   8.672 -0.9323  0.6555 -0.5691
  174SAPI  H17S19767   2.491   6.103   8.670 -0.2824 -0.0122  0.0384
  174SAPI  C21819768   2.308   6.205   8.693 -0.1262  0.4926 -0.4763
  174SAPI  H18R19769   2.357   6.301   8.722 -1.5507  1.2714 -0.5406
  174SAPI  H18S19770   2.224   6.192   8.765  0.4916 -1.4099 -0.0616
  174SAPI  C21919771   2.261   6.208   8.548  1.0025 -0.0485  0.0598
  174SAPI  H19R19772   2.189   6.128   8.520 -0.6502  0.5195  2.3838
  174SAPI  H19S19773   2.347   6.200   8.479  0.7717 -1.7456 -0.0694
  174SAPI  C22019774   2.187   6.336   8.513  0.6008  1.0266 -0.7917
  174SAPI  H20R19775   2.139   6.334   8.413  0.8287 -2.2422 -0.9281
  174SAPI  H20S19776   2.252   6.426   8.521 -0.4381  1.8374 -1.3152
  174SAPI  H20T19777   2.112   6.354   8.593 -0.2382 -0.1591 -1.2926
  174SAPI   C3319778   2.376   5.697   9.937  0.3954  0.5551 -0.1512
  174SAPI   H3X19779   2.321   5.768  10.002 -1.8283  1.3160 -2.7207
  174SAPI   H3Y19780   2.306   5.634   9.879  1.9999 -1.1072 -0.4029
  174SAPI   C3419781   2.466   5.777   9.843 -0.0707 -0.2766 -0.3845
  174SAPI   H4X19782   2.533   5.713   9.781  0.1650 -0.9258  0.5058
  174SAPI   H4Y19783   2.535   5.832   9.911 -1.0954  0.4837  0.0528
  174SAPI   C3519784   2.393   5.894   9.763 -0.5976  0.2590 -0.4444
  174SAPI   H5X19785   2.465   5.953   9.702  0.7109 -0.8427 -0.0111
  174SAPI   H5Y19786   2.330   5.960   9.827  0.0455 -1.7450  2.4182
  174SAPI   C3619787   2.296   5.828   9.665 -0.3615  0.0970  0.0347
  174SAPI   H6X19788   2.221   5.895   9.617 -0.9232 -1.1439 -0.8788
  174SAPI   H6Y19789   2.234   5.754   9.720  0.1576  0.1379  0.6841
  174SAPI   C3719790   2.378   5.760   9.550  0.2687 -0.9043 -0.5225
  174SAPI   H7X19791   2.471   5.719   9.594 -0.7048 -0.5271  2.0958
  174SAPI   H7Y19792   2.404   5.853   9.495  0.8026  0.2623  1.5924
  174SAPI   C3819793   2.305   5.664   9.468 -0.8031 -0.1037  0.6370
  174SAPI   H8X19794   2.217   5.726   9.440  0.7675  1.6615 -0.7003
  174SAPI   H8Y19795   2.264   5.573   9.517 -1.3127 -0.8028 -1.0140
  174SAPI   C3919796   2.382   5.630   9.338  0.6174 -0.2813  0.1758
  174SAPI   H9X19797   2.434   5.532   9.338 -1.2184 -1.3128 -0.9269
  174SAPI   H9Y19798   2.453   5.713   9.319 -0.1859  0.3071 -0.3315
  174SAPI  C31019799   2.282   5.630   9.223 -0.2566 -0.1333  0.1355
  174SAPI  H10X19800   2.216   5.719   9.227 -1.6185 -1.0592 -0.6146
  174SAPI  H10Y19801   2.214   5.542   9.235  0.6880 -0.8327  0.4510
  174SAPI  C31119802   2.333   5.608   9.081 -0.7001 -0.3234 -0.2552
  174SAPI  H11X19803   2.401   5.520   9.075  0.9531  0.9803 -2.5576
  174SAPI  H11Y19804   2.398   5.696   9.063 -0.2861 -0.1793  1.7882
  174SAPI  C31219805   2.219   5.583   8.977  0.5737  0.0494  0.5113
  174SAPI  H12X19806   2.172   5.683   8.962 -1.6288 -1.1203 -1.0127
  174SAPI  H12Y19807   2.141   5.523   9.028  1.3763 -3.1919 -1.7601
  174SAPI  C31319808   2.262   5.516   8.845  0.4284  1.1170  1.3658
  174SAPI  H13X19809   2.306   5.418   8.871  0.1637  0.8113  0.6878
  174SAPI  H13Y19810   2.346   5.568   8.793 -0.9677 -1.2004 -3.9469
  174SAPI  C31419811   2.160   5.497   8.730 -0.3538  0.2701 -0.0388
  174SAPI  H14X19812   2.058   5.468   8.763 -0.6385  1.0393 -0.2119
  174SAPI  H14Y19813   2.196   5.411   8.669 -0.8342 -0.4442  0.6629
  174SAPI  C31519814   2.146   5.627   8.655 -0.4383  0.2248  0.4370
  174SAPI  H15X19815   2.234   5.642   8.589  0.4991  0.2311  1.6534
  174SAPI  H15Y19816   2.128   5.719   8.715 -0.4256  1.2048 -1.0320
  174SAPI  C31619817   2.026   5.625   8.554  0.5376 -0.3954  0.0247
  174SAPI  H16X19818   1.933   5.633   8.615  1.5287  1.1146  1.4031
  174SAPI  H16Y19819   2.032   5.527   8.502 -0.0891 -0.6496  0.4079
  174SAPI  C31719820   2.033   5.746   8.459  0.9900 -0.1886 -0.0268
  174SAPI  H17X19821   1.967   5.732   8.371  1.1913 -2.5663  0.1230
  174SAPI  H17Y19822   2.130   5.747   8.405 -0.7558 -1.8455 -3.5406
  174SAPI  C31819823   1.986   5.876   8.533  0.3481  0.3383 -0.3892
  174SAPI  H18X19824   1.971   5.967   8.471  1.4576  3.0676  3.0085
  174SAPI  H18Y19825   2.067   5.901   8.606  0.3763  1.8201 -0.8988
  174SAPI  H18Z19826   1.900   5.852   8.599  1.7813 -0.2787  1.3311
  175SAPI   C1219827   0.782   4.278   6.330 -0.3627 -0.9672 -0.2510
  175SAPI    H219828   0.799   4.296   6.438  2.1928  0.8849 -0.8607
  175SAPI    O219829   0.909   4.265   6.274  0.3673  0.3099  0.2594
  175SAPI   HO219830   0.937   4.355   6.259  0.3770  0.1807 -0.5554
  175SAPI   C1319831   0.704   4.141   6.321  0.1500  0.1919 -0.2460
  175SAPI    H319832   0.602   4.146   6.365 -0.5677 -1.6258 -1.5969
  175SAPI    O319833   0.766   4.024   6.393  0.3374 -0.5123 -0.6423
  175SAPI   HO319834   0.857   4.021   6.364  0.2752 -0.8817 -0.7986
  175SAPI   C1419835   0.676   4.098   6.172  0.1759  0.4159 -0.3505
  175SAPI    H419836   0.774   4.085   6.121  0.8083 -1.3580  1.2264
  175SAPI    O419837   0.610   3.972   6.160  0.2664  0.2696 -0.0887
  175SAPI   HO419838   0.673   3.900   6.172  0.0041 -0.4007 -2.1729
  175SAPI   C1519839   0.592   4.213   6.106  0.4774  0.3808  0.1783
  175SAPI    H519840   0.497   4.223   6.162  1.5368  1.2797  1.9139
  175SAPI    O519841   0.576   4.182   5.971 -0.1890 -0.3900  0.4288
  175SAPI   HO519842   0.488   4.149   5.955 -0.6503  0.7537  0.5673
  175SAPI   C1619843   0.663   4.351   6.122 -0.5089 -0.1678 -0.2814
  175SAPI    H619844   0.755   4.347   6.060 -0.3829 -1.1815 -0.0460
  175SAPI    O619845   0.582   4.452   6.062 -0.2588 -0.1805 -0.3347
  175SAPI   HO619846   0.635   4.527   6.035 -0.0088 -0.8747 -1.8779
  175SAPI   C1119847   0.701   4.387   6.263  0.3295 -0.1881 -0.5087
  175SAPI    H119848   0.608   4.400   6.322  1.7427  3.6908  1.1801
  175SAPI     P19849   0.752   4.628   6.376  0.2876  0.0116  0.2756
  175SAPI   O1319850   0.605   4.639   6.386  0.4983  0.1990 -0.6081
  175SAPI   O1419851   0.829   4.748   6.332  0.7309  0.3685  0.5478
  175SAPI   O1219852   0.775   4.510   6.264 -0.2685 -1.0374 -0.2422
  175SAPI   O1119853   0.819   4.567   6.505  0.0946 -0.8078 -0.6122
  175SAPI    C119854   0.790   4.610   6.639  0.7587 -0.2553  0.2721
  175SAPI    HA19855   0.768   4.719   6.633  1.5101 -0.1617 -1.0086
  175SAPI    HB19856   0.698   4.557   6.672 -1.5993  1.7487 -2.5193
  175SAPI    C219857   0.896   4.563   6.728 -0.0686  0.3814 -0.6769
  175SAPI    HS19858   0.902   4.453   6.722 -1.3708  0.1125  1.8343
  175SAPI   O2119859   0.875   4.592   6.870 -0.6980 -0.9460  0.3818
  175SAPI   C2119860   0.778   4.539   6.936 -0.0501  0.2490 -0.3955
  175SAPI   O2219861   0.711   4.447   6.885  0.2126 -0.4597  0.5336
  175SAPI   C2219862   0.767   4.599   7.074  0.1995  0.7399  0.3413
  175SAPI   H2R19863   0.854   4.554   7.126  0.0462 -1.4577 -1.1985
  175SAPI   H2S19864   0.781   4.709   7.069 -3.3021  1.3427  1.3851
  175SAPI    C319865   1.029   4.620   6.683  0.1962  0.1657 -0.9178
  175SAPI    HX19866   1.021   4.730   6.670  0.4183  0.4252  0.9897
  175SAPI    HY19867   1.050   4.587   6.579 -0.6112 -0.5574 -0.8688
  175SAPI   O3119868   1.137   4.605   6.775 -0.3992  0.0001  0.7801
  175SAPI   C3119869   1.210   4.495   6.764  0.7440 -0.5518  0.5754
  175SAPI   O3219870   1.201   4.412   6.682  0.0634  0.5163  0.2580
  175SAPI   C3219871   1.312   4.497   6.876  0.9837  0.3944  0.4322
  175SAPI   H2X19872   1.248   4.477   6.964  2.0837 -0.0301  1.1437
  175SAPI   H2Y19873   1.351   4.601   6.874  0.8975  0.4263 -0.5940
  175SAPI   C2319874   0.633   4.570   7.150  0.0983  0.0956  0.2474
  175SAPI   H3R19875   0.620   4.464   7.182  0.3555 -0.0783 -0.2092
  175SAPI   H3S19876   0.551   4.588   7.079  0.1920 -0.8459 -0.1137
  175SAPI   C2419877   0.614   4.668   7.271 -0.1964  0.3816 -0.0079
  175SAPI   H4R19878   0.613   4.771   7.231  0.0537 -0.2115 -1.6214
  175SAPI   H4S19879   0.696   4.637   7.339 -0.6221 -0.3295  0.1906
  175SAPI   C2519880   0.493   4.641   7.357 -0.2798  0.6551 -0.9561
  175SAPI   H5R19881   0.443   4.544   7.357 -0.6687  0.7621  1.7720
  175SAPI   C2619882   0.443   4.729   7.445 -0.1656 -0.1102 -0.0956
  175SAPI   H6R19883   0.355   4.713   7.509 -0.7045 -0.8689 -0.9977
  175SAPI   C2719884   0.499   4.868   7.456 -1.1662 -0.4471 -0.1185
  175SAPI   H7R19885   0.607   4.877   7.434 -0.7902  0.0844  1.7667
  175SAPI   H7S19886   0.498   4.902   7.562  1.5894 -1.4368  0.2987
  175SAPI   C2819887   0.430   4.970   7.367 -0.3759 -0.2005  0.3085
  175SAPI   H8R19888   0.468   4.982   7.264 -2.4447  0.8530 -0.3774
  175SAPI   C2919889   0.312   5.034   7.393 -0.8563  0.3663  0.0850
  175SAPI   H9R19890   0.284   5.096   7.306  0.8914 -1.0011 -1.5391
  175SAPI  C21019891   0.237   5.033   7.521 -0.1745 -0.0828 -1.0017
  175SAPI  H10R19892   0.265   4.946   7.585  0.9301  0.7142 -0.3581
  175SAPI  H10S19893   0.129   5.012   7.505 -0.2291 -0.7681  0.1587
  175SAPI  C21119894   0.227   5.165   7.595  0.1997 -1.1127  0.1481
  175SAPI  H11R19895   0.203   5.250   7.529  2.1802 -0.8528 -0.3074
  175SAPI  C21219896   0.249   5.178   7.729  0.7294 -0.3381  0.4551
  175SAPI  H12R19897   0.248   5.274   7.783 -3.9000 -0.3477  0.7632
  175SAPI  C21319898   0.274   5.070   7.826 -0.3528  0.7202 -0.4271
  175SAPI  H13R19899   0.218   4.980   7.793  2.1845 -0.5093 -1.6858
  175SAPI  H13S19900   0.227   5.096   7.924 -0.9058 -2.8663  0.3997
  175SAPI  C21419901   0.410   5.017   7.838  0.0199 -0.0277 -0.1063
  175SAPI  H14R19902   0.472   5.016   7.746  0.7675 -4.2032  0.2425
  175SAPI  C21519903   0.476   4.979   7.950 -1.2459 -0.4919  0.5306
  175SAPI  H15R19904   0.579   4.941   7.946 -1.3474 -0.6689 -0.8936
  175SAPI  C21619905   0.422   4.974   8.081  0.3556 -0.0702 -0.1124
  175SAPI  H16R19906   0.332   5.037   8.094  0.9568  1.4304 -2.5309
  175SAPI  H16S19907   0.495   5.018   8.153 -0.2913  0.3129  0.3223
  175SAPI  C21719908   0.392   4.833   8.125  1.0810 -0.3479  0.5648
  175SAPI  H17R19909   0.494   4.790   8.136  2.5461  2.4173 -1.1605
  175SAPI  H17S19910   0.322   4.786   8.052  1.7971  1.2239 -1.2075
  175SAPI  C21819911   0.325   4.806   8.262 -0.2945  0.0976 -0.7056
  175SAPI  H18R19912   0.367   4.877   8.337 -0.1614  0.5665 -1.2169
  175SAPI  H18S19913   0.358   4.705   8.294 -2.1421 -0.4232 -0.3387
  175SAPI  C21919914   0.178   4.835   8.265  0.4746  0.1797  0.0550
  175SAPI  H19R19915   0.119   4.758   8.211  0.4196  0.4186 -0.2273
  175SAPI  H19S19916   0.157   4.936   8.223 -0.7917 -0.7362 -1.6136
  175SAPI  C22019917   0.124   4.837   8.409  0.1511 -0.6727 -0.3647
  175SAPI  H20R19918   0.023   4.884   8.407  0.1229 -0.7185 -0.0510
  175SAPI  H20S19919   0.196   4.897   8.468  0.7958 -2.6193  0.9291
  175SAPI  H20T19920   0.120   4.732   8.446  2.3102 -0.6824 -0.0120
  175SAPI   C3319921   1.415   4.378   6.862 -0.4345  0.5877 -0.5383
  175SAPI   H3X19922   1.472   4.387   6.767  0.3107  0.0730 -0.1476
  175SAPI   H3Y19923   1.363   4.280   6.869  0.8077 -0.1471 -1.2470
  175SAPI   C3419924   1.516   4.383   6.982  0.1147 -0.3884 -0.2426
  175SAPI   H4X19925   1.547   4.489   6.994 -1.8639  0.1195  0.7948
  175SAPI   H4Y19926   1.614   4.338   6.957  2.4443  2.2870  3.0920
  175SAPI   C3519927   1.469   4.352   7.125 -0.6579 -0.2085 -0.1095
  175SAPI   H5X19928   1.552   4.329   7.195 -0.9200  4.3016  2.0798
  175SAPI   H5Y19929   1.414   4.256   7.123 -0.4311 -0.3294 -1.3328
  175SAPI   C3619930   1.372   4.450   7.198  0.4871  0.3594 -0.6941
  175SAPI   H6X19931   1.272   4.437   7.151 -0.7223 -3.7785  2.4323
  175SAPI   H6Y19932   1.410   4.554   7.190  1.8650 -0.0034  0.7732
  175SAPI   C3719933   1.352   4.411   7.345 -0.2115 -0.3124  0.2603
  175SAPI   H7X19934   1.321   4.305   7.352 -0.3698 -0.2952 -0.1482
  175SAPI   H7Y19935   1.271   4.473   7.389  0.6120  0.3246  0.9199
  175SAPI   C3819936   1.479   4.444   7.435  0.9412  0.6760  0.5164
  175SAPI   H8X19937   1.499   4.552   7.421 -1.0574  0.8485 -1.6516
  175SAPI   H8Y19938   1.570   4.387   7.405  0.5341 -0.8326  1.9798
  175SAPI   C3919939   1.460   4.401   7.583 -0.3931  0.0752  0.1716
  175SAPI   H9X19940   1.411   4.302   7.587  0.5912 -0.4161  0.3302
  175SAPI   H9Y19941   1.390   4.459   7.646 -0.9412 -1.5547  1.1239
  175SAPI  C31019942   1.588   4.390   7.667  0.0558  0.3809  0.4815
  175SAPI  H10X19943   1.625   4.495   7.660 -0.7986  0.5905 -1.9374
  175SAPI  H10Y19944   1.669   4.331   7.620 -2.0682 -3.3513  1.1270
  175SAPI  C31119945   1.584   4.358   7.813 -0.0774  0.3968  0.5328
  175SAPI  H11X19946   1.529   4.431   7.876  1.3187  1.1940  0.8829
  175SAPI  H11Y19947   1.687   4.365   7.854 -0.1874  1.6575  0.6408
  175SAPI  C31219948   1.517   4.215   7.828 -0.2032  0.6806  0.0174
  175SAPI  H12X19949   1.558   4.150   7.748 -2.9807 -0.3759 -0.6642
  175SAPI  H12Y19950   1.407   4.217   7.816 -0.8073 -2.6677  3.3002
  175SAPI  C31319951   1.554   4.160   7.966 -0.0310 -0.5454  0.2063
  175SAPI  H13X19952   1.496   4.220   8.039 -1.1887 -0.6512 -0.6035
  175SAPI  H13Y19953   1.663   4.172   7.984  0.5935  0.2388 -3.3224
  175SAPI  C31419954   1.518   4.011   7.986 -0.1481 -0.3083 -0.0123
  175SAPI  H14X19955   1.567   3.952   7.905  0.6541 -1.5824  1.3644
  175SAPI  H14Y19956   1.409   3.993   7.967 -0.6735 -0.1376  2.5157
  175SAPI  C31519957   1.545   3.966   8.130  0.4084  0.0830 -0.8949
  175SAPI  H15X19958   1.653   3.946   8.145  0.0197 -0.2972  1.7307
  175SAPI  H15Y19959   1.510   3.865   8.157  2.3738 -0.0223  1.6099
  175SAPI  C31619960   1.496   4.051   8.248  0.1074 -0.6544 -0.0921
  175SAPI  H16X19961   1.390   4.081   8.230  0.6091  2.3459  1.3822
  175SAPI  H16Y19962   1.545   4.151   8.244 -1.9109  0.4522  1.0150
  175SAPI  C31719963   1.510   3.974   8.381  0.5549 -0.1361  0.1786
  175SAPI  H17X19964   1.617   3.958   8.407  1.1328  0.9661 -1.3243
  175SAPI  H17Y19965   1.468   3.871   8.375  3.0720 -1.2018 -0.4522
  175SAPI  C31819966   1.444   4.040   8.499  0.0806  0.1004 -0.0029
  175SAPI  H18X19967   1.406   3.962   8.569  1.1094 -0.2932  0.1275
  175SAPI  H18Y19968   1.348   4.091   8.475 -0.2265 -0.9820 -1.2022
  175SAPI  H18Z19969   1.508   4.110   8.557 -0.2411  0.3859  0.0156
  176SAPI   C1219970   6.060   3.239   6.556 -0.3436 -0.2785  0.0474
  176SAPI    H219971   6.051   3.163   6.636 -0.0691 -0.4040 -0.0399
  176SAPI    O219972   6.005   3.190   6.434 -0.3039  0.0409 -0.3838
  176SAPI   HO219973   6.010   3.094   6.429 -0.0287  0.1061 -2.4248
  176SAPI   C1319974   5.990   3.362   6.604 -0.5590  0.5052  0.1028
  176SAPI    H319975   6.031   3.397   6.701  0.6042  0.6997 -0.4306
  176SAPI    O319976   5.856   3.328   6.641 -0.2460  0.1526  0.2903
  176SAPI   HO319977   5.809   3.304   6.561 -0.0714 -1.0241  0.5307
  176SAPI   C1419978   6.000   3.471   6.497  0.7156  0.0391  0.5844
  176SAPI    H419979   5.960   3.430   6.401 -0.3396  0.6294  0.7604
  176SAPI    O419980   5.928   3.587   6.520 -0.0032 -0.3594  0.1943
  176SAPI   HO419981   5.866   3.595   6.447  1.3383  2.6107 -0.7879
  176SAPI   C1519982   6.146   3.503   6.477 -0.2399 -0.2493  0.3447
  176SAPI    H519983   6.178   3.531   6.580  1.1480 -0.4775 -0.0030
  176SAPI    O519984   6.171   3.610   6.382  0.1432 -0.2558 -0.1025
  176SAPI   HO519985   6.226   3.575   6.311  0.0974 -0.4704 -0.0326
  176SAPI   C1619986   6.225   3.379   6.442  0.6790  0.4544  0.1573
  176SAPI    H619987   6.186   3.341   6.345  2.1430 -1.9631  0.4615
  176SAPI    O619988   6.358   3.407   6.413 -0.5239  0.4162 -0.2319
  176SAPI   HO619989   6.419   3.356   6.467  0.1963  2.0264  0.5358
  176SAPI   C1119990   6.210   3.266   6.542  0.0750 -0.5920  0.1576
  176SAPI    H119991   6.248   3.299   6.641 -1.8682 -0.8001  1.0291
  176SAPI     P19992   6.421   3.110   6.544  0.1569 -0.1642 -0.1185
  176SAPI   O1319993   6.494   3.240   6.551 -0.3621  0.3579 -0.6806
  176SAPI   O1419994   6.476   3.004   6.457 -0.3744  0.0615 -0.1142
  176SAPI   O1219995   6.261   3.143   6.499 -0.0860 -0.4914  0.0387
  176SAPI   O1119996   6.401   3.053   6.687  0.0464 -0.2807 -0.2548
  176SAPI    C119997   6.291   2.967   6.721  0.1982  0.2158 -0.6172
  176SAPI    HA19998   6.205   3.030   6.752  0.1440 -0.3407  0.3806
  176SAPI    HB19999   6.249   2.912   6.633  1.1258 -1.0759 -0.2844
  176SAPI    C220000   6.330   2.860   6.826  0.2680  0.1540  0.2553
  176SAPI    HS20001   6.245   2.790   6.841  2.3257 -2.7745 -0.8491
  176SAPI   O2120002   6.387   2.904   6.950  0.2257 -0.0192  0.3388
  176SAPI   C2120003   6.311   2.982   7.022 -1.3685 -0.2737 -0.5536
  176SAPI   O2220004   6.197   3.016   7.008  0.1581  0.2207 -0.2611
  176SAPI   C2220005   6.386   3.014   7.154 -0.3220 -0.3543  0.0542
  176SAPI   H2R20006   6.446   2.928   7.192  0.0216 -0.9391 -1.7481
  176SAPI   H2S20007   6.462   3.091   7.128 -0.8902  0.2338  0.1285
  176SAPI    C320008   6.424   2.765   6.759  0.1184  0.0449 -0.4064
  176SAPI    HX20009   6.514   2.819   6.724 -0.9302  1.2129 -1.3957
  176SAPI    HY20010   6.375   2.729   6.666 -0.8286  1.1228 -0.3558
  176SAPI   O3120011   6.448   2.646   6.845 -0.0460  0.6402 -0.5644
  176SAPI   C3120012   6.567   2.648   6.904 -0.6132  0.1752  0.1776
  176SAPI   O3220013   6.653   2.730   6.882 -0.3609 -0.1026 -0.1669
  176SAPI   C3220014   6.571   2.545   7.020  0.1432  0.7341 -0.8116
  176SAPI   H2X20015   6.660   2.571   7.081  1.4889 -2.5721 -1.1622
  176SAPI   H2Y20016   6.601   2.447   6.977  0.5843 -0.7413  2.4989
  176SAPI   C2320017   6.283   3.066   7.256 -0.0210  0.2166  0.4222
  176SAPI   H3R20018   6.200   2.992   7.263 -1.4782  1.8197  0.6455
  176SAPI   H3S20019   6.243   3.165   7.225  1.0319  0.6599  0.4390
  176SAPI   C2420020   6.341   3.067   7.403  0.4311  0.3310  0.5254
  176SAPI   H4R20021   6.442   3.113   7.411 -0.4090  2.3099  0.3407
  176SAPI   H4S20022   6.354   2.961   7.434  0.9852  0.6168  1.3090
  176SAPI   C2520023   6.241   3.143   7.479  0.8306  0.1754  0.9247
  176SAPI   H5R20024   6.185   3.220   7.423  1.2360 -0.4564 -0.3877
  176SAPI   C2620025   6.225   3.148   7.610 -0.3894  0.0804 -0.1915
  176SAPI   H6R20026   6.144   3.212   7.648 -2.1214 -3.1406  1.9891
  176SAPI   C2720027   6.293   3.080   7.727  0.1316 -0.4537 -0.4238
  176SAPI   H7R20028   6.321   3.153   7.805  1.7343 -1.8322  0.3309
  176SAPI   H7S20029   6.384   3.037   7.681  0.1636  0.4421 -1.2413
  176SAPI   C2820030   6.210   2.971   7.785 -0.4864  0.1513 -0.5812
  176SAPI   H8R20031   6.195   2.879   7.726 -0.3693 -2.4516  3.1358
  176SAPI   C2920032   6.137   2.979   7.898  0.4417 -0.0308  0.9988
  176SAPI   H9R20033   6.069   2.896   7.921 -0.2490  0.4144  0.5951
  176SAPI  C21020034   6.130   3.096   7.993 -0.0707  0.2441  0.7223
  176SAPI  H10R20035   6.036   3.151   7.968 -0.9129 -0.7772  1.5494
  176SAPI  H10S20036   6.219   3.160   7.979 -0.3732  0.2845 -1.2934
  176SAPI  C21120037   6.108   3.043   8.137  0.8597 -0.3558  0.1368
  176SAPI  H11R20038   6.058   2.945   8.146 -0.0374  0.2805  2.7640
  176SAPI  C21220039   6.116   3.131   8.237 -0.0340  0.0515 -0.0416
  176SAPI  H12R20040   6.093   3.104   8.341  0.3022  1.6772  0.4880
  176SAPI  C21320041   6.156   3.280   8.229 -0.5385 -0.6316 -0.5050
  176SAPI  H13R20042   6.127   3.342   8.142  2.3716  2.9224  0.7684
  176SAPI  H13S20043   6.266   3.272   8.212  0.0124  3.7068 -0.2322
  176SAPI  C21420044   6.131   3.356   8.356  0.4462 -0.7636 -1.1878
  176SAPI  H14R20045   6.220   3.393   8.408  0.2039  0.4847 -1.6387
  176SAPI  C21520046   6.015   3.406   8.399 -0.2199 -0.9327  0.7396
  176SAPI  H15R20047   6.012   3.461   8.494 -2.1924  1.7068 -0.7105
  176SAPI  C21620048   5.883   3.390   8.331 -0.0709  0.2391  0.3350
  176SAPI  H16R20049   5.881   3.322   8.244  1.5023  2.0668 -1.2347
  176SAPI  H16S20050   5.866   3.491   8.288 -1.1679  0.5951  1.5438
  176SAPI  C21720051   5.764   3.357   8.427  0.5468 -0.0057  0.6079
  176SAPI  H17R20052   5.773   3.251   8.458 -1.3356  0.3507  2.6010
  176SAPI  H17S20053   5.676   3.363   8.360  0.6535 -0.5723  0.4152
  176SAPI  C21820054   5.747   3.457   8.547 -0.3903  0.0558 -0.2885
  176SAPI  H18R20055   5.720   3.557   8.508 -0.2733  0.6411  1.0587
  176SAPI  H18S20056   5.847   3.466   8.594 -0.8947  2.1108  0.4881
  176SAPI  C21920057   5.648   3.392   8.643  0.1529 -0.5050 -0.8045
  176SAPI  H19R20058   5.685   3.291   8.671 -0.4274 -1.0210 -1.8457
  176SAPI  H19S20059   5.558   3.371   8.581 -0.8686 -0.8114  0.7197
  176SAPI  C22020060   5.616   3.467   8.770  0.1006  0.2348  0.1285
  176SAPI  H20R20061   5.551   3.409   8.840 -0.1060  0.1163 -0.1621
  176SAPI  H20S20062   5.583   3.571   8.751  4.0267  2.1567  2.4029
  176SAPI  H20T20063   5.707   3.484   8.832  1.4756 -0.2159 -1.6981
  176SAPI   C3320064   6.434   2.517   7.091  0.9086 -0.1658 -0.1387
  176SAPI   H3X20065   6.429   2.416   7.137 -1.9100 -0.6219 -1.2230
  176SAPI   H3Y20066   6.353   2.501   7.016  1.3430 -0.7598 -0.4860
  176SAPI   C3420067   6.400   2.621   7.199 -0.0036 -0.0855 -0.4638
  176SAPI   H4X20068   6.306   2.588   7.247  0.4972  1.2386  1.5725
  176SAPI   H4Y20069   6.388   2.726   7.166 -1.5720  0.6860  2.2482
  176SAPI   C3520070   6.513   2.632   7.309  0.2217 -0.4391 -0.7050
  176SAPI   H5X20071   6.478   2.703   7.388  1.6586 -1.8557  1.3194
  176SAPI   H5Y20072   6.607   2.668   7.262  0.3799 -1.2137 -0.9797
  176SAPI   C3620073   6.545   2.501   7.387 -0.0731  0.8162  0.7854
  176SAPI   H6X20074   6.620   2.441   7.332 -1.1430 -0.2933  0.5059
  176SAPI   H6Y20075   6.456   2.435   7.395  1.4342 -2.0307 -2.8777
  176SAPI   C3720076   6.601   2.526   7.526  0.0043  0.0071 -0.3285
  176SAPI   H7X20077   6.543   2.600   7.586  0.2277 -0.2622  0.2273
  176SAPI   H7Y20078   6.700   2.572   7.509 -0.1493 -0.3185 -2.3135
  176SAPI   C3820079   6.619   2.396   7.605  0.5624 -0.0297  1.2315
  176SAPI   H8X20080   6.654   2.313   7.540  0.3466  1.9421 -1.5533
  176SAPI   H8Y20081   6.515   2.368   7.633  0.9084  1.1677  4.1154
  176SAPI   C3920082   6.706   2.400   7.731 -0.2117  0.2887  1.1070
  176SAPI   H9X20083   6.795   2.467   7.723 -0.3473  0.4247  0.7061
  176SAPI   H9Y20084   6.761   2.307   7.757  2.3011  1.0192 -1.0965
  176SAPI  C31020085   6.620   2.430   7.849  0.0301  0.2404  0.3843
  176SAPI  H10X20086   6.557   2.341   7.870  0.5036 -0.1980 -0.0207
  176SAPI  H10Y20087   6.548   2.512   7.831 -0.8462 -0.3192  1.2206
  176SAPI  C31120088   6.696   2.462   7.977 -0.3172 -0.5114  0.1845
  176SAPI  H11X20089   6.756   2.554   7.960  0.7633 -1.4199 -1.1196
  176SAPI  H11Y20090   6.772   2.384   7.998 -0.6444 -0.9638 -0.2878
  176SAPI  C31220091   6.602   2.478   8.098 -0.1873 -0.1762  0.3678
  176SAPI  H12X20092   6.537   2.390   8.116 -0.0440 -0.2717  0.4245
  176SAPI  H12Y20093   6.535   2.565   8.083  1.3889  0.9632 -0.3908
  176SAPI  C31320094   6.679   2.517   8.221 -0.4100 -0.1978 -0.0542
  176SAPI  H13X20095   6.744   2.601   8.188 -0.6586 -0.6194 -1.7171
  176SAPI  H13Y20096   6.747   2.431   8.243 -0.5724  0.1845  2.1400
  176SAPI  C31420097   6.598   2.547   8.344 -0.7433 -0.1334 -0.1760
  176SAPI  H14X20098   6.523   2.466   8.361 -1.1632 -0.2736 -2.3280
  176SAPI  H14Y20099   6.534   2.637   8.328 -0.1335  0.3088 -0.1345
  176SAPI  C31520100   6.692   2.549   8.473  1.2966  0.5724  0.7598
  176SAPI  H15X20101   6.760   2.636   8.463  2.0961 -0.2152 -0.9320
  176SAPI  H15Y20102   6.757   2.460   8.475 -0.8819 -1.1692 -0.9936
  176SAPI  C31620103   6.613   2.570   8.599  0.0289 -0.3843  0.0707
  176SAPI  H16X20104   6.531   2.495   8.605  0.5963 -0.9908  0.3363
  176SAPI  H16Y20105   6.568   2.671   8.585 -0.3750 -0.5716  0.0025
  176SAPI  C31720106   6.698   2.578   8.724 -0.1994  0.5146  0.6267
  176SAPI  H17X20107   6.637   2.608   8.811  1.0215  0.8398  1.4002
  176SAPI  H17Y20108   6.780   2.652   8.707  0.7656 -0.6976 -0.1361
  176SAPI  C31820109   6.762   2.446   8.759 -0.4985 -0.4027 -0.5848
  176SAPI  H18X20110   6.835   2.413   8.681  1.4637  1.0404  0.5491
  176SAPI  H18Y20111   6.689   2.366   8.784  1.6341 -2.6993 -1.2960
  176SAPI  H18Z20112   6.816   2.467   8.853 -4.1277 -0.3574  1.6682
  177SLPC     N20113   4.769   0.694  10.945  0.0640 -0.3353 -0.0032
  177SLPC   C1320114   4.717   0.593  10.849  0.6029  0.4529 -0.2652
  177SLPC  H13A20115   4.774   0.501  10.855  2.5833  1.5608 -1.0645
  177SLPC  H13B20116   4.614   0.567  10.870 -0.0752  3.2798  0.2561
  177SLPC  H13C20117   4.715   0.615  10.743 -0.2784 -2.0411 -0.8523
  177SLPC   C1420118   4.742   0.626  11.075 -0.2314 -0.0098 -0.0745
  177SLPC  H14A20119   4.811   0.543  11.084 -2.3314 -1.6313  2.9775
  177SLPC  H14B20120   4.765   0.699  11.151 -0.1937  2.8920 -2.6920
  177SLPC  H14C20121   4.639   0.594  11.073  0.0745 -1.0678  0.1260
  177SLPC   C1520122   4.696   0.828  10.935  0.0740  0.4286  0.1983
  177SLPC  H15A20123   4.704   0.863  10.833  0.1407  0.4486  0.2106
  177SLPC  H15B20124   4.594   0.812  10.963  0.1387 -1.2466 -0.3988
  177SLPC  H15C20125   4.732   0.908  10.997 -0.2731  1.8433 -1.3711
  177SLPC   C1220126   4.922   0.719  10.925  0.2645  0.1445 -0.2991
  177SLPC  H12A20127   4.975   0.625  10.925  0.2488  0.1300  0.4010
  177SLPC  H12B20128   4.960   0.778  11.007  0.2052 -1.7366  1.1483
  177SLPC   C1120129   4.956   0.786  10.788 -0.1536 -0.1276 -0.0137
  177SLPC  H11A20130   4.896   0.757  10.700 -0.7413 -2.3646  1.0624
  177SLPC  H11B20131   5.060   0.754  10.769 -0.4639 -0.4571 -1.2436
  177SLPC     P20132   5.039   1.025  10.856  0.0349  0.1928 -0.3885
  177SLPC   O1320133   4.962   1.144  10.911 -0.4498 -0.4964 -0.2505
  177SLPC   O1420134   5.124   0.954  10.953  0.1858 -0.7387 -0.4518
  177SLPC   O1220135   4.939   0.931  10.788 -0.2083  0.4569 -0.2285
  177SLPC   O1120136   5.134   1.092  10.745 -0.0590  0.4001  0.2098
  177SLPC    C120137   5.142   1.032  10.612 -0.3640  0.7074 -0.3111
  177SLPC    HA20138   5.099   0.931  10.597 -0.4374  0.6569  0.2147
  177SLPC    HB20139   5.087   1.102  10.546  2.0444  2.5337 -0.5112
  177SLPC    C220140   5.291   1.024  10.567  0.7443  0.0569 -0.3522
  177SLPC    HS20141   5.352   0.991  10.654  2.2529 -3.6525 -2.5726
  177SLPC   O2120142   5.332   1.150  10.507 -0.6520  0.3210 -0.7247
  177SLPC   C2120143   5.466   1.160  10.507 -0.6276 -0.0129 -0.5356
  177SLPC   O2220144   5.540   1.081  10.566 -0.1352 -0.4036 -0.1486
  177SLPC   C2220145   5.503   1.297  10.439 -0.1005  0.7617  0.7756
  177SLPC   H2R20146   5.431   1.309  10.355  0.1050 -2.8995 -0.1143
  177SLPC   H2S20147   5.491   1.380  10.511  1.1580  1.4867  0.1996
  177SLPC    C320148   5.300   0.906  10.462 -0.6223  0.5769 -0.2395
  177SLPC    HX20149   5.211   0.914  10.397 -0.9697 -1.5003 -0.0947
  177SLPC    HY20150   5.298   0.814  10.524  0.3988  1.2953  0.9071
  177SLPC   O3120151   5.415   0.899  10.381 -0.3852 -0.0895 -0.0835
  177SLPC   C3120152   5.429   0.781  10.329  0.2957 -0.1927 -0.1892
  177SLPC   O3220153   5.355   0.681  10.343 -1.0003 -0.5795  0.3341
  177SLPC   C3220154   5.552   0.770  10.245  0.0981  0.4948 -0.7286
  177SLPC   H2X20155   5.532   0.689  10.172  0.6332 -2.2804  2.0057
  177SLPC   H2Y20156   5.637   0.729  10.304 -0.3670  0.7887  0.1690
  177SLPC   C2320157   5.651   1.308  10.395  0.1548  0.3117  0.2788
  177SLPC   H3R20158   5.684   1.217  10.341 -0.3568 -0.3643  1.0942
  177SLPC   H3S20159   5.727   1.325  10.475  1.3512 -0.4132 -0.6722
  177SLPC   C2420160   5.685   1.415  10.289 -0.0493 -0.1585 -0.4739
  177SLPC   H4R20161   5.796   1.412  10.292 -0.0216 -0.3599 -1.3316
  177SLPC   H4S20162   5.638   1.511  10.318  0.3737 -0.7962  2.6505
  177SLPC   C2520163   5.646   1.397  10.146  0.1309  0.7511  0.0304
  177SLPC   H5R20164   5.541   1.425  10.121  0.1744  1.3874  0.5233
  177SLPC   H5S20165   5.643   1.288  10.125 -0.8955  1.0110 -1.3761
  177SLPC   C2620166   5.740   1.455  10.046  0.1036 -0.1607  0.0019
  177SLPC   H6R20167   5.846   1.438  10.076 -0.4349 -0.4201  1.8926
  177SLPC   H6S20168   5.718   1.562  10.028 -0.3354 -0.2244  0.1441
  177SLPC   C2720169   5.726   1.383   9.911  0.0672  0.3854  0.4159
  177SLPC   H7R20170   5.621   1.400   9.878 -1.1524 -1.6990  2.9175
  177SLPC   H7S20171   5.755   1.279   9.934  0.1140  0.6806  1.7442
  177SLPC   C2820172   5.826   1.426   9.799 -0.4960 -0.1520 -0.2577
  177SLPC   H8R20173   5.816   1.362   9.709  0.1809 -0.5098 -0.0800
  177SLPC   H8S20174   5.931   1.412   9.832 -0.7890  0.4936  1.0111
  177SLPC   C2920175   5.808   1.567   9.757 -0.2289  0.2512  0.5587
  177SLPC   H9R20176   5.842   1.640   9.831 -0.5424  0.4605  0.4970
  177SLPC  C21020177   5.758   1.610   9.638 -0.0778  0.4053 -0.2266
  177SLPC  H10R20178   5.763   1.718   9.617 -0.8619  0.8771  1.7403
  177SLPC  C21120179   5.716   1.522   9.525  0.9216 -0.0603  0.5891
  177SLPC  H11R20180   5.803   1.474   9.476  0.5451  0.8817 -1.0900
  177SLPC  H11S20181   5.648   1.443   9.566 -1.2880  1.0502 -0.7145
  177SLPC  C21220182   5.628   1.581   9.423  0.4443  0.0527  0.0542
  177SLPC  H12R20183   5.527   1.614   9.453  0.0025 -0.8043 -0.4541
  177SLPC  C21320184   5.653   1.590   9.293 -0.0304 -0.7403  0.2463
  177SLPC  H13R20185   5.575   1.634   9.229 -1.5991 -2.5892  0.7876
  177SLPC  C21420186   5.785   1.555   9.227 -0.3971 -0.0740 -0.5384
  177SLPC  H14R20187   5.864   1.543   9.303 -1.2268  1.0419  0.5568
  177SLPC  H14S20188   5.826   1.635   9.161  2.2402 -1.7762 -1.0824
  177SLPC  C21520189   5.767   1.427   9.140  0.1623 -0.2917 -0.0740
  177SLPC  H15R20190   5.734   1.337   9.198 -1.2581 -1.1000 -2.0189
  177SLPC  H15S20191   5.875   1.411   9.122  0.4909 -0.6770  1.9184
  177SLPC  C21620192   5.668   1.429   9.025  0.1886  0.0813 -0.3948
  177SLPC  H16R20193   5.690   1.507   8.949  0.4660 -1.3835 -1.8798
  177SLPC  H16S20194   5.567   1.462   9.060  0.1461 -1.2863  0.8724
  177SLPC  C21720195   5.651   1.295   8.950 -0.1035  0.4331 -1.0458
  177SLPC  H17R20196   5.603   1.218   9.015  1.4834  1.2505  1.1908
  177SLPC  H17S20197   5.759   1.275   8.940  0.8109  1.2138  4.4145
  177SLPC  C21820198   5.576   1.309   8.823  0.4901  0.4422  0.1899
  177SLPC  H18R20199   5.479   1.358   8.848  0.4009 -0.6216  2.1077
  177SLPC  H18S20200   5.556   1.207   8.784  1.3083  0.2666  0.2129
  177SLPC  H18T20201   5.630   1.364   8.743  0.9324  0.8002  0.7221
  177SLPC   C3320202   5.587   0.893  10.163 -0.1846  0.8212 -0.7609
  177SLPC   H3X20203   5.680   0.881  10.104  0.0423 -0.1327 -0.2468
  177SLPC   H3Y20204   5.603   0.979  10.231 -0.1222  1.5119 -1.6357
  177SLPC   C3420205   5.485   0.909  10.050  0.5947 -1.0912  0.2272
  177SLPC   H4X20206   5.380   0.924  10.082  0.1137 -0.0521 -1.6843
  177SLPC   H4Y20207   5.486   0.819   9.985  0.2082 -1.7260  1.0813
  177SLPC   C3520208   5.523   1.035   9.963 -0.2488 -0.8215  0.2526
  177SLPC   H5X20209   5.632   1.034   9.940  0.0722  0.8337  1.4949
  177SLPC   H5Y20210   5.523   1.135  10.012  3.0526 -2.0908  3.3154
  177SLPC   C3620211   5.436   1.046   9.843 -0.1773  0.2734 -0.3227
  177SLPC   H6X20212   5.335   1.091   9.849  0.3623  1.3749  1.2504
  177SLPC   H6Y20213   5.423   0.939   9.813 -0.6333 -0.2120  1.4819
  177SLPC   C3720214   5.502   1.124   9.732 -0.1753  0.0363 -0.0302
  177SLPC   H7X20215   5.588   1.064   9.695  0.6511  0.5549  0.9754
  177SLPC   H7Y20216   5.548   1.216   9.773  0.7365 -0.6438  0.4999
  177SLPC   C3820217   5.392   1.155   9.623 -0.2658  0.9649  0.4390
  177SLPC   H8X20218   5.315   1.224   9.663 -3.1686 -0.8748 -1.5838
  177SLPC   H8Y20219   5.336   1.063   9.596  3.2128 -0.6385 -2.1872
  177SLPC   C3920220   5.456   1.207   9.490  0.3576 -0.8266  0.2518
  177SLPC   H9X20221   5.526   1.135   9.443  0.4961 -0.3480 -0.2912
  177SLPC   H9Y20222   5.515   1.299   9.509 -2.5101  0.9913  0.9856
  177SLPC  C31020223   5.352   1.249   9.383  0.0149  0.7888  0.4356
  177SLPC  H10X20224   5.294   1.337   9.419  1.0543  1.2722  0.9786
  177SLPC  H10Y20225   5.284   1.162   9.370 -1.0272  1.0665  3.3521
  177SLPC  C31120226   5.417   1.287   9.255  0.1252 -0.3335 -0.1022
  177SLPC  H11X20227   5.502   1.222   9.224 -1.1629 -1.5107 -1.2705
  177SLPC  H11Y20228   5.459   1.390   9.258 -1.9035  0.5554 -0.8041
  177SLPC  C31220229   5.321   1.301   9.132 -0.3511  0.5778 -0.3336
  177SLPC  H12X20230   5.229   1.240   9.142 -0.0380 -0.0061 -0.9335
  177SLPC  H12Y20231   5.379   1.268   9.043 -1.1448  1.4701 -1.2046
  177SLPC  C31320232   5.273   1.445   9.122 -0.4517  0.5256  0.2590
  177SLPC  H13X20233   5.361   1.513   9.117  0.1717 -0.3057 -0.2010
  177SLPC  H13Y20234   5.208   1.468   9.209 -1.3762  1.2768 -0.5991
  177SLPC  C31420235   5.196   1.473   8.992 -0.4827 -0.2006 -0.2857
  177SLPC  H14X20236   5.243   1.428   8.902 -0.1649 -1.9844  0.7261
  177SLPC  H14Y20237   5.192   1.581   8.967  1.4595 -0.2436 -0.8965
  177SLPC  C31520238   5.053   1.422   9.003 -0.3745  0.2993 -0.0336
  177SLPC  H15X20239   5.018   1.471   9.097  0.5718 -0.7496  0.8933
  177SLPC  H15Y20240   5.063   1.313   9.020  1.7378  0.2493 -1.2790
  177SLPC  C31620241   4.970   1.466   8.888 -0.0923 -0.2255 -0.0441
  177SLPC  H16X20242   5.003   1.409   8.799  0.3636 -0.0011 -0.0234
  177SLPC  H16Y20243   4.976   1.575   8.865 -0.0709 -0.5372 -1.5885
  177SLPC  C31720244   4.813   1.441   8.904  0.3113  0.2562 -0.0633
  177SLPC  H17X20245   4.766   1.478   8.810  2.3364  0.1160 -1.1836
  177SLPC  H17Y20246   4.782   1.488   9.000  3.0106 -0.1098  1.0874
  177SLPC  C31820247   4.778   1.294   8.910  0.1837 -0.6552  0.6348
  177SLPC  H18X20248   4.814   1.228   8.828 -1.1203 -1.5379  0.7428
  177SLPC  H18Y20249   4.668   1.299   8.897  0.2071  0.2939  0.7315
  177SLPC  H18Z20250   4.794   1.251   9.011 -0.1968  1.6548  1.7385
  178SLPC     N20251   0.581   1.506  10.926  0.4782  0.0528  0.3916
  178SLPC   C1320252   0.717   1.473  10.961  0.1383  0.7144 -0.1596
  178SLPC  H13A20253   0.765   1.445  10.868 -0.6177 -0.6609 -0.1635
  178SLPC  H13B20254   0.765   1.555  11.012  0.0343 -1.1448  3.1823
  178SLPC  H13C20255   0.718   1.387  11.026 -1.8940  1.6508  1.2319
  178SLPC   C1420256   0.503   1.554  11.045  0.5102 -0.1067  0.4293
  178SLPC  H14A20257   0.531   1.505  11.137  0.2037  0.5842  0.8992
  178SLPC  H14B20258   0.520   1.659  11.064  2.2670 -0.1585 -0.5984
  178SLPC  H14C20259   0.397   1.540  11.037  0.5503  0.0335 -0.3926
  178SLPC   C1520260   0.506   1.386  10.868 -0.0025 -0.7159  0.2328
  178SLPC  H15A20261   0.428   1.412  10.798 -0.0169 -0.5729  0.3002
  178SLPC  H15B20262   0.579   1.328  10.814 -1.3190 -1.3418 -0.9227
  178SLPC  H15C20263   0.484   1.317  10.948 -1.0763 -0.6458  0.0114
  178SLPC   C1220264   0.569   1.616  10.821 -0.2792  0.4512  0.2396
  178SLPC  H12A20265   0.463   1.616  10.800 -0.3604  1.8151  0.5300
  178SLPC  H12B20266   0.610   1.579  10.729 -2.9609 -3.2114  0.3332
  178SLPC   C1120267   0.623   1.764  10.841 -0.4886  0.4470  0.0486
  178SLPC  H11A20268   0.604   1.780  10.950 -0.9660 -3.5641  0.6852
  178SLPC  H11B20269   0.570   1.836  10.775  0.3548  0.4727 -0.6136
  178SLPC     P20270   0.827   1.844  10.698 -0.3172  0.4340 -0.0527
  178SLPC   O1320271   0.843   1.993  10.729  0.2297 -0.1959 -0.1765
  178SLPC   O1420272   0.945   1.765  10.654 -0.2132 -0.0135 -0.5587
  178SLPC   O1220273   0.760   1.772  10.823  0.1741  0.3007  0.5337
  178SLPC   O1120274   0.710   1.832  10.591 -0.5136 -0.5854 -0.2012
  178SLPC    C120275   0.709   1.714  10.510 -0.4174  0.2829 -0.2020
  178SLPC    HA20276   0.750   1.624  10.560  0.0537  1.6377  1.9925
  178SLPC    HB20277   0.601   1.687  10.501 -0.3914  0.1109 -0.0004
  178SLPC    C220278   0.773   1.735  10.374  0.4468  0.2530 -0.7158
  178SLPC    HS20279   0.882   1.722  10.387  0.1357 -1.7085  0.2551
  178SLPC   O2120280   0.737   1.870  10.330 -0.1915 -0.1138  0.1995
  178SLPC   C2120281   0.833   1.931  10.279  0.3148  0.2333  0.0880
  178SLPC   O2220282   0.946   1.889  10.258 -0.5442 -0.1888 -0.2902
  178SLPC   C2220283   0.791   2.077  10.256  0.1805 -0.3645  0.3441
  178SLPC   H2R20284   0.688   2.077  10.214 -0.0554 -4.5896  0.4948
  178SLPC   H2S20285   0.780   2.129  10.353 -2.1422  0.0199 -0.0618
  178SLPC    C320286   0.710   1.629  10.279  0.2073  0.5478 -0.3585
  178SLPC    HX20287   0.604   1.654  10.259 -0.5225  0.0628  2.3774
  178SLPC    HY20288   0.702   1.535  10.338  1.5831  0.7909  0.2548
  178SLPC   O3120289   0.776   1.621  10.156 -0.1993 -0.1201 -0.3759
  178SLPC   C3120290   0.864   1.537  10.138  0.1611  0.7954 -0.5018
  178SLPC   O3220291   0.900   1.444  10.212  0.6011  0.5236  0.7363
  178SLPC   C3220292   0.925   1.556   9.997 -0.0694 -0.0761  0.2401
  178SLPC   H2X20293   1.022   1.502   9.990  0.6139  1.2777 -1.2043
  178SLPC   H2Y20294   0.954   1.663  10.002  1.6997 -0.4051 -1.7949
  178SLPC   C2320295   0.889   2.161  10.172  0.2712 -0.0978  0.4507
  178SLPC   H3R20296   0.993   2.129  10.196  0.1008 -0.9961  0.0229
  178SLPC   H3S20297   0.888   2.269  10.196 -1.0436 -0.5015  2.5841
  178SLPC   C2420298   0.868   2.159  10.020 -0.4326 -0.1097  0.3617
  178SLPC   H4R20299   0.759   2.155  10.002 -0.5758 -0.3386  1.2307
  178SLPC   H4S20300   0.908   2.063   9.981 -1.4427 -1.1864  1.8554
  178SLPC   C2520301   0.934   2.272   9.935 -0.1336 -0.8318 -0.6404
  178SLPC   H5R20302   1.042   2.253   9.954  0.2295 -0.3231 -2.0695
  178SLPC   H5S20303   0.903   2.373   9.970 -1.6231 -1.3440 -0.3992
  178SLPC   C2620304   0.908   2.270   9.782 -0.7719  0.1822  0.3302
  178SLPC   H6R20305   0.965   2.194   9.726 -0.2359  2.5618 -2.6338
  178SLPC   H6S20306   0.943   2.370   9.748 -2.1823  0.4208 -0.4756
  178SLPC   C2720307   0.761   2.261   9.730  0.3230 -0.2147  0.3610
  178SLPC   H7R20308   0.704   2.349   9.767  0.8168  0.5525 -0.6908
  178SLPC   H7S20309   0.718   2.168   9.773 -0.3759  0.8361  2.0663
  178SLPC   C2820310   0.758   2.270   9.579  0.0726  0.0204  0.2817
  178SLPC   H8R20311   0.658   2.243   9.538  1.0092 -2.3861 -0.6510
  178SLPC   H8S20312   0.824   2.188   9.542 -0.9036 -1.1675  1.0601
  178SLPC   C2920313   0.801   2.393   9.512 -0.2681  0.1397  0.4043
  178SLPC   H9R20314   0.866   2.459   9.572 -0.4864  0.8161 -0.0848
  178SLPC  C21020315   0.805   2.421   9.382  0.3862  0.3533  0.0316
  178SLPC  H10R20316   0.840   2.522   9.357 -0.2599  0.2599 -1.3400
  178SLPC  C21120317   0.744   2.349   9.266  0.3404  0.2164 -0.3555
  178SLPC  H11R20318   0.701   2.257   9.310 -0.5811  0.0027 -1.6569
  178SLPC  H11S20319   0.825   2.317   9.196 -1.5956 -2.1259 -1.6714
  178SLPC  C21220320   0.640   2.438   9.199 -0.1313  0.2701 -0.0594
  178SLPC  H12R20321   0.583   2.493   9.274  1.3011  1.5421  0.1451
  178SLPC  C21320322   0.612   2.442   9.066 -0.2220 -0.4968 -0.1568
  178SLPC  H13R20323   0.546   2.522   9.030  0.9556  1.7681  2.3409
  178SLPC  C21420324   0.677   2.367   8.956  0.1266 -0.0313 -0.1997
  178SLPC  H14R20325   0.761   2.301   8.989 -0.8904 -0.4975  1.5941
  178SLPC  H14S20326   0.705   2.431   8.870  0.7570 -0.3629 -0.2512
  178SLPC  C21520327   0.573   2.270   8.908 -0.2677  0.3698 -0.1891
  178SLPC  H15R20328   0.484   2.316   8.859 -0.6035 -2.4543 -2.5396
  178SLPC  H15S20329   0.532   2.205   8.988  0.5364  1.9014  1.5373
  178SLPC  C21620330   0.642   2.182   8.800  0.2616 -0.0312 -0.3362
  178SLPC  H16R20331   0.737   2.152   8.848  1.2294  1.2990 -1.3321
  178SLPC  H16S20332   0.670   2.237   8.708 -0.6159 -0.6492 -0.9875
  178SLPC  C21720333   0.578   2.051   8.770 -0.6591 -0.9612  0.2067
  178SLPC  H17R20334   0.552   1.992   8.861  2.1566 -1.9350  0.4713
  178SLPC  H17S20335   0.653   1.994   8.712  2.4268  2.2102  0.7812
  178SLPC  C21820336   0.448   2.074   8.679  0.2413  0.3682 -0.5076
  178SLPC  H18R20337   0.472   2.118   8.580 -0.3992  0.2026 -0.7373
  178SLPC  H18S20338   0.366   2.126   8.732  0.4816 -0.0371  0.2766
  178SLPC  H18T20339   0.415   1.968   8.675 -0.1032  0.4393  0.3291
  178SLPC   C3320340   0.835   1.522   9.879  0.2859  0.4856  0.2436
  178SLPC   H3X20341   0.804   1.416   9.888 -0.3471  0.7316  1.1086
  178SLPC   H3Y20342   0.898   1.526   9.787 -1.4097  1.3832 -0.9390
  178SLPC   C3420343   0.717   1.610   9.850  0.5732  0.2118  0.0697
  178SLPC   H4X20344   0.751   1.710   9.816 -2.5932  0.4861 -2.7674
  178SLPC   H4Y20345   0.660   1.614   9.945 -0.6885 -1.4954 -0.5605
  178SLPC   C3520346   0.621   1.559   9.747  0.0710  0.2939 -0.3197
  178SLPC   H5X20347   0.536   1.629   9.736  1.2781  1.6593 -1.3739
  178SLPC   H5Y20348   0.580   1.465   9.791  1.7284  0.6260  2.1168
  178SLPC   C3620349   0.675   1.533   9.597 -0.1613  0.2004 -0.0555
  178SLPC   H6X20350   0.768   1.473   9.590 -0.9316 -0.9722 -0.5754
  178SLPC   H6Y20351   0.697   1.636   9.560 -2.6293  0.6058 -0.6038
  178SLPC   C3720352   0.569   1.480   9.500  0.3075 -0.3698  0.4438
  178SLPC   H7X20353   0.614   1.461   9.400  0.0548 -0.0367  0.2660
  178SLPC   H7Y20354   0.483   1.549   9.508 -0.5763 -1.4619  0.4948
  178SLPC   C3820355   0.497   1.345   9.535 -0.0888 -0.5248 -0.7087
  178SLPC   H8X20356   0.427   1.351   9.621 -1.0498 -0.4153 -1.4860
  178SLPC   H8Y20357   0.582   1.279   9.565 -0.3480 -0.3987  0.3671
  178SLPC   C3920358   0.418   1.279   9.418 -0.1003  0.4617  0.3288
  178SLPC   H9X20359   0.482   1.291   9.328  0.9543  1.0176  1.1197
  178SLPC   H9Y20360   0.322   1.331   9.396 -0.4081 -0.2692 -0.0888
  178SLPC  C31020361   0.377   1.132   9.443  0.4698 -0.6821 -0.1143
  178SLPC  H10X20362   0.290   1.121   9.512  0.0663  0.9073 -0.3266
  178SLPC  H10Y20363   0.457   1.068   9.486 -0.3845 -1.7312 -0.0376
  178SLPC  C31120364   0.318   1.063   9.320 -0.4553 -0.3651  0.2868
  178SLPC  H11X20365   0.274   0.962   9.336 -1.8107  0.0545 -0.6066
  178SLPC  H11Y20366   0.400   1.048   9.247 -1.6335 -3.7952 -0.5235
  178SLPC  C31220367   0.199   1.138   9.245  0.4813  0.6174  0.1668
  178SLPC  H12X20368   0.234   1.238   9.211  0.0619  0.2788 -1.3301
  178SLPC  H12Y20369   0.113   1.163   9.311 -4.1825 -2.7707 -3.7970
  178SLPC  C31320370   0.168   1.067   9.113 -0.2324 -0.3115  0.7550
  178SLPC  H13X20371   0.163   0.959   9.136  0.0834 -1.4008 -3.5680
  178SLPC  H13Y20372   0.255   1.090   9.048 -0.9832  1.0988  0.1899
  178SLPC  C31420373   0.028   1.095   9.046  0.2804  0.3330  0.3517
  178SLPC  H14X20374  -0.032   1.114   9.138  4.7515  2.4328  3.1892
  178SLPC  H14Y20375  -0.015   1.011   8.988  1.2611 -1.4768  2.0983
  178SLPC  C31520376   0.044   1.225   8.958  0.4815 -0.2725 -0.1110
  178SLPC  H15X20377   0.093   1.302   9.021  2.1564 -0.4235 -1.1751
  178SLPC  H15Y20378   0.113   1.199   8.875 -0.1726 -1.7821 -0.2137
  178SLPC  C31620379  -0.089   1.284   8.916 -0.1468 -0.1773  0.5692
  178SLPC  H16X20380  -0.135   1.206   8.852 -0.3276  0.0992  0.3582
  178SLPC  H16Y20381  -0.064   1.369   8.850 -2.1725  0.5956  0.7163
  178SLPC  C31720382  -0.190   1.330   9.022 -0.0336  0.3114  0.2814
  178SLPC  H17X20383  -0.159   1.429   9.061 -0.7273  0.5427  0.2562
  178SLPC  H17Y20384  -0.189   1.258   9.106  0.4043 -0.3090 -0.2449
  178SLPC  C31820385  -0.339   1.351   8.971 -0.7602  0.4398  0.2921
  178SLPC  H18X20386  -0.346   1.404   8.874  0.0413  1.4863  0.7951
  178SLPC  H18Y20387  -0.397   1.394   9.056 -1.8343 -1.8598  0.8208
  178SLPC  H18Z20388  -0.378   1.249   8.952  2.4528 -0.8401 -0.1803
  179SLPC     N20389   2.065   5.934  10.516 -0.1627 -0.2901 -0.4432
  179SLPC   C1320390   2.106   5.791  10.547  0.6559  0.1648 -1.2392
  179SLPC  H13A20391   2.032   5.746  10.611  0.8417  0.1008 -1.0692
  179SLPC  H13B20392   2.113   5.735  10.455 -1.4651 -1.8329 -0.3022
  179SLPC  H13C20393   2.196   5.787  10.606 -0.5354 -0.1518  0.6354
  179SLPC   C1420394   2.175   6.001  10.446  0.0889  0.2021  0.4964
  179SLPC  H14A20395   2.156   6.104  10.420 -1.0954 -0.0286  0.4295
  179SLPC  H14B20396   2.268   6.003  10.502  1.3168  0.6849 -1.4480
  179SLPC  H14C20397   2.184   5.960  10.346 -1.5217  0.6745  0.1273
  179SLPC   C1520398   2.043   6.006  10.649 -0.4116  0.6293  0.1083
  179SLPC  H15A20399   2.008   6.105  10.623  0.5558  0.9930  0.1324
  179SLPC  H15B20400   1.964   5.952  10.699  0.4819  1.2716  2.3360
  179SLPC  H15C20401   2.127   6.013  10.716 -0.4840 -2.1256  0.5928
  179SLPC   C1220402   1.939   5.940  10.433  0.4056 -0.6635  0.2257
  179SLPC  H12A20403   1.932   5.859  10.363 -1.7553 -1.0593  0.8442
  179SLPC  H12B20404   1.917   6.038  10.393 -0.8341  0.3877  3.1853
  179SLPC   C1120405   1.803   5.906  10.508 -0.1723 -0.1395 -0.5544
  179SLPC  H11A20406   1.719   5.919  10.436 -1.3086 -2.2805  0.3053
  179SLPC  H11B20407   1.769   5.966  10.595 -2.0815  0.2332 -1.4840
  179SLPC     P20408   1.734   5.659  10.469 -0.4437  0.0437  0.0079
  179SLPC   O1320409   1.775   5.526  10.512  0.5397 -0.5129  0.4084
  179SLPC   O1420410   1.591   5.682  10.467 -0.0956  0.9293 -0.5183
  179SLPC   O1220411   1.807   5.770  10.557 -0.0951 -0.6241 -0.2339
  179SLPC   O1120412   1.787   5.676  10.321 -0.0088  0.2605 -0.0260
  179SLPC    C120413   1.890   5.612  10.241 -0.5406 -0.1423  0.3569
  179SLPC    HA20414   1.975   5.683  10.231 -0.8513  0.2779  0.6463
  179SLPC    HB20415   1.925   5.517  10.286 -0.2039 -0.0050  0.3853
  179SLPC    C220416   1.842   5.585  10.097 -0.2308  0.6224 -0.2392
  179SLPC    HS20417   1.908   5.519  10.038 -0.6276 -2.1178  2.1481
  179SLPC   O2120418   1.822   5.710  10.036  0.5520 -0.6952  0.1700
  179SLPC   C2120419   1.945   5.759   9.988 -0.0557 -0.2043 -0.8062
  179SLPC   O2220420   2.040   5.682   9.974  0.1113 -0.0526 -0.1802
  179SLPC   C2220421   1.947   5.907   9.959 -0.0256 -0.7422 -0.3880
  179SLPC   H2R20422   1.843   5.941   9.978 -0.1773 -0.2869 -1.8549
  179SLPC   H2S20423   2.024   5.939  10.033 -2.6081  1.0763  1.6749
  179SLPC    C320424   1.711   5.506  10.110 -0.2372 -0.0818 -0.2069
  179SLPC    HX20425   1.666   5.496  10.009  3.4225  1.0440 -2.1371
  179SLPC    HY20426   1.643   5.556  10.182  2.1763  1.5089  1.0875
  179SLPC   O3120427   1.755   5.375  10.162  0.8688 -0.9197 -0.2626
  179SLPC   C3120428   1.658   5.298  10.204 -0.3898  0.3606 -0.2385
  179SLPC   O3220429   1.539   5.322  10.212 -0.6132 -0.1003 -0.1588
  179SLPC   C3220430   1.709   5.156  10.230 -0.0593  0.4314  0.3067
  179SLPC   H2X20431   1.684   5.134  10.336 -2.2002 -0.1878 -0.2757
  179SLPC   H2Y20432   1.820   5.153  10.215 -0.3642 -0.0900 -2.2838
  179SLPC   C2320433   1.985   5.932   9.802 -0.4428 -0.4343  0.0836
  179SLPC   H3R20434   2.068   5.860   9.786 -0.1795  0.2100 -1.6398
  179SLPC   H3S20435   2.038   6.030   9.794  1.6031 -1.3986  1.0224
  179SLPC   C2420436   1.868   5.919   9.703  0.0778  0.1855 -0.1509
  179SLPC   H4R20437   1.779   5.981   9.729 -1.0912 -0.8038 -1.6773
  179SLPC   H4S20438   1.827   5.816   9.707  0.1777  0.1747  1.0159
  179SLPC   C2520439   1.908   5.929   9.561  0.7628  0.0486 -0.5787
  179SLPC   H5R20440   1.959   5.834   9.535  1.2965  0.0943  0.2443
  179SLPC   H5S20441   1.974   6.017   9.574 -0.1368  0.4576  1.7192
  179SLPC   C2620442   1.798   5.960   9.458  0.5675  0.6194 -0.1092
  179SLPC   H6R20443   1.753   6.051   9.504  1.8427  0.8636  0.7027
  179SLPC   H6S20444   1.715   5.887   9.467  1.1372 -0.0537 -0.2024
  179SLPC   C2720445   1.838   5.967   9.312 -0.1532 -0.1539 -0.4241
  179SLPC   H7R20446   1.936   6.017   9.295  1.1285 -2.4106 -0.0956
  179SLPC   H7S20447   1.760   6.020   9.254  1.3548  0.5543 -1.8804
  179SLPC   C2820448   1.858   5.824   9.246 -0.5521  0.0553 -0.0083
  179SLPC   H8R20449   1.755   5.784   9.244 -2.1405  3.7152 -0.1525
  179SLPC   H8S20450   1.929   5.770   9.312 -1.8396 -1.0088  0.5366
  179SLPC   C2920451   1.920   5.839   9.108  0.1764 -0.2097 -0.0775
  179SLPC   H9R20452   2.005   5.909   9.116  0.6945 -0.7423 -0.7497
  179SLPC  C21020453   1.876   5.809   8.985  0.1685  0.4592  0.2958
  179SLPC  H10R20454   1.944   5.838   8.904  2.3749 -0.5705  1.6794
  179SLPC  C21120455   1.743   5.750   8.963  0.1467  0.8475  0.3667
  179SLPC  H11R20456   1.677   5.826   8.916 -0.7634 -1.2885 -2.0603
  179SLPC  H11S20457   1.683   5.712   9.049  0.8423 -0.0789  0.4580
  179SLPC  C21220458   1.751   5.638   8.857  0.3400 -0.3885  0.2433
  179SLPC  H12R20459   1.850   5.627   8.811  0.4687 -1.0315  0.6507
  179SLPC  C21320460   1.631   5.601   8.814 -0.1431  0.8200 -0.3323
  179SLPC  H13R20461   1.619   5.528   8.732  0.9416  1.3685 -1.0117
  179SLPC  C21420462   1.500   5.645   8.858  0.5690  0.3943 -0.2610
  179SLPC  H14R20463   1.472   5.740   8.807  0.1035  0.5383  0.2504
  179SLPC  H14S20464   1.497   5.671   8.966 -1.0282 -0.8145  0.0240
  179SLPC  C21520465   1.389   5.536   8.854  0.6535 -0.1886 -0.3118
  179SLPC  H15R20466   1.297   5.574   8.903  0.2123 -0.8684 -0.6001
  179SLPC  H15S20467   1.417   5.441   8.905 -1.2900 -1.9685 -2.3529
  179SLPC  C21620468   1.350   5.500   8.704 -0.1732  0.1475  0.0102
  179SLPC  H16R20469   1.442   5.492   8.642 -0.5595 -1.3528 -0.4009
  179SLPC  H16S20470   1.289   5.586   8.669  1.2011  0.8253 -0.8253
  179SLPC  C21720471   1.269   5.376   8.665 -0.3381 -0.0604 -0.0286
  179SLPC  H17R20472   1.181   5.373   8.733 -0.2864 -0.8283  0.0124
  179SLPC  H17S20473   1.322   5.279   8.676 -0.3490 -0.0486  0.1338
  179SLPC  C21820474   1.214   5.400   8.521  0.0161  1.2453 -0.0430
  179SLPC  H18R20475   1.294   5.406   8.445 -0.2560  2.4659 -0.2598
  179SLPC  H18S20476   1.151   5.491   8.513 -0.5555  0.7232 -2.1102
  179SLPC  H18T20477   1.146   5.320   8.485 -0.2641  1.6703 -0.4727
  179SLPC   C3320478   1.633   5.043  10.152 -0.6614  0.7131  0.3629
  179SLPC   H3X20479   1.528   5.074  10.133 -0.1820  4.4674  2.7755
  179SLPC   H3Y20480   1.637   4.958  10.223 -1.3675  0.2489 -0.1414
  179SLPC   C3420481   1.701   4.988  10.020 -0.1645  0.2315 -0.9602
  179SLPC   H4X20482   1.641   4.904   9.979 -0.2474 -0.2375  0.0876
  179SLPC   H4Y20483   1.804   4.965  10.052 -0.6619  0.8973  1.2916
  179SLPC   C3520484   1.712   5.083   9.902 -0.5017 -0.0596 -0.6109
  179SLPC   H5X20485   1.795   5.150   9.934 -3.0687  2.4202  1.4119
  179SLPC   H5Y20486   1.624   5.150   9.890  0.1350  0.7468 -0.9330
  179SLPC   C3620487   1.750   5.012   9.772 -0.1057  0.5955  0.9774
  179SLPC   H6X20488   1.678   4.928   9.759  0.3694  0.2683  0.4018
  179SLPC   H6Y20489   1.851   4.966   9.764 -0.0978  0.8404 -0.8208
  179SLPC   C3720490   1.737   5.101   9.645  0.9315 -0.1540 -0.7716
  179SLPC   H7X20491   1.816   5.179   9.650  0.4378  0.3395 -0.6009
  179SLPC   H7Y20492   1.644   5.157   9.667  2.4605  2.1855  0.0287
  179SLPC   C3820493   1.710   5.028   9.510  0.3705 -0.1344 -0.0486
  179SLPC   H8X20494   1.665   5.105   9.444  0.5636 -1.1981 -1.4763
  179SLPC   H8Y20495   1.636   4.948   9.532 -2.1387  1.9663 -0.4130
  179SLPC   C3920496   1.841   4.979   9.448  0.4960 -0.0238 -0.2252
  179SLPC   H9X20497   1.906   4.928   9.523 -1.5434 -2.2295  0.1550
  179SLPC   H9Y20498   1.891   5.070   9.409  2.2031  0.0399  1.9006
  179SLPC  C31020499   1.816   4.872   9.333 -0.1770  0.1659 -0.3623
  179SLPC  H10X20500   1.737   4.799   9.362 -0.4761  0.0703 -1.3692
  179SLPC  H10Y20501   1.916   4.825   9.321 -0.2942 -0.0636 -0.4530
  179SLPC  C31120502   1.774   4.947   9.208 -0.5240 -0.1745 -0.2672
  179SLPC  H11X20503   1.845   5.026   9.177 -0.0221  0.1164  1.4965
  179SLPC  H11Y20504   1.675   4.993   9.230 -1.1523 -0.6786 -1.9202
  179SLPC  C31220505   1.750   4.854   9.083  0.7111  0.5524 -0.2580
  179SLPC  H12X20506   1.720   4.918   8.997 -1.9531 -0.2533 -0.0062
  179SLPC  H12Y20507   1.660   4.790   9.094  0.7950  0.5709  0.5987
  179SLPC  C31320508   1.862   4.756   9.040  0.2724  0.1239 -0.3779
  179SLPC  H13X20509   1.890   4.677   9.112  0.3418 -0.3177 -0.8826
  179SLPC  H13Y20510   1.958   4.809   9.022  0.0831  0.1181 -1.5345
  179SLPC  C31420511   1.834   4.690   8.899 -0.2570 -0.0251 -0.1376
  179SLPC  H14X20512   1.826   4.775   8.827 -1.4920  1.3520  1.5171
  179SLPC  H14Y20513   1.743   4.630   8.920 -0.6093  1.0874  1.7402
  179SLPC  C31520514   1.957   4.596   8.860 -1.3987  0.1446 -0.0405
  179SLPC  H15X20515   1.949   4.515   8.936 -0.5147  0.0714 -0.0193
  179SLPC  H15Y20516   2.054   4.649   8.869 -0.4173 -1.4978 -0.4320
  179SLPC  C31620517   1.947   4.542   8.715 -0.6908  0.7052  0.4511
  179SLPC  H16X20518   2.032   4.482   8.677 -0.1602  1.5031  0.3570
  179SLPC  H16Y20519   1.938   4.630   8.647  0.5016 -0.2047 -0.9501
  179SLPC  C31720520   1.826   4.451   8.683 -0.0386 -1.1139 -0.6765
  179SLPC  H17X20521   1.731   4.509   8.681  1.4448  1.5055  0.5664
  179SLPC  H17Y20522   1.819   4.373   8.763  1.5778  0.1881  0.8241
  179SLPC  C31820523   1.839   4.389   8.550  0.0033 -0.0115  0.4257
  179SLPC  H18X20524   1.737   4.365   8.515  0.1379 -2.2308  1.3615
  179SLPC  H18Y20525   1.912   4.305   8.540 -0.0583  0.1226 -1.8021
  179SLPC  H18Z20526   1.888   4.463   8.484 -0.1075 -0.4227 -0.1314
  180SLPC     N20527   3.430   3.238  10.808  0.3914 -0.3988  0.2041
  180SLPC   C1320528   3.386   3.386  10.796 -0.1025  0.0804  0.4031
  180SLPC  H13A20529   3.459   3.437  10.734 -1.7328 -0.6753 -2.3020
  180SLPC  H13B20530   3.294   3.390  10.741  0.5427 -3.1269 -1.1475
  180SLPC  H13C20531   3.385   3.442  10.889 -1.7860  0.2151  0.3261
  180SLPC   C1420532   3.322   3.148  10.871  0.2711  0.7142  0.3127
  180SLPC  H14A20533   3.356   3.047  10.889 -0.9423 -0.0641 -1.4882
  180SLPC  H14B20534   3.282   3.186  10.965 -0.7331  2.4730 -0.7620
  180SLPC  H14C20535   3.232   3.151  10.811 -0.0184  1.6095  0.7669
  180SLPC   C1520536   3.541   3.245  10.903 -0.3906  0.6126 -0.1016
  180SLPC  H15A20537   3.550   3.141  10.929 -0.8091 -0.2847 -3.1726
  180SLPC  H15B20538   3.638   3.277  10.869 -0.3460 -0.0472 -0.6066
  180SLPC  H15C20539   3.518   3.313  10.984 -4.4941  2.2756 -2.3938
  180SLPC   C1220540   3.477   3.168  10.677 -0.0464  0.2499  0.3644
  180SLPC  H12A20541   3.392   3.166  10.609  1.0249 -0.6294 -1.0177
  180SLPC  H12B20542   3.493   3.065  10.706 -0.4960  0.8629  3.0768
  180SLPC   C1120543   3.597   3.220  10.593  0.4088 -0.3047  0.7308
  180SLPC  H11A20544   3.603   3.154  10.504 -0.6595  0.6378 -0.0604
  180SLPC  H11B20545   3.695   3.195  10.639  1.3991  0.3872 -0.9019
  180SLPC     P20546   3.672   3.478  10.606  0.2538  0.3576  0.2059
  180SLPC   O1320547   3.581   3.579  10.663  0.0423  0.6055 -0.1909
  180SLPC   O1420548   3.766   3.423  10.697  0.0697  0.0700 -0.1311
  180SLPC   O1220549   3.578   3.360  10.549 -0.1735  0.8579 -0.7004
  180SLPC   O1120550   3.756   3.517  10.483 -0.4767  0.0337  0.2683
  180SLPC    C120551   3.699   3.504  10.347 -0.5881  0.3127  0.0105
  180SLPC    HA20552   3.590   3.523  10.347 -0.4123  1.4358 -1.6910
  180SLPC    HB20553   3.744   3.571  10.271  0.5737 -2.4114 -1.8669
  180SLPC    C220554   3.726   3.362  10.283  0.1868 -0.1075 -0.2146
  180SLPC    HS20555   3.676   3.292  10.353 -0.4907 -0.9585 -1.5094
  180SLPC   O2120556   3.870   3.339  10.283 -0.5323 -0.1918 -0.2686
  180SLPC   C2120557   3.909   3.219  10.324  0.2068  0.0204 -0.9172
  180SLPC   O2220558   3.834   3.123  10.331  0.1946 -0.2742 -0.0921
  180SLPC   C2220559   4.060   3.219  10.362  0.3453  0.8640 -0.3393
  180SLPC   H2R20560   4.112   3.307  10.319 -0.8917  1.6835 -0.2102
  180SLPC   H2S20561   4.045   3.232  10.471 -1.1349  0.6397 -0.4924
  180SLPC    C320562   3.669   3.339  10.147  0.0558  0.2351 -0.1431
  180SLPC    HX20563   3.559   3.334  10.163  0.0474 -0.0851 -0.3012
  180SLPC    HY20564   3.696   3.239  10.110 -0.3627  0.4045 -0.9346
  180SLPC   O3120565   3.722   3.443  10.058 -0.3299  0.1879  0.1314
  180SLPC   C3120566   3.636   3.541  10.021 -0.4297  0.6363  0.0126
  180SLPC   O3220567   3.531   3.560  10.074  0.7238  0.5407 -0.3624
  180SLPC   C3220568   3.703   3.606   9.896  0.4348  0.0378 -0.0303
  180SLPC   H2X20569   3.808   3.631   9.924  0.4553 -0.1420  0.0552
  180SLPC   H2Y20570   3.654   3.702   9.870  0.9174 -0.0812 -1.4834
  180SLPC   C2320571   4.132   3.082  10.324  0.0574  0.3121 -0.4843
  180SLPC   H3R20572   4.068   2.996  10.355  0.6789 -0.2533 -0.7714
  180SLPC   H3S20573   4.226   3.075  10.382 -0.4467  2.0373  0.6295
  180SLPC   C2420574   4.160   3.064  10.171 -0.5490 -0.4180  0.4154
  180SLPC   H4R20575   4.256   3.010  10.156 -0.4920 -0.1350 -0.2819
  180SLPC   H4S20576   4.177   3.167  10.133 -1.0136  0.1694  1.7200
  180SLPC   C2520577   4.071   2.966  10.098 -0.1559  0.2705 -0.4030
  180SLPC   H5R20578   3.973   3.012  10.072  0.0161  1.2654  0.6553
  180SLPC   H5S20579   4.048   2.876  10.158  2.1451 -0.0768  0.0542
  180SLPC   C2620580   4.135   2.935   9.963 -0.3927 -0.4275 -0.2656
  180SLPC   H6R20581   4.213   2.856   9.967  1.3049  1.1370 -1.0384
  180SLPC   H6S20582   4.189   3.027   9.932 -1.6022  0.5567  0.4502
  180SLPC   C2720583   4.042   2.891   9.852  0.9666 -0.3964 -0.0321
  180SLPC   H7R20584   3.977   2.976   9.825  2.1208 -0.2962 -2.8198
  180SLPC   H7S20585   3.975   2.810   9.887 -0.6500  1.1191  0.5062
  180SLPC   C2820586   4.110   2.840   9.729 -0.4274  0.6205  1.0876
  180SLPC   H8R20587   4.180   2.916   9.689 -0.8484  0.5385  0.1643
  180SLPC   H8S20588   4.030   2.814   9.657  0.8992 -4.3526  1.0845
  180SLPC   C2920589   4.188   2.707   9.750  0.2772  0.0590  0.1018
  180SLPC   H9R20590   4.230   2.686   9.849 -0.3582  4.2646  1.4915
  180SLPC  C21020591   4.226   2.629   9.650  0.5883 -0.1507 -0.8804
  180SLPC  H10R20592   4.279   2.535   9.675  1.3776  0.6210  0.4410
  180SLPC  C21120593   4.193   2.653   9.506 -0.4208  0.0733  0.1248
  180SLPC  H11R20594   4.276   2.615   9.443 -0.6521 -1.6454  0.7934
  180SLPC  H11S20595   4.195   2.763   9.488  0.6385  0.0113 -0.2223
  180SLPC  C21220596   4.055   2.601   9.464 -0.9782 -0.1933 -0.3282
  180SLPC  H12R20597   3.972   2.596   9.535 -0.5075  3.1627  0.5881
  180SLPC  C21320598   4.029   2.538   9.350 -0.1346  0.7472  0.3370
  180SLPC  H13R20599   3.927   2.518   9.314  0.8924 -0.3587 -2.1837
  180SLPC  C21420600   4.120   2.500   9.240 -0.1339 -0.3772  0.7876
  180SLPC  H14R20601   4.094   2.396   9.210 -0.5362  0.4226 -1.9361
  180SLPC  H14S20602   4.227   2.499   9.269 -0.1966 -1.2440  0.9967
  180SLPC  C21520603   4.125   2.596   9.121  0.1740 -0.8416 -0.0144
  180SLPC  H15R20604   4.186   2.688   9.135 -0.6918  0.2704 -2.8647
  180SLPC  H15S20605   4.020   2.625   9.100  0.5432  1.0651  0.6141
  180SLPC  C21620606   4.182   2.536   8.992  0.1280 -0.0758  0.1454
  180SLPC  H16R20607   4.149   2.430   8.982 -1.1734  0.3389 -0.1707
  180SLPC  H16S20608   4.293   2.541   9.000  0.0734  0.0229  0.8961
  180SLPC  C21720609   4.130   2.611   8.871 -0.7732 -0.2915 -0.7750
  180SLPC  H17R20610   4.151   2.719   8.880  0.4490 -0.4976 -1.0336
  180SLPC  H17S20611   4.021   2.594   8.854 -1.1320 -0.7439  1.5192
  180SLPC  C21820612   4.213   2.581   8.743  0.3202  0.5965 -0.1332
  180SLPC  H18R20613   4.162   2.628   8.656  0.7143  0.7760 -0.2681
  180SLPC  H18S20614   4.222   2.472   8.721 -1.1931  0.1247  1.3940
  180SLPC  H18T20615   4.316   2.623   8.751  1.3377 -1.8704  0.7991
  180SLPC   C3320616   3.703   3.522   9.766 -0.0605  0.3439  0.0384
  180SLPC   H3X20617   3.758   3.426   9.780  0.7170  0.8537  0.5474
  180SLPC   H3Y20618   3.748   3.587   9.688  1.7202  0.3196  0.9963
  180SLPC   C3420619   3.554   3.488   9.718  0.2845  0.1559  0.9784
  180SLPC   H4X20620   3.487   3.445   9.796 -1.0450 -1.4323 -0.9656
  180SLPC   H4Y20621   3.552   3.403   9.648  1.2674  0.3698  0.6855
  180SLPC   C3520622   3.497   3.617   9.649 -0.0019  0.6024 -0.8246
  180SLPC   H5X20623   3.584   3.642   9.584  1.2378  1.3902  1.0530
  180SLPC   H5Y20624   3.492   3.693   9.731 -3.3348 -0.0868 -0.2541
  180SLPC   C3620625   3.366   3.596   9.578 -0.3968 -0.7976  0.6133
  180SLPC   H6X20626   3.323   3.697   9.561  0.4688 -0.1200  2.2464
  180SLPC   H6Y20627   3.297   3.549   9.651 -1.3534  0.0069  0.2532
  180SLPC   C3720628   3.380   3.527   9.444  0.4481 -0.7389 -0.0162
  180SLPC   H7X20629   3.432   3.430   9.457 -0.2608 -1.0252  0.8537
  180SLPC   H7Y20630   3.443   3.594   9.382  0.8666 -0.7007  0.4419
  180SLPC   C3820631   3.253   3.492   9.367 -0.5395 -0.3709 -0.4880
  180SLPC   H8X20632   3.201   3.589   9.351  0.0963  0.0320 -0.1461
  180SLPC   H8Y20633   3.203   3.408   9.421  1.5398 -1.4874 -0.2215
  180SLPC   C3920634   3.275   3.447   9.224 -1.0285  0.3107 -0.2955
  180SLPC   H9X20635   3.316   3.344   9.220 -0.1830  0.5599  1.2839
  180SLPC   H9Y20636   3.348   3.509   9.169 -0.5732  2.0520  2.0902
  180SLPC  C31020637   3.141   3.440   9.146 -0.9340  1.0653  0.2285
  180SLPC  H10X20638   3.113   3.542   9.113 -0.6541  1.4036  1.0069
  180SLPC  H10Y20639   3.065   3.413   9.223 -0.0575 -0.4255  0.6166
  180SLPC  C31120640   3.136   3.335   9.039 -0.2436 -0.0379 -0.0352
  180SLPC  H11X20641   3.179   3.250   9.096 -0.3579 -0.5973 -0.7808
  180SLPC  H11Y20642   3.208   3.357   8.958  0.0235  0.2850  0.2832
  180SLPC  C31220643   2.997   3.300   8.990 -0.3783 -0.1616  0.0531
  180SLPC  H12X20644   2.958   3.391   8.940 -1.7664  0.3899  1.9966
  180SLPC  H12Y20645   2.929   3.285   9.077 -3.1732  0.3181 -1.9252
  180SLPC  C31320646   2.995   3.188   8.885  0.2098 -0.4149  0.3520
  180SLPC  H13X20647   3.045   3.098   8.926  0.7418  0.6525  2.1472
  180SLPC  H13Y20648   3.056   3.219   8.797 -1.4052  2.2225  0.0597
  180SLPC  C31420649   2.851   3.161   8.837  0.0515 -0.4549 -0.3818
  180SLPC  H14X20650   2.807   3.250   8.788  0.1329 -0.9705 -1.4416
  180SLPC  H14Y20651   2.778   3.123   8.911 -1.8650  2.7739 -0.4595
  180SLPC  C31520652   2.858   3.055   8.721 -0.1957  0.5281 -0.2150
  180SLPC  H15X20653   2.864   2.961   8.780  0.9094  2.3015  2.6902
  180SLPC  H15Y20654   2.952   3.064   8.662  0.7554 -0.5668  1.0688
  180SLPC  C31620655   2.733   3.072   8.639  0.1479  0.0551  0.1783
  180SLPC  H16X20656   2.745   3.172   8.591 -1.4414  0.2788  0.1873
  180SLPC  H16Y20657   2.648   3.085   8.709  1.0343  1.8010  1.0066
  180SLPC  C31720658   2.720   2.964   8.533 -0.1047  0.4744 -0.5125
  180SLPC  H17X20659   2.710   2.861   8.575 -1.1933  0.5442 -0.5703
  180SLPC  H17Y20660   2.809   2.984   8.471  0.1542 -0.7005 -0.5477
  180SLPC  C31820661   2.603   2.988   8.442  0.2624  0.2506  0.9353
  180SLPC  H18X20662   2.612   2.937   8.344 -0.1149 -0.5813  1.3284
  180SLPC  H18Y20663   2.597   3.098   8.425  4.8503  0.7611  1.4945
  180SLPC  H18Z20664   2.508   2.954   8.489  0.3867 -2.0882 -0.3379
  181SLPC     N20665   5.245   2.751  11.214  0.4675  0.2929 -0.3680
  181SLPC   C1320666   5.354   2.706  11.302 -0.2586  0.1783 -0.0334
  181SLPC  H13A20667   5.373   2.600  11.286  0.6202  0.2961  0.1812
  181SLPC  H13B20668   5.449   2.754  11.283  0.6780 -0.3287  2.8763
  181SLPC  H13C20669   5.334   2.717  11.407  0.9641 -1.8092  0.4733
  181SLPC   C1420670   5.206   2.895  11.251  0.4761 -0.2627 -0.2177
  181SLPC  H14A20671   5.297   2.952  11.237  0.9322 -1.2968 -1.7201
  181SLPC  H14B20672   5.126   2.935  11.190  1.2667  2.0599  0.1706
  181SLPC  H14C20673   5.176   2.903  11.355 -0.5455 -2.0559 -0.3260
  181SLPC   C1520674   5.119   2.667  11.233 -0.3670 -0.4756 -0.5589
  181SLPC  H15A20675   5.043   2.708  11.167  0.3034  0.1171 -0.9720
  181SLPC  H15B20676   5.126   2.559  11.231  0.9363 -0.6383  3.4808
  181SLPC  H15C20677   5.075   2.677  11.331 -0.9483  0.1052 -0.8680
  181SLPC   C1220678   5.282   2.739  11.068 -0.1683 -0.1665 -0.6395
  181SLPC  H12A20679   5.367   2.801  11.046 -1.5919  2.4748  0.8304
  181SLPC  H12B20680   5.197   2.776  11.013  1.8679  1.5001 -2.8885
  181SLPC   C1120681   5.319   2.602  11.011  0.2222  0.8215 -0.4761
  181SLPC  H11A20682   5.312   2.616  10.901 -0.9385 -0.1615 -0.5592
  181SLPC  H11B20683   5.236   2.534  11.042 -0.6840  2.7463  1.5732
  181SLPC     P20684   5.579   2.624  10.989 -0.2578 -0.2982  0.1738
  181SLPC   O1320685   5.571   2.771  10.994  0.7528 -0.2498 -0.0400
  181SLPC   O1420686   5.688   2.563  11.067 -0.1093  0.6197 -0.8103
  181SLPC   O1220687   5.448   2.564  11.049 -0.2734  0.2514 -0.4982
  181SLPC   O1120688   5.576   2.567  10.838  0.2624 -0.1103  0.3483
  181SLPC    C120689   5.562   2.428  10.796 -0.5560  0.1344 -0.4705
  181SLPC    HA20690   5.547   2.366  10.887 -0.8161  0.3829 -0.3417
  181SLPC    HB20691   5.478   2.415  10.724  1.3226 -3.5897 -2.2998
  181SLPC    C220692   5.687   2.369  10.732  0.1607 -0.4630 -0.6375
  181SLPC    HS20693   5.773   2.415  10.785 -0.9251 -2.9491  3.7710
  181SLPC   O2120694   5.674   2.415  10.597  0.2198 -0.2114 -0.2766
  181SLPC   C2120695   5.783   2.459  10.532 -0.9912  0.3019  0.2405
  181SLPC   O2220696   5.898   2.483  10.576  0.0973  0.3261  0.1522
  181SLPC   C2220697   5.750   2.476  10.385  0.9145  0.2910 -0.3015
  181SLPC   H2R20698   5.688   2.390  10.353  1.1130  0.3320 -0.8029
  181SLPC   H2S20699   5.672   2.555  10.377  0.7007  0.1591  0.3795
  181SLPC    C320700   5.706   2.213  10.734 -0.3183  0.1513  0.5705
  181SLPC    HX20701   5.618   2.147  10.723 -1.4065  1.7836 -1.2858
  181SLPC    HY20702   5.744   2.185  10.835  2.2364  0.4976 -0.2091
  181SLPC   O3120703   5.800   2.158  10.631 -0.2125 -0.2017 -0.1238
  181SLPC   C3120704   5.928   2.192  10.659  0.3060 -0.6033 -0.0813
  181SLPC   O3220705   5.966   2.234  10.764 -0.8211  0.2192 -0.7188
  181SLPC   C3220706   6.019   2.154  10.535  0.4829 -0.4635 -0.3645
  181SLPC   H2X20707   6.043   2.242  10.471 -0.8494 -0.2831 -0.6397
  181SLPC   H2Y20708   5.964   2.079  10.474  0.4026  0.9692 -2.1564
  181SLPC   C2320709   5.863   2.493  10.289 -0.2647 -0.0930  0.9974
  181SLPC   H3R20710   5.942   2.416  10.303 -1.3637 -0.7658  4.2233
  181SLPC   H3S20711   5.911   2.592  10.298 -1.1597  0.2161  2.6299
  181SLPC   C2420712   5.799   2.506  10.147 -0.5712 -0.1342 -0.3801
  181SLPC   H4R20713   5.713   2.576  10.146 -0.1746  0.3562 -0.9976
  181SLPC   H4S20714   5.760   2.406  10.119 -1.9412  0.5517 -1.0352
  181SLPC   C2520715   5.900   2.568  10.040 -0.1515  0.1979 -0.7329
  181SLPC   H5R20716   5.979   2.489  10.043 -1.1255 -0.8345 -1.2582
  181SLPC   H5S20717   5.944   2.666  10.068 -0.1743 -0.4776  1.9359
  181SLPC   C2620718   5.854   2.566   9.897 -0.9577  0.3768  1.6046
  181SLPC   H6R20719   5.747   2.592   9.886 -1.1263 -1.4903 -3.7373
  181SLPC   H6S20720   5.835   2.463   9.862 -2.9497  1.1730  0.1370
  181SLPC   C2720721   5.943   2.648   9.804 -0.2404  0.2602 -0.4850
  181SLPC   H7R20722   6.048   2.618   9.787 -0.4145 -0.3310 -0.5152
  181SLPC   H7S20723   5.950   2.751   9.847  0.3021  0.1573 -0.3095
  181SLPC   C2820724   5.870   2.657   9.666  0.0645 -0.8120  1.2143
  181SLPC   H8R20725   5.763   2.675   9.690 -0.2654 -0.2571 -0.5189
  181SLPC   H8S20726   5.872   2.560   9.612  1.4012  0.5689 -1.4016
  181SLPC   C2920727   5.928   2.762   9.573  0.2933  0.7353 -0.1318
  181SLPC   H9R20728   5.920   2.866   9.607  4.3249  1.0960  0.2295
  181SLPC  C21020729   5.998   2.750   9.457 -0.1470  0.1290  0.2686
  181SLPC  H10R20730   6.021   2.847   9.410 -0.7598  0.8332  1.3670
  181SLPC  C21120731   6.034   2.633   9.372  0.3024  0.1367  0.3387
  181SLPC  H11R20732   6.045   2.554   9.450  0.2696  2.2189  2.5895
  181SLPC  H11S20733   6.131   2.628   9.318  0.5775  2.0225  0.5748
  181SLPC  C21220734   5.923   2.599   9.282  0.0271  0.2150  0.6894
  181SLPC  H12R20735   5.842   2.537   9.323  0.6340 -1.2855 -0.2739
  181SLPC  C21320736   5.929   2.621   9.148 -0.2112  0.0955  0.1621
  181SLPC  H13R20737   5.842   2.598   9.086 -1.3986  2.5219  0.8297
  181SLPC  C21420738   6.053   2.685   9.077  0.3873  0.4284  0.0851
  181SLPC  H14R20739   6.125   2.738   9.142  0.8039  0.2022 -0.1911
  181SLPC  H14S20740   6.009   2.760   9.008 -0.3438 -0.1721 -0.1173
  181SLPC  C21520741   6.128   2.577   8.991  0.3134  0.6553 -0.1889
  181SLPC  H15R20742   6.193   2.639   8.926  1.6923  0.0179  0.5367
  181SLPC  H15S20743   6.056   2.524   8.926  0.4831 -1.2964  1.1193
  181SLPC  C21620744   6.207   2.481   9.084  1.0277 -0.2614  0.4366
  181SLPC  H16R20745   6.137   2.430   9.153  1.2457 -4.0982 -1.8789
  181SLPC  H16S20746   6.279   2.545   9.138  1.6177 -0.1672 -0.4365
  181SLPC  C21720747   6.286   2.374   9.018  0.5349 -0.4066  0.6232
  181SLPC  H17R20748   6.349   2.417   8.937 -0.7178  0.1746 -0.0721
  181SLPC  H17S20749   6.216   2.302   8.970 -0.4835  0.1467  1.2399
  181SLPC  C21820750   6.376   2.305   9.113 -0.8758  0.9307  0.4077
  181SLPC  H18R20751   6.464   2.367   9.141  2.1362 -2.2218 -1.2946
  181SLPC  H18S20752   6.405   2.206   9.072  2.3250  1.4434  1.1680
  181SLPC  H18T20753   6.318   2.287   9.206 -1.6882 -0.1739 -0.2940
  181SLPC   C3320754   6.154   2.094  10.582  0.0217  0.1138  0.2750
  181SLPC   H3X20755   6.137   2.025  10.668  1.5859 -1.2518 -0.4582
  181SLPC   H3Y20756   6.224   2.173  10.618 -2.2592  2.2419  0.2837
  181SLPC   C3420757   6.212   2.000  10.475  0.5239  0.0430 -0.1424
  181SLPC   H4X20758   6.134   1.931  10.437  0.4591  0.1461 -0.1969
  181SLPC   H4Y20759   6.300   1.947  10.519  0.8006  0.2299 -0.4672
  181SLPC   C3520760   6.257   2.076  10.354  0.2263  0.6519 -0.2345
  181SLPC   H5X20761   6.330   2.156  10.377  0.4067  0.3104  0.4092
  181SLPC   H5Y20762   6.174   2.125  10.299 -0.4668  1.7216  1.7006
  181SLPC   C3620763   6.304   1.982  10.232 -0.4708  0.7254 -1.0341
  181SLPC   H6X20764   6.222   1.929  10.179 -1.6360  0.6370  0.7951
  181SLPC   H6Y20765   6.371   1.901  10.267 -0.2401  1.5827  0.5979
  181SLPC   C3720766   6.368   2.058  10.112 -0.1723  0.2065 -0.3164
  181SLPC   H7X20767   6.416   1.985  10.043 -3.2943 -2.4916  0.0881
  181SLPC   H7Y20768   6.458   2.120  10.134  0.4004 -0.2265 -1.3682
  181SLPC   C3820769   6.269   2.141  10.024 -0.2275  0.3786 -0.6253
  181SLPC   H8X20770   6.195   2.184  10.095  0.6284  0.6376  0.1317
  181SLPC   H8Y20771   6.216   2.080   9.948  1.2413 -2.4726  0.4610
  181SLPC   C3920772   6.337   2.255   9.942 -0.3336  0.6288  0.1168
  181SLPC   H9X20773   6.420   2.204   9.888 -1.0344  1.2748 -1.6531
  181SLPC   H9Y20774   6.382   2.331  10.010 -1.4356 -0.0386  1.6483
  181SLPC  C31020775   6.253   2.315   9.824 -0.6835  0.2738 -0.1261
  181SLPC  H10X20776   6.309   2.405   9.792 -0.9179  1.1408  1.7506
  181SLPC  H10Y20777   6.152   2.331   9.868  0.1593 -1.2899  2.6610
  181SLPC  C31120778   6.238   2.218   9.703 -0.1041 -0.3287  0.3399
  181SLPC  H11X20779   6.185   2.124   9.730  0.5682 -1.0308 -0.7284
  181SLPC  H11Y20780   6.338   2.189   9.666  0.0393  1.2192 -0.5661
  181SLPC  C31220781   6.160   2.276   9.581  0.0466  0.4208  0.0713
  181SLPC  H12X20782   6.207   2.370   9.546  0.9333  0.1429  0.4812
  181SLPC  H12Y20783   6.063   2.300   9.628 -0.0979 -0.1241  0.0550
  181SLPC  C31320784   6.143   2.170   9.477  0.1083 -0.8985 -0.1548
  181SLPC  H13X20785   6.117   2.070   9.520  2.1442 -1.0310  0.9038
  181SLPC  H13Y20786   6.243   2.158   9.430  0.6006 -1.6895  1.0390
  181SLPC  C31420787   6.039   2.204   9.371 -0.3024 -0.1317 -0.8280
  181SLPC  H14X20788   6.065   2.300   9.323  1.0465  0.9332  1.8756
  181SLPC  H14Y20789   5.935   2.222   9.405 -0.5238 -0.0135 -1.5465
  181SLPC  C31520790   6.030   2.107   9.253 -0.3341  0.8359  0.1550
  181SLPC  H15X20791   5.997   2.015   9.307  1.2491  0.4077  0.4359
  181SLPC  H15Y20792   6.136   2.093   9.223 -0.1556 -0.1513  1.1412
  181SLPC  C31620793   5.939   2.153   9.133  0.0155  0.6428  0.9256
  181SLPC  H16X20794   5.955   2.261   9.112 -1.7786  0.4948 -1.6313
  181SLPC  H16Y20795   5.839   2.160   9.179 -0.4371 -3.0517  0.7677
  181SLPC  C31720796   5.923   2.056   9.011  0.4977  0.1154 -0.0222
  181SLPC  H17X20797   6.018   2.045   8.955  0.1315  0.2638 -0.6824
  181SLPC  H17Y20798   5.855   2.095   8.932 -1.3831 -0.0223  1.4556
  181SLPC  C31820799   5.860   1.922   9.058  0.7025 -1.0415  0.1645
  181SLPC  H18X20800   5.892   1.875   9.153  0.6921  0.8199  1.1204
  181SLPC  H18Y20801   5.860   1.838   8.985  0.4552 -1.1875  0.3335
  181SLPC  H18Z20802   5.752   1.946   9.069  1.1227  1.5872 -0.7309
  182SLPC     N20803   4.028   1.748  10.986 -0.3719 -0.2853 -0.1444
  182SLPC   C1320804   3.949   1.866  11.037 -0.1484  0.3014 -0.6566
  182SLPC  H13A20805   3.855   1.835  11.078 -0.4958 -1.6615 -2.7151
  182SLPC  H13B20806   3.998   1.913  11.121 -0.6837 -0.3438  0.0187
  182SLPC  H13C20807   3.918   1.933  10.958 -3.8100 -1.1685 -0.6204
  182SLPC   C1420808   4.046   1.653  11.101  0.3005  0.2778  0.1266
  182SLPC  H14A20809   3.952   1.641  11.151 -0.2012  1.0384 -0.6087
  182SLPC  H14B20810   4.079   1.559  11.060  0.7589 -0.0142  1.1387
  182SLPC  H14C20811   4.121   1.687  11.171  1.4404 -1.4184 -0.2028
  182SLPC   C1520812   4.166   1.794  10.945  0.3606  0.5983 -0.6391
  182SLPC  H15A20813   4.214   1.838  11.031 -1.1550  2.3962 -0.6454
  182SLPC  H15B20814   4.228   1.713  10.910  1.0751  1.3850 -1.2051
  182SLPC  H15C20815   4.174   1.865  10.864  1.5155  1.4411  0.1847
  182SLPC   C1220816   3.960   1.689  10.865  0.1613  0.2965  0.2428
  182SLPC  H12A20817   3.941   1.761  10.787  2.4065  0.3928 -0.2911
  182SLPC  H12B20818   3.858   1.660  10.885 -0.9162  2.4344 -1.7109
  182SLPC   C1120819   4.026   1.579  10.777 -0.2413  0.5645 -0.3059
  182SLPC  H11A20820   4.128   1.612  10.749 -0.3407  2.6381  1.5454
  182SLPC  H11B20821   3.972   1.563  10.681  0.4391  0.2897 -0.6522
  182SLPC     P20822   4.143   1.369  10.873  0.2359  0.4925 -0.0377
  182SLPC   O1320823   4.228   1.432  10.978 -0.1485  0.2720 -0.3321
  182SLPC   O1420824   4.110   1.228  10.901 -0.2192 -0.6291  0.7709
  182SLPC   O1220825   4.014   1.451  10.848  0.2212  0.3574 -0.2398
  182SLPC   O1120826   4.217   1.366  10.731  0.1393 -0.0443 -0.5872
  182SLPC    C120827   4.157   1.293  10.627  0.6745 -0.5089 -0.5141
  182SLPC    HA20828   4.173   1.184  10.646 -0.3660 -0.6357 -0.3216
  182SLPC    HB20829   4.047   1.302  10.625  0.6758 -0.1772  0.4568
  182SLPC    C220830   4.208   1.352  10.486  0.4353 -0.0077 -0.1216
  182SLPC    HS20831   4.171   1.285  10.405 -2.2868  0.3719  0.6937
  182SLPC   O2120832   4.354   1.369  10.492 -0.6393  0.0308 -0.2114
  182SLPC   C2120833   4.421   1.293  10.412  0.8239 -1.0113 -0.6338
  182SLPC   O2220834   4.372   1.223  10.325  0.5360 -0.5929 -0.3186
  182SLPC   C2220835   4.566   1.314  10.435 -0.3897  0.1366  0.2649
  182SLPC   H2R20836   4.586   1.396  10.507 -1.1898  0.6832 -0.1114
  182SLPC   H2S20837   4.603   1.222  10.485  1.0651  0.2072 -0.6114
  182SLPC    C320838   4.150   1.492  10.462  1.2850 -0.2390  0.0387
  182SLPC    HX20839   4.187   1.546  10.552 -1.0090  2.2527 -0.4032
  182SLPC    HY20840   4.041   1.479  10.472  0.9345  2.0944 -0.1020
  182SLPC   O3120841   4.180   1.548  10.337 -0.0413 -0.2500 -0.8039
  182SLPC   C3120842   4.201   1.679  10.331 -0.3645 -0.0258  0.1184
  182SLPC   O3220843   4.195   1.763  10.419 -0.1347  0.3857  0.8533
  182SLPC   C3220844   4.235   1.706  10.184 -0.1107 -0.5652  0.0176
  182SLPC   H2X20845   4.343   1.689  10.168 -0.1176 -0.3947 -0.2252
  182SLPC   H2Y20846   4.216   1.815  10.171  1.5703 -0.5302 -3.3951
  182SLPC   C2320847   4.647   1.318  10.307  0.9152 -0.4276 -0.6266
  182SLPC   H3R20848   4.608   1.231  10.249 -0.3971 -0.6447  0.5223
  182SLPC   H3S20849   4.757   1.314  10.323  1.5986  0.8169 -3.9971
  182SLPC   C2420850   4.612   1.433  10.221 -0.6000  0.2303 -0.4295
  182SLPC   H4R20851   4.642   1.525  10.276 -0.5614  0.8821 -1.5005
  182SLPC   H4S20852   4.505   1.447  10.193 -0.8789 -2.0171 -0.6344
  182SLPC   C2520853   4.691   1.425  10.092  0.4919  0.3487 -0.9457
  182SLPC   H5R20854   4.672   1.335  10.030 -1.3356 -0.9799  1.4269
  182SLPC   H5S20855   4.799   1.416  10.118  0.3122 -2.7065 -0.8819
  182SLPC   C2620856   4.666   1.545  10.002  0.7870  1.2081  0.4651
  182SLPC   H6R20857   4.697   1.634  10.061 -1.4648  1.1809  1.8005
  182SLPC   H6S20858   4.561   1.554   9.968  0.6161 -1.0553  0.2639
  182SLPC   C2720859   4.741   1.536   9.861 -0.0159  0.0858 -0.4777
  182SLPC   H7R20860   4.719   1.447   9.797 -0.1841  0.6944 -1.2820
  182SLPC   H7S20861   4.850   1.535   9.883 -0.0915  2.8204  0.2730
  182SLPC   C2820862   4.714   1.656   9.771  0.4422 -0.3868  0.5474
  182SLPC   H8R20863   4.603   1.655   9.762  0.3246  2.4294  0.7654
  182SLPC   H8S20864   4.763   1.640   9.672 -0.1265 -1.1987  0.3860
  182SLPC   C2920865   4.767   1.782   9.822  0.0132 -0.2942 -0.5871
  182SLPC   H9R20866   4.769   1.790   9.932  0.2567  0.0928 -0.6177
  182SLPC  C21020867   4.800   1.891   9.744  0.2623 -0.1610 -0.6590
  182SLPC  H10R20868   4.841   1.981   9.793 -0.0951 -0.8867  1.0704
  182SLPC  C21120869   4.782   1.887   9.597 -0.9009 -0.2431  0.6553
  182SLPC  H11R20870   4.701   1.822   9.559 -1.1967  0.3147  0.3234
  182SLPC  H11S20871   4.878   1.854   9.552 -0.9377  0.2420  0.2188
  182SLPC  C21220872   4.755   2.027   9.538  0.1756  0.1629 -0.2023
  182SLPC  H12R20873   4.801   2.114   9.587  1.5078  0.9311 -2.6594
  182SLPC  C21320874   4.707   2.058   9.413  0.3403 -0.0193  0.5642
  182SLPC  H13R20875   4.693   2.164   9.387  2.7208  0.0352 -0.6983
  182SLPC  C21420876   4.669   1.958   9.309  0.8978 -0.2497 -0.0400
  182SLPC  H14R20877   4.565   1.978   9.275  1.9111  0.2975 -3.0592
  182SLPC  H14S20878   4.659   1.857   9.355 -0.4111  0.4415  1.3039
  182SLPC  C21520879   4.761   1.957   9.187  0.0685  0.2539  0.0335
  182SLPC  H15R20880   4.744   2.050   9.129  0.4496 -0.1542 -0.7379
  182SLPC  H15S20881   4.737   1.876   9.115  1.0729  0.8552 -1.0076
  182SLPC  C21620882   4.909   1.940   9.215 -0.4893  0.5810 -0.1399
  182SLPC  H16R20883   4.901   1.840   9.264  0.5897 -0.5994 -2.1918
  182SLPC  H16S20884   4.949   2.010   9.291  0.1406  0.4781 -0.3670
  182SLPC  C21720885   5.002   1.907   9.101  0.7049  0.9887  0.6020
  182SLPC  H17R20886   5.106   1.901   9.138  0.2364 -2.0795  1.7286
  182SLPC  H17S20887   5.007   1.998   9.037 -3.0782  0.1670 -1.2003
  182SLPC  C21820888   4.970   1.798   8.996 -0.1663  0.2103 -0.2278
  182SLPC  H18R20889   4.979   1.697   9.041  0.5342  0.2870 -0.1817
  182SLPC  H18S20890   5.038   1.807   8.909  0.7366 -0.7654  0.3496
  182SLPC  H18T20891   4.867   1.801   8.955 -0.2257 -0.8410 -0.1670
  182SLPC   C3320892   4.134   1.646  10.080 -0.1509 -0.0368 -0.7539
  182SLPC   H3X20893   4.033   1.691  10.087 -0.0510  0.0720  0.0127
  182SLPC   H3Y20894   4.117   1.540  10.110 -3.6469  0.6669  0.1883
  182SLPC   C3420895   4.187   1.658   9.935 -0.3255 -0.0949 -0.3950
  182SLPC   H4X20896   4.297   1.678   9.932 -0.2769 -0.2519  0.1622
  182SLPC   H4Y20897   4.142   1.741   9.878  0.8627  1.2294  0.5112
  182SLPC   C3520898   4.159   1.522   9.858 -0.2424 -0.3391 -0.5396
  182SLPC   H5X20899   4.052   1.494   9.865 -0.0114 -1.6475 -1.7762
  182SLPC   H5Y20900   4.217   1.444   9.911  1.0755  0.1367 -1.2353
  182SLPC   C3620901   4.188   1.524   9.707  0.1737 -0.0348  0.5558
  182SLPC   H6X20902   4.120   1.598   9.660 -2.2695 -3.4035 -1.6230
  182SLPC   H6Y20903   4.157   1.427   9.664 -0.7001  1.0540 -1.4183
  182SLPC   C3720904   4.339   1.544   9.666 -0.1104  0.9569 -0.6159
  182SLPC   H7X20905   4.396   1.479   9.736  1.7442  1.8196 -1.2688
  182SLPC   H7Y20906   4.369   1.649   9.685  2.2501  0.0261  1.3057
  182SLPC   C3820907   4.364   1.504   9.525 -0.1187 -0.3063  0.7207
  182SLPC   H8X20908   4.329   1.403   9.496  2.1172 -0.7009 -0.9135
  182SLPC   H8Y20909   4.471   1.520   9.502 -0.1945 -0.7998 -0.0231
  182SLPC   C3920910   4.308   1.609   9.422 -0.6286 -0.2131  0.6138
  182SLPC   H9X20911   4.364   1.704   9.438 -1.1626  0.1807  0.2052
  182SLPC   H9Y20912   4.204   1.630   9.456 -0.7386 -0.9967  0.7708
  182SLPC  C31020913   4.304   1.568   9.276 -0.5913 -0.3768  0.4366
  182SLPC  H10X20914   4.229   1.634   9.229  1.1186  1.8217  0.6531
  182SLPC  H10Y20915   4.265   1.464   9.271  2.2212 -1.4686 -1.2217
  182SLPC  C31120916   4.444   1.569   9.205 -0.2364  0.1989 -0.1724
  182SLPC  H11X20917   4.494   1.475   9.238 -1.7741 -0.0579  1.5267
  182SLPC  H11Y20918   4.511   1.654   9.226  1.0191 -0.3288 -1.7658
  182SLPC  C31220919   4.432   1.568   9.049  0.0042  0.1104  0.1655
  182SLPC  H12X20920   4.365   1.483   9.026  1.2523 -0.8130 -0.1981
  182SLPC  H12Y20921   4.532   1.554   9.001 -0.0407  2.3485 -0.6990
  182SLPC  C31320922   4.384   1.699   8.987 -0.3941  0.1965 -0.4440
  182SLPC  H13X20923   4.465   1.774   9.001  0.2570 -0.2111 -1.8189
  182SLPC  H13Y20924   4.295   1.738   9.042 -0.1218 -1.9419  1.6728
  182SLPC  C31420925   4.364   1.676   8.833 -0.1293  0.5541  0.2712
  182SLPC  H14X20926   4.271   1.616   8.826  0.7437 -1.1158  2.0126
  182SLPC  H14Y20927   4.443   1.600   8.813 -0.1773  0.4787  0.3671
  182SLPC  C31520928   4.348   1.796   8.740  0.3654  0.0925 -0.2905
  182SLPC  H15X20929   4.382   1.755   8.642 -0.6574 -2.2669  0.2650
  182SLPC  H15Y20930   4.415   1.883   8.754 -0.3905  0.6657 -0.1420
  182SLPC  C31620931   4.203   1.844   8.730  0.0308 -0.1855  0.0666
  182SLPC  H16X20932   4.162   1.872   8.829  0.2800  1.2146 -0.1979
  182SLPC  H16Y20933   4.142   1.754   8.708  1.0701 -0.8724 -0.0460
  182SLPC  C31720934   4.181   1.966   8.636  0.1905  0.1921  0.3434
  182SLPC  H17X20935   4.200   1.925   8.534  0.7642 -0.4407  0.6964
  182SLPC  H17Y20936   4.248   2.050   8.664 -0.8457  0.7295  1.2664
  182SLPC  C31820937   4.033   2.023   8.647 -0.4634 -0.3005 -0.5716
  182SLPC  H18X20938   4.023   2.094   8.562 -0.8531 -2.0898 -2.0842
  182SLPC  H18Y20939   4.015   2.077   8.742  1.2721 -0.7334  0.0481
  182SLPC  H18Z20940   3.952   1.952   8.621 -1.2569 -0.7218  2.6567
  183SLPC     N20941   6.642   3.960  11.185  0.1117 -0.5904 -0.1800
  183SLPC   C1320942   6.774   3.903  11.152 -0.1417 -0.6154  0.0884
  183SLPC  H13A20943   6.817   3.871  11.245  1.0058  3.4656  1.1547
  183SLPC  H13B20944   6.760   3.818  11.087 -1.2457 -0.5658  0.2469
  183SLPC  H13C20945   6.849   3.971  11.115 -1.5605 -0.6831 -3.3481
  183SLPC   C1420946   6.666   4.073  11.283 -0.4378 -0.1379 -0.1094
  183SLPC  H14A20947   6.717   4.037  11.371 -0.1775 -1.6490 -0.8561
  183SLPC  H14B20948   6.730   4.144  11.232 -0.5478  0.1067  0.0928
  183SLPC  H14C20949   6.577   4.127  11.310  0.3467 -0.2056  2.8819
  183SLPC   C1520950   6.550   3.866  11.244  0.3326 -0.2801  0.2902
  183SLPC  H15A20951   6.518   3.785  11.180  0.3972 -2.1266  2.4504
  183SLPC  H15B20952   6.596   3.807  11.322  0.3915 -1.3387 -0.5250
  183SLPC  H15C20953   6.468   3.917  11.293  0.5896  0.9671 -0.5235
  183SLPC   C1220954   6.588   4.018  11.052  0.8910 -0.2727 -0.5791
  183SLPC  H12A20955   6.656   4.094  11.018  1.5026 -0.6044 -0.1146
  183SLPC  H12B20956   6.487   4.053  11.066  1.3450  0.7561  0.2281
  183SLPC   C1120957   6.580   3.931  10.924  0.4766  0.5794 -0.0673
  183SLPC  H11A20958   6.677   3.899  10.879  0.0698 -1.6349  0.5086
  183SLPC  H11B20959   6.520   3.992  10.853 -3.7213 -2.0226  0.8809
  183SLPC     P20960   6.362   3.770  10.913 -0.1090 -0.1991  0.1153
  183SLPC   O1320961   6.317   3.656  10.993  0.7592  0.6742  0.0730
  183SLPC   O1420962   6.285   3.900  10.931  0.4665 -0.4012  0.0084
  183SLPC   O1220963   6.507   3.810  10.957  0.4542  0.2183 -0.1706
  183SLPC   O1120964   6.364   3.734  10.753  0.4784 -0.3108 -0.1600
  183SLPC    C120965   6.383   3.591  10.723 -0.1217 -0.3657  0.0159
  183SLPC    HA20966   6.486   3.553  10.740 -0.1591  0.4262  2.5174
  183SLPC    HB20967   6.319   3.531  10.793  0.5820  1.5031  2.3907
  183SLPC    C220968   6.352   3.552  10.573 -0.0274  0.1630  0.4145
  183SLPC    HS20969   6.372   3.443  10.563  1.8948  0.5160  0.1065
  183SLPC   O2120970   6.430   3.630  10.471  0.4163 -0.8159  0.1726
  183SLPC   C2120971   6.558   3.592  10.466  0.0268  0.0053  0.5931
  183SLPC   O2220972   6.608   3.515  10.541 -0.6110 -1.3201 -0.7499
  183SLPC   C2220973   6.626   3.662  10.352 -0.3570 -0.7124 -0.0286
  183SLPC   H2R20974   6.552   3.718  10.289 -0.9483  0.9831  2.0565
  183SLPC   H2S20975   6.692   3.742  10.391 -0.5875 -0.0025 -1.0378
  183SLPC    C320976   6.200   3.569  10.544 -0.1641 -0.1282 -0.4565
  183SLPC    HX20977   6.167   3.673  10.565 -0.8200  0.0651 -2.2462
  183SLPC    HY20978   6.149   3.499  10.615 -0.1015 -0.9255 -1.1815
  183SLPC   O3120979   6.169   3.532  10.406 -0.4982 -0.8970 -0.5018
  183SLPC   C3120980   6.040   3.543  10.372  0.3767  0.7063  0.2322
  183SLPC   O3220981   5.952   3.600  10.427  0.4535  0.5121 -0.6741
  183SLPC   C3220982   6.023   3.460  10.242 -0.4786  0.2244 -0.3219
  183SLPC   H2X20983   6.071   3.366  10.275 -0.9561  0.7249  2.0162
  183SLPC   H2Y20984   6.094   3.497  10.165 -1.7384 -0.8039 -2.0573
  183SLPC   C2320985   6.696   3.567  10.254  1.3313 -0.2046 -0.1102
  183SLPC   H3R20986   6.626   3.485  10.227  1.1640 -0.3539  0.7702
  183SLPC   H3S20987   6.790   3.527  10.298  0.4192 -1.4923  0.7291
  183SLPC   C2420988   6.739   3.628  10.126 -0.4863 -0.4307 -0.6576
  183SLPC   H4R20989   6.819   3.703  10.148 -0.2782 -1.3610  2.1287
  183SLPC   H4S20990   6.666   3.696  10.076  1.6308  2.6257  0.0854
  183SLPC   C2520991   6.801   3.515  10.041  0.3218 -0.2354 -0.3656
  183SLPC   H5R20992   6.721   3.458   9.988  0.6832  0.6162 -1.8947
  183SLPC   H5S20993   6.854   3.440  10.104 -0.5944 -1.5733 -1.1559
  183SLPC   C2620994   6.892   3.574   9.931  0.3282  0.1298  0.1248
  183SLPC   H6R20995   6.956   3.495   9.886  3.4070  1.8851  1.1928
  183SLPC   H6S20996   6.971   3.630   9.985 -0.3159  0.3372  0.8654
  183SLPC   C2720997   6.831   3.661   9.820 -0.3038 -0.2812  0.3298
  183SLPC   H7R20998   6.908   3.718   9.763 -3.2251  2.8589 -0.7910
  183SLPC   H7S20999   6.771   3.738   9.872 -0.1791 -0.8989  1.4104
  183SLPC   C2821000   6.737   3.588   9.721  0.4733 -0.4315 -0.6781
  183SLPC   H8R21001   6.680   3.660   9.659 -0.9636 -1.7221 -0.9023
  183SLPC   H8S21002   6.666   3.522   9.775  0.7879 -0.0260  0.2512
  183SLPC   C2921003   6.821   3.495   9.638 -0.0670 -0.1373 -0.5770
  183SLPC   H9R21004   6.885   3.426   9.695  1.1123 -0.7761 -2.5895
  183SLPC  C21021005   6.832   3.487   9.502 -0.4012 -0.5086  0.0587
  183SLPC  H10R21006   6.910   3.422   9.459  0.6409  0.2992  0.6888
  183SLPC  C21121007   6.768   3.576   9.400  0.3936  0.1736  0.2624
  183SLPC  H11R21008   6.826   3.575   9.305 -0.2323  1.7015 -0.1675
  183SLPC  H11S21009   6.767   3.678   9.443 -3.4553  0.4908 -0.2429
  183SLPC  C21221010   6.617   3.545   9.380 -0.7163 -0.0440  0.2215
  183SLPC  H12R21011   6.557   3.517   9.468  0.3970 -0.7178  0.7806
  183SLPC  C21321012   6.550   3.549   9.263  0.2468 -0.3317  0.0723
  183SLPC  H13R21013   6.443   3.528   9.258 -0.2888  1.8455  1.0393
  183SLPC  C21421014   6.621   3.579   9.130  0.2929  0.6248 -0.8917
  183SLPC  H14R21015   6.715   3.636   9.145  1.2912 -0.5086 -2.5185
  183SLPC  H14S21016   6.566   3.648   9.063  1.3927  1.6186 -0.8052
  183SLPC  C21521017   6.653   3.453   9.058  0.5940  0.4139 -0.5703
  183SLPC  H15R21018   6.565   3.396   9.020 -0.4457  1.9019 -0.4696
  183SLPC  H15S21019   6.713   3.386   9.123  0.4896 -1.1819 -2.0435
  183SLPC  C21621020   6.734   3.489   8.932 -0.4536  0.1451  0.5268
  183SLPC  H16R21021   6.827   3.545   8.958 -0.2121  1.7553 -3.1381
  183SLPC  H16S21022   6.674   3.560   8.870  0.2432 -0.1835 -0.5521
  183SLPC  C21721023   6.770   3.371   8.842 -0.0111  0.0871  0.4550
  183SLPC  H17R21024   6.672   3.323   8.818  0.9089 -2.4430  1.3366
  183SLPC  H17S21025   6.824   3.292   8.900 -1.1725  0.0842  1.5878
  183SLPC  C21821026   6.838   3.396   8.710  0.0101 -0.0011  0.3965
  183SLPC  H18R21027   6.909   3.481   8.718 -1.1486  0.8771  1.8730
  183SLPC  H18S21028   6.766   3.431   8.634  1.0932  0.8385 -0.2773
  183SLPC  H18T21029   6.891   3.306   8.671 -0.9895 -0.3900 -0.1014
  183SLPC   C3321030   5.879   3.427  10.204 -0.3063  0.4114  0.1238
  183SLPC   H3X21031   5.819   3.521  10.204 -0.0573  0.5912 -1.1868
  183SLPC   H3Y21032   5.831   3.350  10.267  1.6488 -1.2163 -0.2762
  183SLPC   C3421033   5.864   3.377  10.051 -0.8127 -0.3682  0.0698
  183SLPC   H4X21034   5.915   3.279  10.036  0.7246  0.1679  1.5897
  183SLPC   H4Y21035   5.924   3.449   9.991 -0.0272 -1.0476  0.0243
  183SLPC   C3521036   5.719   3.386  10.003  0.6216 -0.6690  0.5613
  183SLPC   H5X21037   5.675   3.481  10.041  1.2545 -1.4082  3.3950
  183SLPC   H5Y21038   5.646   3.307  10.030 -0.0452  0.2879  1.6305
  183SLPC   C3621039   5.712   3.398   9.848 -0.0934  0.2010 -0.2930
  183SLPC   H6X21040   5.766   3.313   9.800  0.5405 -0.1650  1.0150
  183SLPC   H6Y21041   5.769   3.488   9.818  2.9808 -1.5123 -0.0675
  183SLPC   C3721042   5.569   3.408   9.792 -0.1795 -0.4561  0.4288
  183SLPC   H7X21043   5.519   3.498   9.834 -0.6991  0.2506 -1.5971
  183SLPC   H7Y21044   5.509   3.319   9.820 -0.9266 -0.1380 -0.1283
  183SLPC   C3821045   5.565   3.423   9.639  0.3066 -0.2916 -0.7137
  183SLPC   H8X21046   5.622   3.333   9.606  3.1616  0.0193  2.7216
  183SLPC   H8Y21047   5.613   3.516   9.602 -0.1982 -0.3889 -1.6191
  183SLPC   C3921048   5.424   3.407   9.583 -0.1632  0.1661  0.2311
  183SLPC   H9X21049   5.355   3.492   9.598  0.0926  1.1827 -3.4393
  183SLPC   H9Y21050   5.379   3.315   9.627  1.5407 -0.5165  0.6287
  183SLPC  C31021051   5.412   3.371   9.427  0.2212  0.1058 -0.0633
  183SLPC  H10X21052   5.464   3.273   9.424  1.7650  0.8791  0.1246
  183SLPC  H10Y21053   5.470   3.451   9.375 -0.8243  1.2837  0.5159
  183SLPC  C31121054   5.274   3.363   9.374  0.8698  0.2351  0.7080
  183SLPC  H11X21055   5.218   3.459   9.383  1.9626  0.9448  0.1698
  183SLPC  H11Y21056   5.226   3.281   9.431 -3.1009  0.8625 -1.3210
  183SLPC  C31221057   5.271   3.317   9.223  0.1264  0.4237 -0.3503
  183SLPC  H12X21058   5.166   3.298   9.191  0.4135  1.0179 -1.7435
  183SLPC  H12Y21059   5.328   3.222   9.217  1.2267  1.1353 -3.2260
  183SLPC  C31321060   5.347   3.409   9.118  0.4176  0.3941  0.7000
  183SLPC  H13X21061   5.457   3.409   9.134  0.6081  0.1153 -0.4969
  183SLPC  H13Y21062   5.299   3.508   9.136  0.7490  0.7289 -0.1884
  183SLPC  C31421063   5.311   3.355   8.974  0.0138 -0.4953  0.3028
  183SLPC  H14X21064   5.333   3.436   8.902  0.6030 -0.2816  0.7180
  183SLPC  H14Y21065   5.200   3.353   8.963 -0.1994  1.3845  1.5942
  183SLPC  C31521066   5.352   3.209   8.945  0.5684  0.2362  0.2860
  183SLPC  H15X21067   5.275   3.148   8.996  0.7001 -1.0450 -0.9913
  183SLPC  H15Y21068   5.460   3.192   8.966  1.0940  2.2076 -0.6023
  183SLPC  C31621069   5.332   3.176   8.796 -0.0809 -1.0207  0.5674
  183SLPC  H16X21070   5.420   3.223   8.747 -0.3207 -1.3516 -0.1986
  183SLPC  H16Y21071   5.241   3.227   8.759  0.3180 -1.6935 -1.4905
  183SLPC  C31721072   5.335   3.024   8.757  0.6003 -0.0602  0.3208
  183SLPC  H17X21073   5.254   3.020   8.682  1.4263  4.8815 -1.1815
  183SLPC  H17Y21074   5.306   2.968   8.849 -3.6042  2.1875  0.5995
  183SLPC  C31821075   5.472   2.994   8.701 -0.2218 -0.1369 -0.3143
  183SLPC  H18X21076   5.479   2.888   8.668  2.9143 -0.6806  1.6809
  183SLPC  H18Y21077   5.549   2.993   8.781  0.2174  0.4028 -0.7243
  183SLPC  H18Z21078   5.500   3.066   8.621  0.0093 -1.5770 -1.5794
  184SLPC     N21079   0.674   0.665  10.875 -0.4089  0.4156 -0.3045
  184SLPC   C1321080   0.717   0.532  10.919  0.1418  1.4855  0.0681
  184SLPC  H13A21081   0.630   0.467  10.922  0.8361  0.2263 -3.0055
  184SLPC  H13B21082   0.791   0.492  10.851  0.6537  2.5122  0.0136
  184SLPC  H13C21083   0.764   0.530  11.016  1.5663 -0.1132 -0.6079
  184SLPC   C1421084   0.784   0.763  10.908 -0.5880  0.2262  0.3683
  184SLPC  H14A21085   0.810   0.776  11.012 -1.4579 -2.5894  1.0115
  184SLPC  H14B21086   0.872   0.733  10.853  0.3596  0.9758  1.4257
  184SLPC  H14C21087   0.766   0.861  10.864  2.8649  0.0705 -1.7572
  184SLPC   C1521088   0.553   0.705  10.952 -0.4923  0.4266 -0.2482
  184SLPC  H15A21089   0.558   0.718  11.059  0.8047  1.0448 -0.3573
  184SLPC  H15B21090   0.519   0.800  10.913  0.1974  0.8853  0.2241
  184SLPC  H15C21091   0.470   0.643  10.924  0.6163 -1.1114 -0.2868
  184SLPC   C1221092   0.635   0.659  10.727  0.2312 -0.8518 -0.3731
  184SLPC  H12A21093   0.583   0.748  10.694 -1.5585 -1.2809  1.1745
  184SLPC  H12B21094   0.562   0.581  10.709 -3.4626  2.1340  0.3763
  184SLPC   C1121095   0.757   0.637  10.636 -0.4977 -0.2992  0.4059
  184SLPC  H11A21096   0.738   0.601  10.532 -1.0196 -1.8189  1.0024
  184SLPC  H11B21097   0.816   0.555  10.683 -0.2122  0.1161  0.7733
  184SLPC     P21098   0.813   0.879  10.538  0.0123  0.2212  0.1583
  184SLPC   O1321099   0.711   0.965  10.603  0.5188 -0.0206  0.0123
  184SLPC   O1421100   0.942   0.933  10.508 -0.2069  0.2458 -0.1882
  184SLPC   O1221101   0.842   0.756  10.626 -0.1607  0.3075 -0.4672
  184SLPC   O1121102   0.752   0.815  10.401  0.2006  0.5487  0.6006
  184SLPC    C121103   0.837   0.716  10.334  0.6569  0.2376 -0.3309
  184SLPC    HA21104   0.925   0.685  10.393  1.3794  1.0012 -0.9817
  184SLPC    HB21105   0.778   0.627  10.302  0.7400 -0.6443  1.8029
  184SLPC    C221106   0.892   0.790  10.202  0.1447  0.5328 -0.7290
  184SLPC    HS21107   0.941   0.885  10.231 -0.7536  1.4290 -2.0554
  184SLPC   O2121108   0.783   0.806  10.110  0.0656 -0.1854  0.0160
  184SLPC   C2121109   0.723   0.923  10.118 -0.0192  0.2814  0.2905
  184SLPC   O2221110   0.770   1.028  10.159  0.2274  0.0237 -0.2614
  184SLPC   C2221111   0.574   0.906  10.067 -0.1522  0.1567  0.2954
  184SLPC   H2R21112   0.561   0.802  10.032  0.4614 -0.3394  1.4635
  184SLPC   H2S21113   0.517   0.918  10.162 -0.5449 -0.9042  0.2002
  184SLPC    C321114   1.011   0.702  10.144 -0.1534 -0.0077 -0.3158
  184SLPC    HX21115   1.024   0.613  10.209  1.6884  0.6908  0.3403
  184SLPC    HY21116   1.109   0.751  10.163  1.5078 -3.0189 -0.4122
  184SLPC   O3121117   0.989   0.677  10.002 -0.0145 -0.3059  0.3791
  184SLPC   C3121118   0.921   0.576   9.960  0.6804 -0.1106 -0.7632
  184SLPC   O3221119   0.864   0.495  10.030 -0.3882  0.0485  1.2177
  184SLPC   C3221120   0.897   0.582   9.813  0.5408 -0.1061 -0.0426
  184SLPC   H2X21121   0.979   0.639   9.763  1.7763 -2.4597 -0.8545
  184SLPC   H2Y21122   0.799   0.630   9.795 -0.1372 -1.4259  0.0389
  184SLPC   C2321123   0.535   1.012   9.966 -0.0075  0.8583 -0.1307
  184SLPC   H3R21124   0.542   1.115  10.007  2.0870  0.2172  1.2693
  184SLPC   H3S21125   0.427   0.993   9.948 -0.9621  3.4278  2.2457
  184SLPC   C2421126   0.614   0.995   9.836 -0.1172 -0.2084 -0.1561
  184SLPC   H4R21127   0.711   0.942   9.853 -1.8904 -3.2654  1.1922
  184SLPC   H4S21128   0.625   1.093   9.784  0.6213  0.7270  1.6551
  184SLPC   C2521129   0.540   0.910   9.731 -0.1879 -0.6965 -0.6458
  184SLPC   H5R21130   0.444   0.962   9.711  0.2138  0.5775  0.5275
  184SLPC   H5S21131   0.515   0.815   9.783  0.0136  0.1814  1.1361
  184SLPC   C2621132   0.622   0.884   9.608 -0.2993 -0.4011  0.2465
  184SLPC   H6R21133   0.715   0.829   9.633 -1.0471 -3.2120 -2.6644
  184SLPC   H6S21134   0.656   0.982   9.566  1.6658 -0.3618  1.7361
  184SLPC   C2721135   0.550   0.796   9.508  0.3036  0.2833 -0.0655
  184SLPC   H7R21136   0.443   0.825   9.505  0.4424  0.8745  0.4582
  184SLPC   H7S21137   0.558   0.695   9.554  2.8238  0.2868 -0.3393
  184SLPC   C2821138   0.607   0.780   9.364 -0.1283  0.0716 -0.5393
  184SLPC   H8R21139   0.599   0.880   9.317 -0.6490 -0.0838 -0.7931
  184SLPC   H8S21140   0.543   0.715   9.301 -1.7453  1.2477 -0.1663
  184SLPC   C2921141   0.748   0.731   9.367 -0.0572  0.4031 -0.1266
  184SLPC   H9R21142   0.809   0.765   9.451  1.0606  0.0222 -0.7685
  184SLPC  C21021143   0.797   0.637   9.280  0.4761 -0.0155 -0.7155
  184SLPC  H10R21144   0.897   0.595   9.298  0.5065 -0.4714 -1.8931
  184SLPC  C21121145   0.723   0.572   9.160  0.2877 -0.5045  0.3485
  184SLPC  H11R21146   0.720   0.652   9.083  1.3079 -1.7287 -1.0189
  184SLPC  H11S21147   0.621   0.533   9.182 -0.1440 -0.7475 -1.8574
  184SLPC  C21221148   0.805   0.458   9.100  0.4426  0.0860  0.0870
  184SLPC  H12R21149   0.794   0.372   9.167 -2.0886  1.8127  2.1244
  184SLPC  C21321150   0.877   0.455   8.985  0.1797 -0.7454 -0.1146
  184SLPC  H13R21151   0.926   0.360   8.959 -3.1658 -2.3827 -1.0039
  184SLPC  C21421152   0.902   0.564   8.889  0.0861  0.1617  0.4848
  184SLPC  H14R21153   0.819   0.638   8.889  0.2239  0.3173  0.4240
  184SLPC  H14S21154   0.900   0.530   8.783 -0.3692 -0.8369  0.8066
  184SLPC  C21521155   1.036   0.633   8.924  0.0434 -0.4092  0.5231
  184SLPC  H15R21156   1.116   0.557   8.923 -0.9236 -1.4817 -1.2836
  184SLPC  H15S21157   1.043   0.670   9.028  1.5291 -0.1643  0.3576
  184SLPC  C21621158   1.080   0.748   8.827 -1.1303  0.0028  0.1320
  184SLPC  H16R21159   1.178   0.786   8.862 -0.2797 -1.8547 -0.1243
  184SLPC  H16S21160   1.011   0.833   8.845  0.8012  1.0429  3.6250
  184SLPC  C21721161   1.098   0.711   8.678  0.2179 -0.2940  0.0348
  184SLPC  H17R21162   1.108   0.812   8.633 -1.1754  0.3269  1.0356
  184SLPC  H17S21163   1.008   0.652   8.650  0.4809 -0.5122 -0.3518
  184SLPC  C21821164   1.230   0.643   8.655  0.0717  0.2499  0.5233
  184SLPC  H18R21165   1.236   0.618   8.547  0.1320  0.8813  0.3791
  184SLPC  H18S21166   1.219   0.547   8.710 -0.6156  0.5468  0.9079
  184SLPC  H18T21167   1.321   0.697   8.690  0.6477  0.0591 -0.6521
  184SLPC   C3321168   0.898   0.447   9.740  0.2274 -0.1686 -0.5152
  184SLPC   H3X21169   0.842   0.369   9.795  0.0389  0.7760  0.6845
  184SLPC   H3Y21170   0.999   0.402   9.748  0.7771  0.7317 -2.0967
  184SLPC   C3421171   0.861   0.450   9.586  0.5846  0.5559 -0.6519
  184SLPC   H4X21172   0.923   0.528   9.538  1.7528 -0.0649 -0.1795
  184SLPC   H4Y21173   0.754   0.479   9.589 -0.2713 -2.3472  0.6348
  184SLPC   C3521174   0.874   0.316   9.514 -0.0012  0.1829  0.0281
  184SLPC   H5X21175   0.978   0.278   9.501 -0.1248  0.2011 -1.0522
  184SLPC   H5Y21176   0.837   0.332   9.411  0.0164 -1.7512 -0.3264
  184SLPC   C3621177   0.796   0.201   9.588  0.4371  0.0053 -0.5095
  184SLPC   H6X21178   0.691   0.236   9.591  0.5375  0.3067 -0.4541
  184SLPC   H6Y21179   0.835   0.182   9.690 -0.9323 -1.4269 -0.2192
  184SLPC   C3721180   0.808   0.070   9.501  0.1564  0.1127 -0.2819
  184SLPC   H7X21181   0.778  -0.012   9.569 -2.0077  1.3061  0.2937
  184SLPC   H7Y21182   0.908   0.038   9.466  0.4529 -0.6421  1.2027
  184SLPC   C3821183   0.716   0.070   9.374  0.3180 -0.3284 -0.0980
  184SLPC   H8X21184   0.755   0.152   9.309 -0.4830  1.4380  1.5604
  184SLPC   H8Y21185   0.614   0.097   9.408  0.5337 -0.7093  0.8753
  184SLPC   C3921186   0.710  -0.057   9.298 -0.2420  0.0311 -0.5476
  184SLPC   H9X21187   0.679  -0.139   9.366 -1.1412 -0.6006 -1.7022
  184SLPC   H9Y21188   0.816  -0.083   9.276  0.8818  3.4054  0.1478
  184SLPC  C31021189   0.623  -0.056   9.175 -0.0045  0.1317  0.0408
  184SLPC  H10X21190   0.515  -0.062   9.204 -0.4324  0.0391 -1.4677
  184SLPC  H10Y21191   0.641  -0.150   9.120 -1.0253 -1.8202  2.7972
  184SLPC  C31121192   0.637   0.066   9.084  0.2866  0.2818 -0.5415
  184SLPC  H11X21193   0.745   0.084   9.066  1.1923 -2.3976  1.4518
  184SLPC  H11Y21194   0.611   0.165   9.126  1.7915  0.9822 -1.1982
  184SLPC  C31221195   0.576   0.046   8.947  0.1212 -0.1837 -0.4342
  184SLPC  H12X21196   0.481  -0.007   8.969  0.5120 -1.2277 -1.1793
  184SLPC  H12Y21197   0.632  -0.029   8.887  0.8281  0.1852 -0.2487
  184SLPC  C31321198   0.554   0.183   8.878 -0.2093  0.0914  1.3531
  184SLPC  H13X21199   0.650   0.238   8.882 -0.5499  0.7309  1.0448
  184SLPC  H13Y21200   0.480   0.253   8.923  1.8580  2.7027  0.9332
  184SLPC  C31421201   0.527   0.173   8.724  0.4045 -0.0049  0.5858
  184SLPC  H14X21202   0.419   0.148   8.710 -0.0671  1.8750  0.7081
  184SLPC  H14Y21203   0.578   0.088   8.673 -1.4917 -0.8861  0.0173
  184SLPC  C31521204   0.543   0.300   8.653 -0.1291 -0.3221 -0.1043
  184SLPC  H15X21205   0.583   0.375   8.725  1.1839 -1.4326  0.3782
  184SLPC  H15Y21206   0.447   0.336   8.611  0.1548  0.5792 -0.0009
  184SLPC  C31621207   0.647   0.290   8.531  0.2004  0.8913 -0.0939
  184SLPC  H16X21208   0.626   0.204   8.466 -1.0884  0.2679  1.0973
  184SLPC  H16Y21209   0.745   0.254   8.570  1.1172 -0.4497 -3.3027
  184SLPC  C31721210   0.663   0.420   8.458  0.3641  0.4243  0.2096
  184SLPC  H17X21211   0.713   0.502   8.514  0.6379  0.6550 -0.3632
  184SLPC  H17Y21212   0.564   0.462   8.430  0.6975  1.4103  0.4710
  184SLPC  C31821213   0.756   0.408   8.335  0.0046 -0.1927 -0.9545
  184SLPC  H18X21214   0.718   0.328   8.268  0.9492 -1.4214 -0.0696
  184SLPC  H18Y21215   0.857   0.382   8.373 -0.9275 -1.3608  0.9108
  184SLPC  H18Z21216   0.761   0.504   8.279  0.1499 -1.4663 -3.2636
  185SLPC     N21217   0.433   3.854   6.614  0.3751  0.4736 -0.1208
  185SLPC   C1321218   0.551   3.871   6.699 -0.5298  0.1464  0.3369
  185SLPC  H13A21219   0.599   3.778   6.727 -0.3316  0.3444  0.6580
  185SLPC  H13B21220   0.629   3.925   6.649  0.0111 -0.9646 -0.0546
  185SLPC  H13C21221   0.531   3.923   6.791  0.4874 -1.6870  1.6477
  185SLPC   C1421222   0.359   3.736   6.676  0.2206  0.6889  0.6341
  185SLPC  H14A21223   0.262   3.729   6.628  0.5919 -0.0037 -0.0270
  185SLPC  H14B21224   0.413   3.648   6.648 -2.7019 -1.1504  0.3588
  185SLPC  H14C21225   0.352   3.730   6.784  2.4351 -0.7327  0.7591
  185SLPC   C1521226   0.488   3.813   6.480  0.7347 -0.7903  0.3023
  185SLPC  H15A21227   0.532   3.715   6.484  0.1993 -0.9931  1.9523
  185SLPC  H15B21228   0.416   3.793   6.402 -1.0540 -2.6254  2.2636
  185SLPC  H15C21229   0.557   3.887   6.444  0.7716 -0.9464  0.0505
  185SLPC   C1221230   0.344   3.968   6.619  0.5480 -0.5007  0.1172
  185SLPC  H12A21231   0.392   4.054   6.663  0.5407 -1.4857  2.1649
  185SLPC  H12B21232   0.260   3.946   6.684 -1.0303 -1.2725 -2.0480
  185SLPC   C1121233   0.278   4.010   6.488  0.1000  0.0773  0.0206
  185SLPC  H11A21234   0.368   4.027   6.425 -0.4294  1.2315 -0.4491
  185SLPC  H11B21235   0.214   4.100   6.481 -0.5481 -0.4174 -0.5835
  185SLPC     P21236   0.071   3.848   6.481  0.0204  0.0568  0.0966
  185SLPC   O1321237  -0.035   3.912   6.409 -0.3494 -0.1341  0.2798
  185SLPC   O1421238   0.073   3.701   6.460 -0.1807 -0.4088 -0.2612
  185SLPC   O1221239   0.208   3.894   6.433 -0.2105 -0.2899  0.2483
  185SLPC   O1121240   0.065   3.892   6.631 -0.6280  0.5764  0.1106
  185SLPC    C121241  -0.041   3.851   6.712 -0.2763  0.0642 -0.7384
  185SLPC    HA21242  -0.106   3.938   6.735 -1.9809 -1.4323  0.4849
  185SLPC    HB21243  -0.109   3.776   6.665  0.3939 -0.5592 -0.7234
  185SLPC    C221244   0.021   3.797   6.843  0.3791 -0.1224  0.5462
  185SLPC    HS21245   0.106   3.729   6.821  0.1487  0.0486 -1.0062
  185SLPC   O2121246  -0.081   3.737   6.922 -0.9929 -0.3702  0.1779
  185SLPC   C2121247  -0.089   3.602   6.924  0.1285 -0.3113 -0.0876
  185SLPC   O2221248  -0.015   3.528   6.858  0.0097  0.2948  0.1655
  185SLPC   C2221249  -0.211   3.578   7.013  0.0613  0.4117 -0.1922
  185SLPC   H2R21250  -0.271   3.671   7.022  0.6971  0.9114 -0.9818
  185SLPC   H2S21251  -0.280   3.503   6.969 -0.8800  0.4825  1.0978
  185SLPC    C321252   0.068   3.922   6.928  0.6621  0.1969  0.9558
  185SLPC    HX21253  -0.026   3.975   6.953  0.2659 -0.3788  0.6963
  185SLPC    HY21254   0.143   3.985   6.874  0.9906 -1.4431 -0.6237
  185SLPC   O3121255   0.106   3.872   7.057  0.1430  0.0210 -0.5917
  185SLPC   C3121256   0.243   3.863   7.075 -0.3287 -0.7180  0.2190
  185SLPC   O3221257   0.324   3.877   6.984 -0.2841  0.8683 -0.3084
  185SLPC   C3221258   0.276   3.810   7.211 -0.3433 -0.4872 -0.2613
  185SLPC   H2X21259   0.379   3.836   7.244 -1.1232 -0.5880  2.4580
  185SLPC   H2Y21260   0.282   3.702   7.188 -0.6137 -0.5804  0.1080
  185SLPC   C2321261  -0.170   3.518   7.147 -0.8286 -0.1569  0.2726
  185SLPC   H3R21262  -0.089   3.580   7.192 -1.7903 -0.6844  2.9428
  185SLPC   H3S21263  -0.124   3.422   7.118 -0.7458  0.4176 -1.6329
  185SLPC   C2421264  -0.274   3.506   7.255  0.0834  0.0178 -0.7800
  185SLPC   H4R21265  -0.350   3.426   7.240 -0.2463 -0.4570  2.6485
  185SLPC   H4S21266  -0.320   3.607   7.266  0.3446  0.3189 -2.2104
  185SLPC   C2521267  -0.206   3.471   7.378 -0.0184  0.2874 -0.1917
  185SLPC   H5R21268  -0.136   3.550   7.413 -1.5480  1.1129  1.1075
  185SLPC   H5S21269  -0.142   3.383   7.358  0.9180  0.8625  0.1717
  185SLPC   C2621270  -0.297   3.452   7.507 -0.4967  0.0596 -0.3095
  185SLPC   H6R21271  -0.387   3.393   7.478 -0.2310 -0.0874 -0.8642
  185SLPC   H6S21272  -0.345   3.548   7.535 -0.4457  0.1957 -0.6732
  185SLPC   C2721273  -0.218   3.396   7.622 -0.7242  0.6288 -0.2063
  185SLPC   H7R21274  -0.129   3.461   7.634 -0.2703 -0.0384  0.0765
  185SLPC   H7S21275  -0.180   3.297   7.589  0.8523  1.2189 -0.2543
  185SLPC   C2821276  -0.287   3.371   7.756 -0.8913  0.4709  0.4449
  185SLPC   H8R21277  -0.227   3.300   7.818 -1.1097 -1.3735 -1.3598
  185SLPC   H8S21278  -0.364   3.294   7.734 -0.0921  0.2881 -2.0262
  185SLPC   C2921279  -0.339   3.484   7.835  0.1511 -0.0206  0.1882
  185SLPC   H9R21280  -0.440   3.519   7.808 -0.1259 -1.4521 -0.7522
  185SLPC  C21021281  -0.286   3.548   7.935 -0.1664 -0.7859  0.4026
  185SLPC  H10R21282  -0.342   3.637   7.969 -0.8607 -0.6609 -0.9840
  185SLPC  C21121283  -0.154   3.530   8.001 -0.2712 -0.0592  0.4098
  185SLPC  H11R21284  -0.122   3.622   8.055  1.3158  0.0491 -0.6800
  185SLPC  H11S21285  -0.069   3.522   7.931 -2.0808  1.1558 -2.0598
  185SLPC  C21221286  -0.173   3.413   8.101 -0.7418 -0.5077  0.0137
  185SLPC  H12R21287  -0.125   3.321   8.065  2.1321  1.0084 -0.3143
  185SLPC  C21321288  -0.242   3.414   8.218 -0.1544  0.0485 -0.3248
  185SLPC  H13R21289  -0.262   3.321   8.273  1.4547  0.2524  0.6882
  185SLPC  C21421290  -0.301   3.542   8.281  0.5248 -0.7800  0.7899
  185SLPC  H14R21291  -0.401   3.549   8.233  0.2104 -1.9500  1.2408
  185SLPC  H14S21292  -0.241   3.631   8.254 -0.8174 -0.0040  0.3190
  185SLPC  C21521293  -0.327   3.532   8.435  0.0113 -0.5390 -0.5686
  185SLPC  H15R21294  -0.222   3.528   8.469 -0.0932  0.0503 -0.1633
  185SLPC  H15S21295  -0.370   3.431   8.453 -0.3437 -0.2811  0.0754
  185SLPC  C21621296  -0.435   3.634   8.480  1.1892  0.3034 -0.1923
  185SLPC  H16R21297  -0.524   3.597   8.423  1.0965 -1.0619  0.7884
  185SLPC  H16S21298  -0.400   3.730   8.438  2.5266 -0.7254 -1.5487
  185SLPC  C21721299  -0.463   3.650   8.627 -0.3379 -0.0319  0.1557
  185SLPC  H17R21300  -0.522   3.742   8.645  1.2067  1.4952 -2.0538
  185SLPC  H17S21301  -0.370   3.671   8.684  0.2583  0.5237 -0.9867
  185SLPC  C21821302  -0.524   3.516   8.696 -0.5163  0.5035 -0.1360
  185SLPC  H18R21303  -0.538   3.526   8.806 -1.8919 -2.2324  0.0162
  185SLPC  H18S21304  -0.460   3.427   8.673 -2.1312 -0.7040 -0.1209
  185SLPC  H18T21305  -0.622   3.496   8.648 -1.6223  2.2592  1.2900
  185SLPC   C3321306   0.169   3.818   7.316  1.0336  0.2056 -0.3729
  185SLPC   H3X21307   0.071   3.784   7.277  0.4932  1.1124  0.1368
  185SLPC   H3Y21308   0.157   3.926   7.341  1.7363  0.7441 -2.1722
  185SLPC   C3421309   0.213   3.748   7.447 -0.1198 -0.0449  0.1339
  185SLPC   H4X21310   0.155   3.768   7.540  0.7037  2.5082  0.1831
  185SLPC   H4Y21311   0.318   3.779   7.465 -0.5737  1.0881  1.0020
  185SLPC   C3521312   0.210   3.594   7.426  0.1370 -0.6661 -0.2040
  185SLPC   H5X21313   0.252   3.552   7.332 -0.1323  1.2353 -1.2127
  185SLPC   H5Y21314   0.101   3.578   7.417  0.2354 -1.1074 -0.6903
  185SLPC   C3621315   0.261   3.518   7.547  0.5008  0.3745  0.5011
  185SLPC   H6X21316   0.233   3.562   7.645 -1.9083 -1.2841  0.6353
  185SLPC   H6Y21317   0.372   3.514   7.545  0.6379  0.8607  2.9724
  185SLPC   C3721318   0.192   3.382   7.549 -0.1336  1.1845  0.4892
  185SLPC   H7X21319   0.186   3.351   7.443 -1.2749  0.6841  0.6850
  185SLPC   H7Y21320   0.088   3.391   7.588 -0.1560  1.9753  0.2481
  185SLPC   C3821321   0.268   3.279   7.628 -0.6083  0.0257 -0.0764
  185SLPC   H8X21322   0.373   3.258   7.597 -0.8453 -2.1348  0.3643
  185SLPC   H8Y21323   0.217   3.180   7.621  2.2151 -1.4383 -1.9479
  185SLPC   C3921324   0.286   3.324   7.773 -0.1506 -0.1024 -0.3272
  185SLPC   H9X21325   0.223   3.413   7.793  1.0900  0.4519  1.3710
  185SLPC   H9Y21326   0.394   3.340   7.790  0.9418 -3.0174 -3.3437
  185SLPC  C31021327   0.245   3.213   7.868  0.2062  0.8558 -0.1630
  185SLPC  H10X21328   0.306   3.123   7.844 -1.5847 -0.4303 -0.0967
  185SLPC  H10Y21329   0.138   3.186   7.854 -0.1110  0.9103  1.8022
  185SLPC  C31121330   0.257   3.249   8.016  0.4415  0.7483  0.6020
  185SLPC  H11X21331   0.229   3.353   8.041 -0.3959  1.2669 -2.1868
  185SLPC  H11Y21332   0.358   3.229   8.058 -0.8256 -0.3579  3.3596
  185SLPC  C31221333   0.182   3.148   8.105  0.3713  0.4440 -0.1956
  185SLPC  H12X21334   0.197   3.045   8.067 -1.0733  0.6479 -1.4107
  185SLPC  H12Y21335   0.077   3.180   8.086 -0.0786 -0.6215  0.3892
  185SLPC  C31321336   0.200   3.145   8.249  0.2301  0.3519 -0.5354
  185SLPC  H13X21337   0.160   3.234   8.301  0.3861  0.4209 -0.5334
  185SLPC  H13Y21338   0.301   3.125   8.291 -1.0574  0.0493  2.6866
  185SLPC  C31421339   0.125   3.032   8.320 -0.1516 -0.7981  0.0051
  185SLPC  H14X21340   0.190   2.945   8.295  1.3673  0.1811  0.4455
  185SLPC  H14Y21341   0.027   3.009   8.272  0.1717 -3.8951  0.6104
  185SLPC  C31521342   0.105   3.048   8.469  0.0913  0.3224 -0.2341
  185SLPC  H15X21343   0.030   3.130   8.468  0.7786  1.0105 -2.7474
  185SLPC  H15Y21344   0.186   3.099   8.526 -1.7523  0.9294  1.9987
  185SLPC  C31621345   0.042   2.934   8.551 -0.2624  0.6640 -0.1838
  185SLPC  H16X21346   0.112   2.850   8.569 -0.0921  0.5709 -1.2205
  185SLPC  H16Y21347  -0.038   2.891   8.487 -0.1091 -1.7152  1.1016
  185SLPC  C31721348  -0.028   2.971   8.681  0.3466 -0.4142  0.5949
  185SLPC  H17X21349  -0.088   2.880   8.703 -0.2026 -0.2981 -0.3748
  185SLPC  H17Y21350  -0.098   3.056   8.667  2.7177  1.1662 -3.6322
  185SLPC  C31821351   0.073   3.003   8.795  0.6422 -0.3592  0.1795
  185SLPC  H18X21352   0.139   3.081   8.751 -0.1122 -0.4968 -1.2802
  185SLPC  H18Y21353   0.136   2.915   8.816  1.5322  0.1539 -0.2896
  185SLPC  H18Z21354   0.025   3.030   8.891 -0.2995 -1.9848  0.2000
  186SLPC     N21355   5.091   6.812   6.199 -0.4342 -0.7686  0.1945
  186SLPC   C1321356   5.071   6.911   6.079  0.2159 -0.0469 -0.2240
  186SLPC  H13A21357   4.978   6.967   6.076  0.4600  0.3332 -0.9196
  186SLPC  H13B21358   5.154   6.980   6.073 -1.8011  2.4434 -2.5173
  186SLPC  H13C21359   5.067   6.861   5.983  1.6838  1.5609 -1.1908
  186SLPC   C1421360   5.227   6.738   6.174 -0.4690 -0.6998 -0.4620
  186SLPC  H14A21361   5.214   6.694   6.076 -1.3463 -1.2329 -0.1158
  186SLPC  H14B21362   5.313   6.803   6.181 -1.2911  0.3354  0.4821
  186SLPC  H14C21363   5.249   6.659   6.245  0.5883  0.5841  0.6940
  186SLPC   C1521364   4.985   6.710   6.175  0.1746  0.0285 -0.0370
  186SLPC  H15A21365   4.987   6.642   6.258 -0.1687 -1.2369 -1.0337
  186SLPC  H15B21366   4.883   6.746   6.165 -0.4231 -1.9170 -1.5022
  186SLPC  H15C21367   5.003   6.648   6.089  0.6352 -0.7455  0.6045
  186SLPC   C1221368   5.084   6.890   6.330  0.6009  0.3465 -0.1305
  186SLPC  H12A21369   5.141   6.981   6.324 -1.3255  1.7416  1.3991
  186SLPC  H12B21370   5.118   6.832   6.415 -2.2520  0.5413  1.2780
  186SLPC   C1121371   4.948   6.943   6.377 -0.0410  0.3428  0.8427
  186SLPC  H11A21372   4.972   6.995   6.473  1.0210  2.0926 -0.3172
  186SLPC  H11B21373   4.878   6.860   6.399  0.4599  0.0666  1.3974
  186SLPC     P21374   4.946   7.182   6.281 -0.2508  0.0208 -0.0639
  186SLPC   O1321375   4.990   7.214   6.145 -0.4828  0.3195  0.2599
  186SLPC   O1421376   4.833   7.266   6.334 -0.4667 -0.5093 -0.8404
  186SLPC   O1221377   4.891   7.032   6.282  0.2287  0.8648 -0.3680
  186SLPC   O1121378   5.067   7.182   6.388  0.8202 -0.0527 -0.0979
  186SLPC    C121379   5.126   7.304   6.434  0.7273  0.3171 -0.2563
  186SLPC    HA21380   5.188   7.352   6.355 -1.2567  1.6819 -1.0717
  186SLPC    HB21381   5.049   7.380   6.459 -0.4367 -0.8576 -0.2374
  186SLPC    C221382   5.195   7.269   6.569 -0.0916  0.5740  0.0228
  186SLPC    HS21383   5.267   7.196   6.527  0.6893  1.9098 -1.0380
  186SLPC   O2121384   5.107   7.195   6.657 -0.0972  0.5336 -0.4033
  186SLPC   C2121385   5.007   7.270   6.709  0.1007  0.6488 -0.5527
  186SLPC   O2221386   4.991   7.392   6.699  0.1295 -0.4432 -0.3341
  186SLPC   C2221387   4.913   7.174   6.792  0.2615  0.3366 -0.8886
  186SLPC   H2R21388   4.871   7.100   6.721  0.3171  0.1927 -0.7738
  186SLPC   H2S21389   4.983   7.139   6.871  0.1729  1.4874 -0.2833
  186SLPC    C321390   5.268   7.387   6.632  0.3222 -0.4382  0.4621
  186SLPC    HX21391   5.189   7.464   6.648 -0.9183 -1.8993  1.6939
  186SLPC    HY21392   5.350   7.428   6.569 -0.2384  0.7061  0.4530
  186SLPC   O3121393   5.305   7.365   6.768 -0.0178 -0.3910  0.2229
  186SLPC   C3121394   5.402   7.277   6.788 -1.0063 -0.2008 -0.7308
  186SLPC   O3221395   5.459   7.210   6.701 -0.3320 -0.3631 -1.1540
  186SLPC   C3221396   5.434   7.286   6.941 -0.1238  0.1659 -0.1848
  186SLPC   H2X21397   5.358   7.216   6.982  1.4586 -1.9228 -0.6546
  186SLPC   H2Y21398   5.430   7.389   6.982 -1.7266  0.7309 -1.6398
  186SLPC   C2321399   4.807   7.259   6.870  1.0942  0.0980 -0.1223
  186SLPC   H3R21400   4.733   7.308   6.804 -1.3000 -1.2379  1.4363
  186SLPC   H3S21401   4.851   7.348   6.921  2.9725 -0.0340 -1.3870
  186SLPC   C2421402   4.739   7.171   6.979 -0.2487 -0.5117  0.9852
  186SLPC   H4R21403   4.820   7.121   7.038  0.7202 -0.8480 -0.5530
  186SLPC   H4S21404   4.689   7.085   6.930 -0.9024 -1.0879  2.6144
  186SLPC   C2521405   4.650   7.253   7.075 -1.4374  0.3469 -0.6388
  186SLPC   H5R21406   4.600   7.330   7.013  2.5006  2.2596 -1.7564
  186SLPC   H5S21407   4.713   7.311   7.146  0.3432 -1.5426 -0.5699
  186SLPC   C2621408   4.541   7.168   7.143  0.3951 -0.0610  0.1519
  186SLPC   H6R21409   4.509   7.091   7.070 -1.2873 -0.0896  0.8853
  186SLPC   H6S21410   4.458   7.239   7.164 -0.1615 -0.4807 -0.5975
  186SLPC   C2721411   4.595   7.111   7.281 -0.0502  1.0524 -0.2278
  186SLPC   H7R21412   4.677   7.037   7.269 -0.4356  0.1214  2.3229
  186SLPC   H7S21413   4.510   7.060   7.331 -0.0718  0.0295 -1.2744
  186SLPC   C2821414   4.655   7.207   7.384  0.8726 -0.0675  0.4541
  186SLPC   H8R21415   4.742   7.247   7.329  0.9046 -1.0998 -0.2866
  186SLPC   H8S21416   4.691   7.144   7.468  1.2115  0.5119  0.7435
  186SLPC   C2921417   4.575   7.327   7.423  0.1529  0.7490 -0.8973
  186SLPC   H9R21418   4.564   7.402   7.344  1.6358  0.2659 -1.5966
  186SLPC  C21021419   4.542   7.362   7.549 -0.4327  0.0015  0.0787
  186SLPC  H10R21420   4.476   7.449   7.558 -0.0130  0.2062  1.2931
  186SLPC  C21121421   4.564   7.270   7.667 -0.5769  0.9699 -0.5424
  186SLPC  H11R21422   4.667   7.269   7.708 -1.0154  2.0239  0.6432
  186SLPC  H11S21423   4.538   7.166   7.637 -1.6292  0.6736  1.2622
  186SLPC  C21221424   4.464   7.292   7.778 -0.2843 -0.1378 -0.4470
  186SLPC  H12R21425   4.360   7.284   7.746 -0.0325 -0.7241 -1.1422
  186SLPC  C21321426   4.472   7.304   7.915  0.2319 -0.0734 -0.7537
  186SLPC  H13R21427   4.377   7.324   7.965  0.1215  3.9202 -2.2063
  186SLPC  C21421428   4.603   7.309   7.987 -0.0093  0.2964 -0.1877
  186SLPC  H14R21429   4.695   7.286   7.927 -0.5069 -0.1291 -0.8026
  186SLPC  H14S21430   4.601   7.235   8.070 -1.7193  1.9088  1.2681
  186SLPC  C21521431   4.634   7.451   8.050 -0.4649  0.3417  0.2246
  186SLPC  H15R21432   4.721   7.439   8.118  0.8450 -0.8852 -1.5699
  186SLPC  H15S21433   4.546   7.486   8.107 -0.0638 -1.1779  1.8641
  186SLPC  C21621434   4.669   7.563   7.953  0.0875 -0.1238 -0.3026
  186SLPC  H16R21435   4.574   7.585   7.899  0.8638 -3.4224 -3.3828
  186SLPC  H16S21436   4.744   7.532   7.877  0.2069  3.2301 -1.7699
  186SLPC  C21721437   4.726   7.698   8.018 -0.1663  0.2253  0.1557
  186SLPC  H17R21438   4.742   7.770   7.934 -4.7084  0.9604 -0.3018
  186SLPC  H17S21439   4.825   7.677   8.064  0.2923  0.3451 -0.7324
  186SLPC  C21821440   4.638   7.751   8.132 -0.2962 -0.7606  0.6025
  186SLPC  H18R21441   4.661   7.718   8.235  0.7728 -0.7549  0.3798
  186SLPC  H18S21442   4.530   7.738   8.107 -0.6023 -0.1027  1.5402
  186SLPC  H18T21443   4.647   7.862   8.132  2.5420 -0.9279  0.3989
  186SLPC   C3321444   5.572   7.216   6.974  0.1996  0.5764  0.8347
  186SLPC   H3X21445   5.646   7.278   6.919 -1.1455  1.8232  0.3601
  186SLPC   H3Y21446   5.576   7.114   6.930 -1.4500  0.6791  0.3518
  186SLPC   C3421447   5.608   7.193   7.125 -0.3375  0.3719 -0.4064
  186SLPC   H4X21448   5.706   7.140   7.127 -0.7060 -0.3089  1.6608
  186SLPC   H4Y21449   5.533   7.120   7.162  0.2853  0.1501  0.4341
  186SLPC   C3521450   5.608   7.325   7.208  0.3705  0.4941 -0.3954
  186SLPC   H5X21451   5.522   7.393   7.186  0.6838  1.0288 -0.0023
  186SLPC   H5Y21452   5.687   7.395   7.173  0.9266  0.8901  1.5118
  186SLPC   C3621453   5.628   7.301   7.360 -1.0260 -0.0416 -0.5362
  186SLPC   H6X21454   5.665   7.391   7.415  0.3312 -0.7305 -0.2551
  186SLPC   H6Y21455   5.708   7.224   7.367  0.2354  1.1068 -1.7312
  186SLPC   C3721456   5.506   7.247   7.426 -0.8471 -0.1840  0.7670
  186SLPC   H7X21457   5.449   7.179   7.359 -0.8638  2.4142 -2.0949
  186SLPC   H7Y21458   5.438   7.332   7.447  0.8045  1.1896  0.8279
  186SLPC   C3821459   5.539   7.166   7.554  0.9113  0.6072  1.5131
  186SLPC   H8X21460   5.616   7.090   7.530 -0.0375 -0.1414  0.7681
  186SLPC   H8Y21461   5.446   7.107   7.572  1.2224 -0.6166 -0.6890
  186SLPC   C3921462   5.570   7.257   7.677  0.3276 -0.5594 -0.4614
  186SLPC   H9X21463   5.483   7.325   7.688  2.0011  1.3386  1.9890
  186SLPC   H9Y21464   5.659   7.321   7.660 -0.0344  0.2155  0.4538
  186SLPC  C31021465   5.572   7.184   7.810  0.2992 -0.9758 -0.3248
  186SLPC  H10X21466   5.569   7.260   7.890  1.9260  0.0800 -1.2032
  186SLPC  H10Y21467   5.669   7.130   7.800  0.6398 -0.1272 -1.8932
  186SLPC  C31121468   5.449   7.090   7.836  0.9467  0.3967  0.2337
  186SLPC  H11X21469   5.446   7.007   7.762 -0.1278 -1.5740  2.3567
  186SLPC  H11Y21470   5.355   7.146   7.815  0.8871  0.5222  0.8194
  186SLPC  C31221471   5.431   7.032   7.976  0.4141  0.7022  0.2267
  186SLPC  H12X21472   5.505   6.950   7.993 -0.5746 -0.2277  0.1847
  186SLPC  H12Y21473   5.334   6.978   7.979  1.6562 -1.6112  2.3848
  186SLPC  C31321474   5.449   7.140   8.089 -1.0016  0.7372 -0.1109
  186SLPC  H13X21475   5.370   7.214   8.063 -0.3208  1.4560 -0.1644
  186SLPC  H13Y21476   5.550   7.186   8.079  0.3464 -1.7922  0.8297
  186SLPC  C31421477   5.430   7.072   8.222 -0.1352  0.0229  0.6474
  186SLPC  H14X21478   5.495   6.982   8.221 -1.8276 -1.2816  1.5900
  186SLPC  H14Y21479   5.327   7.032   8.226  0.1713 -1.0884 -1.5817
  186SLPC  C31521480   5.447   7.164   8.353  0.3123 -0.2137  0.6435
  186SLPC  H15X21481   5.404   7.118   8.444 -0.8028  2.0637  1.3643
  186SLPC  H15Y21482   5.387   7.255   8.330 -0.2529 -0.4830  1.0521
  186SLPC  C31621483   5.597   7.201   8.365 -0.1319  0.4841  0.5593
  186SLPC  H16X21484   5.637   7.264   8.283 -0.8480  0.1956 -0.0341
  186SLPC  H16Y21485   5.650   7.104   8.360  1.2001  1.2685 -1.7829
  186SLPC  C31721486   5.616   7.264   8.507 -0.0387  0.7028  0.6669
  186SLPC  H17X21487   5.551   7.212   8.581  0.8357  0.0900  1.0351
  186SLPC  H17Y21488   5.587   7.371   8.503 -0.6004  0.5256 -0.1051
  186SLPC  C31821489   5.761   7.247   8.548 -0.2913  0.3267 -0.5140
  186SLPC  H18X21490   5.793   7.335   8.607 -1.8758 -0.3314  1.4672
  186SLPC  H18Y21491   5.826   7.268   8.460 -0.0315  0.9048 -0.1895
  186SLPC  H18Z21492   5.789   7.146   8.583 -2.2125 -0.5674 -1.3991
  187SLPC     N21493   1.044   1.878   6.254 -0.7529 -0.0218  0.2067
  187SLPC   C1321494   1.005   1.744   6.212  0.2753  0.4429 -0.0507
  187SLPC  H13A21495   1.008   1.740   6.104 -0.1570 -0.5955 -0.0347
  187SLPC  H13B21496   1.061   1.668   6.265 -0.7275 -3.0377 -3.5633
  187SLPC  H13C21497   0.905   1.730   6.249  0.5045  1.3446  0.9854
  187SLPC   C1421498   0.954   1.979   6.186  0.1761 -0.4502  0.7612
  187SLPC  H14A21499   0.848   1.969   6.204  0.0640 -3.4936 -0.9310
  187SLPC  H14B21500   0.981   2.080   6.216  0.0858  0.1043 -0.9371
  187SLPC  H14C21501   0.951   1.973   6.078 -2.1231 -0.3547  0.7590
  187SLPC   C1521502   1.184   1.910   6.212  0.1183  0.3796 -0.8294
  187SLPC  H15A21503   1.199   1.893   6.106 -1.4122  0.0439 -1.0239
  187SLPC  H15B21504   1.213   2.013   6.226  2.0113 -0.3719  1.4098
  187SLPC  H15C21505   1.257   1.853   6.266 -0.3155 -1.0370 -1.6856
  187SLPC   C1221506   1.037   1.892   6.409 -0.2414 -0.6886  0.6777
  187SLPC  H12A21507   0.947   1.852   6.453  0.3087 -0.9393  1.6065
  187SLPC  H12B21508   1.042   1.998   6.426  1.8434 -0.9457  1.9569
  187SLPC   C1121509   1.155   1.838   6.497 -0.7919  0.1031  0.3037
  187SLPC  H11A21510   1.177   1.735   6.463  1.7501  0.0430  1.8903
  187SLPC  H11B21511   1.118   1.824   6.601  0.4678  0.8530  0.8665
  187SLPC     P21512   1.284   2.050   6.563  0.2344  0.1709 -0.0065
  187SLPC   O1321513   1.407   2.121   6.541 -0.1372 -0.4273  1.0793
  187SLPC   O1421514   1.158   2.126   6.538 -0.3226  0.0294  0.1260
  187SLPC   O1221515   1.274   1.919   6.477 -0.4635 -0.0066  0.1554
  187SLPC   O1121516   1.277   1.996   6.714  0.0471 -0.0976 -0.1104
  187SLPC    C121517   1.380   1.947   6.796 -0.0847 -0.2733  0.1752
  187SLPC    HA21518   1.482   1.973   6.760 -0.3845  3.4361  1.5701
  187SLPC    HB21519   1.365   1.991   6.897 -0.4135 -0.6903  0.3118
  187SLPC    C221520   1.364   1.787   6.805  0.4934  0.6861 -0.3334
  187SLPC    HS21521   1.258   1.764   6.780 -0.1159  3.8335 -0.9902
  187SLPC   O2121522   1.401   1.740   6.935 -0.1211  0.2792 -0.7832
  187SLPC   C2121523   1.307   1.753   7.026 -0.6366  0.0808 -0.4819
  187SLPC   O2221524   1.201   1.809   7.012 -0.3026 -0.1573  0.3721
  187SLPC   C2221525   1.361   1.679   7.146 -0.6953  0.4279 -0.0931
  187SLPC   H2R21526   1.380   1.574   7.115 -1.1772  0.3369 -0.1015
  187SLPC   H2S21527   1.457   1.721   7.182 -0.2448 -0.8477  0.2509
  187SLPC    C321528   1.437   1.709   6.688 -0.8790 -0.1390  0.2021
  187SLPC    HX21529   1.543   1.742   6.683 -0.5692 -1.1688 -0.2468
  187SLPC    HY21530   1.382   1.745   6.598  0.3414  1.8071  0.1895
  187SLPC   O3121531   1.434   1.566   6.697  0.4746  0.1486 -0.3024
  187SLPC   C3121532   1.417   1.488   6.593  0.6455 -0.0233 -0.3378
  187SLPC   O3221533   1.396   1.532   6.481 -0.0535  0.5900  0.1710
  187SLPC   C3221534   1.405   1.332   6.629  0.5089 -0.5502  0.5470
  187SLPC   H2X21535   1.447   1.270   6.547  0.0465  0.0304 -0.1382
  187SLPC   H2Y21536   1.299   1.305   6.650  0.9585 -2.6769  0.3808
  187SLPC   C2321537   1.263   1.684   7.268  0.2860 -0.2136  0.1902
  187SLPC   H3R21538   1.164   1.641   7.243  0.3750  0.0794 -0.6629
  187SLPC   H3S21539   1.246   1.789   7.300  0.6139 -0.1344  0.1089
  187SLPC   C2421540   1.309   1.600   7.384 -0.3030  0.3880 -0.7069
  187SLPC   H4R21541   1.419   1.609   7.383  0.0699 -2.7132  0.5171
  187SLPC   H4S21542   1.289   1.495   7.354  0.5466 -0.2899  0.9858
  187SLPC   C2521543   1.263   1.644   7.526 -0.0534  0.3617 -0.0923
  187SLPC   H5R21544   1.152   1.633   7.520 -0.1861  2.1039 -1.8399
  187SLPC   H5S21545   1.277   1.754   7.536  0.5649  0.2359  0.4243
  187SLPC   C2621546   1.327   1.576   7.651 -0.1309 -0.2538  0.3875
  187SLPC   H6R21547   1.434   1.604   7.660 -0.3695  0.8580 -0.0625
  187SLPC   H6S21548   1.334   1.465   7.648 -0.2831 -0.2697  0.6240
  187SLPC   C2721549   1.254   1.627   7.783 -0.1308  0.7108  0.2394
  187SLPC   H7R21550   1.157   1.572   7.782 -0.9292  2.0628 -0.8688
  187SLPC   H7S21551   1.223   1.734   7.782 -1.2991  0.3957 -1.1375
  187SLPC   C2821552   1.313   1.581   7.915  0.8376  0.1438 -0.0997
  187SLPC   H8R21553   1.332   1.473   7.898  0.0365 -0.2434  1.3395
  187SLPC   H8S21554   1.238   1.584   7.996  0.5266  0.0025 -0.3766
  187SLPC   C2921555   1.436   1.665   7.939  0.1168  0.6192 -0.5553
  187SLPC   H9R21556   1.525   1.645   7.877 -0.5514  2.5490 -2.2614
  187SLPC  C21021557   1.449   1.759   8.037  0.3102 -0.2445 -0.2299
  187SLPC  H10R21558   1.544   1.812   8.043 -0.6002  1.2992  2.1032
  187SLPC  C21121559   1.341   1.798   8.140 -0.1850  0.1281  0.2535
  187SLPC  H11R21560   1.302   1.713   8.201 -2.7762  2.1437  1.6443
  187SLPC  H11S21561   1.255   1.838   8.082 -0.0737 -0.7858 -0.5597
  187SLPC  C21221562   1.398   1.906   8.230 -0.1072 -0.6938  0.0696
  187SLPC  H12R21563   1.445   1.882   8.327 -0.1958 -1.0721  0.0205
  187SLPC  C21321564   1.368   2.039   8.213  0.5867  0.5580  0.0466
  187SLPC  H13R21565   1.422   2.105   8.283 -2.5347  1.1464  2.0654
  187SLPC  C21421566   1.277   2.110   8.112 -0.0383 -0.1635 -0.1339
  187SLPC  H14R21567   1.218   2.043   8.047  0.3646 -0.8980  0.2485
  187SLPC  H14S21568   1.347   2.165   8.046  0.5001  0.2160  0.7290
  187SLPC  C21521569   1.186   2.207   8.186  0.3172  0.4355  0.3811
  187SLPC  H15R21570   1.131   2.272   8.115 -0.9523 -0.1495  0.8009
  187SLPC  H15S21571   1.246   2.283   8.240  0.6302  1.1894 -0.9955
  187SLPC  C21621572   1.080   2.133   8.280 -0.0297 -0.7510 -0.0511
  187SLPC  H16R21573   1.129   2.100   8.374 -0.8390  1.0015  1.0479
  187SLPC  H16S21574   1.039   2.047   8.224 -4.2922  1.9094 -1.5371
  187SLPC  C21721575   0.970   2.221   8.311 -0.4466  0.3468  0.1751
  187SLPC  H17R21576   0.914   2.250   8.220 -0.7465 -0.3667  0.1270
  187SLPC  H17S21577   1.011   2.314   8.357  1.2862  0.3737 -1.3007
  187SLPC  C21821578   0.873   2.146   8.409 -0.2331  0.5796 -0.5632
  187SLPC  H18R21579   0.780   2.206   8.413  0.5055  1.7659 -0.5723
  187SLPC  H18S21580   0.925   2.143   8.508 -0.6913 -1.1431 -0.3420
  187SLPC  H18T21581   0.859   2.044   8.366  1.0044  0.7623 -1.4730
  187SLPC   C3321582   1.483   1.297   6.765  0.1422 -0.4932 -0.5619
  187SLPC   H3X21583   1.456   1.377   6.838 -0.1623  0.0545 -1.2548
  187SLPC   H3Y21584   1.590   1.304   6.736  0.2433 -1.3545 -0.3956
  187SLPC   C3421585   1.455   1.160   6.821 -0.3074 -0.2172 -0.1382
  187SLPC   H4X21586   1.481   1.088   6.740  1.4605 -2.3737  2.1986
  187SLPC   H4Y21587   1.347   1.138   6.832 -0.6655  0.5612 -1.8022
  187SLPC   C3521588   1.528   1.137   6.950  0.5467 -0.0420  0.3480
  187SLPC   H5X21589   1.636   1.153   6.928 -0.3196  0.9342 -4.1046
  187SLPC   H5Y21590   1.521   1.028   6.971  1.5268 -0.2019 -0.1092
  187SLPC   C3621591   1.476   1.217   7.066 -0.2414  0.1488 -0.7409
  187SLPC   H6X21592   1.370   1.247   7.073 -0.3377 -0.2894 -0.1710
  187SLPC   H6Y21593   1.522   1.316   7.046  0.4662 -0.0047  0.0588
  187SLPC   C3721594   1.516   1.147   7.199 -0.6276  0.0124 -0.7194
  187SLPC   H7X21595   1.461   1.051   7.204  1.3534 -1.1418 -0.3407
  187SLPC   H7Y21596   1.624   1.124   7.195 -0.0159  2.3206  0.4268
  187SLPC   C3821597   1.471   1.226   7.322  0.7598 -0.2643 -0.3972
  187SLPC   H8X21598   1.361   1.246   7.322  0.9594  0.9454 -0.3548
  187SLPC   H8Y21599   1.529   1.320   7.337  0.0962  0.4313 -1.9258
  187SLPC   C3921600   1.501   1.144   7.450  0.3814 -0.2112  0.1044
  187SLPC   H9X21601   1.606   1.109   7.448  0.3214 -0.3503 -0.9393
  187SLPC   H9Y21602   1.445   1.048   7.454  2.5589 -1.5854 -0.5833
  187SLPC  C31021603   1.476   1.220   7.578 -0.9786  0.2713  0.0825
  187SLPC  H10X21604   1.368   1.220   7.606 -0.6585 -1.8522  1.5705
  187SLPC  H10Y21605   1.506   1.322   7.545 -1.0564 -0.6107 -3.0600
  187SLPC  C31121606   1.558   1.161   7.691  0.6626 -0.5623  0.7373
  187SLPC  H11X21607   1.668   1.171   7.676  0.2878  1.2197 -1.5361
  187SLPC  H11Y21608   1.541   1.053   7.675  0.4868 -0.3043 -1.0075
  187SLPC  C31221609   1.517   1.221   7.829 -0.3685 -0.1839  0.0605
  187SLPC  H12X21610   1.410   1.201   7.852 -0.2305 -1.6079 -0.4410
  187SLPC  H12Y21611   1.540   1.329   7.837  0.6423 -0.4637  1.2648
  187SLPC  C31321612   1.609   1.158   7.931  0.7913  0.3449 -0.2436
  187SLPC  H13X21613   1.712   1.188   7.904  0.4875  1.2715 -0.4289
  187SLPC  H13Y21614   1.621   1.048   7.923  0.9893  0.4049 -0.9128
  187SLPC  C31421615   1.587   1.207   8.075 -0.3732 -0.4172 -0.2090
  187SLPC  H14X21616   1.621   1.313   8.077 -0.0410 -0.5086 -0.7608
  187SLPC  H14Y21617   1.653   1.158   8.149 -0.0087  2.1018  1.2593
  187SLPC  C31521618   1.449   1.192   8.135  1.3501  0.0482  0.1613
  187SLPC  H15X21619   1.422   1.086   8.113  1.2982  0.1891 -0.4597
  187SLPC  H15Y21620   1.376   1.260   8.087  0.0084  0.8477  3.0948
  187SLPC  C31621621   1.437   1.228   8.282  0.2586 -1.2015 -0.5123
  187SLPC  H16X21622   1.520   1.193   8.347  0.4995  0.6828  0.2657
  187SLPC  H16Y21623   1.339   1.188   8.315  0.7556 -1.5747  0.5703
  187SLPC  C31721624   1.443   1.376   8.304  0.2936 -0.1736 -1.1259
  187SLPC  H17X21625   1.359   1.434   8.262 -0.6724  0.1989  1.1398
  187SLPC  H17Y21626   1.525   1.428   8.251 -0.4028  1.8347 -0.3144
  187SLPC  C31821627   1.452   1.417   8.450 -0.7644 -0.2138 -0.4891
  187SLPC  H18X21628   1.488   1.522   8.455 -0.9253  0.0225 -3.0463
  187SLPC  H18Y21629   1.544   1.370   8.492  0.9310  0.2524 -3.3682
  187SLPC  H18Z21630   1.361   1.390   8.508 -1.9851 -1.4443 -2.8371
  188SLPC     N21631   3.030   4.207   5.862 -0.8169  0.9118 -0.0261
  188SLPC   C1321632   3.063   4.137   5.732 -0.0913  0.5418  0.5797
  188SLPC  H13A21633   3.028   4.035   5.730 -1.5298  0.9786  1.5001
  188SLPC  H13B21634   3.014   4.191   5.652 -2.3849 -2.4142 -0.2239
  188SLPC  H13C21635   3.167   4.128   5.704 -0.8797 -0.2602 -2.4919
  188SLPC   C1421636   2.890   4.189   5.899  0.9282 -0.3498  0.0785
  188SLPC  H14A21637   2.855   4.091   5.926 -1.8988  0.8294  1.1247
  188SLPC  H14B21638   2.878   4.247   5.990  0.5401 -0.9044  0.3844
  188SLPC  H14C21639   2.826   4.224   5.819 -0.2117  0.4905  1.3062
  188SLPC   C1521640   3.050   4.356   5.842  0.1474 -0.1475  0.1073
  188SLPC  H15A21641   3.034   4.410   5.934 -1.5157 -0.1970 -0.1075
  188SLPC  H15B21642   3.151   4.365   5.806  0.9237 -0.2373  2.1655
  188SLPC  H15C21643   2.992   4.417   5.773 -1.0765 -1.7883 -0.3780
  188SLPC   C1221644   3.132   4.166   5.971 -0.2495  0.4861  0.3456
  188SLPC  H12A21645   3.225   4.151   5.918 -0.3168 -0.9299  0.6037
  188SLPC  H12B21646   3.119   4.063   5.998  1.1563  0.0153 -0.6514
  188SLPC   C1121647   3.136   4.259   6.093 -0.4194  0.1006 -0.8196
  188SLPC  H11A21648   3.166   4.360   6.057 -2.1699 -0.0716 -3.0158
  188SLPC  H11B21649   3.221   4.222   6.153 -1.5915  0.0166  0.8403
  188SLPC     P21650   2.999   4.137   6.265 -0.6278 -0.0481  0.4569
  188SLPC   O1321651   2.854   4.113   6.263 -0.9046  0.3278  0.1876
  188SLPC   O1421652   3.083   4.023   6.223  0.4611 -0.2123  0.2209
  188SLPC   O1221653   3.022   4.267   6.173  0.1411  0.9017 -0.1475
  188SLPC   O1121654   3.044   4.187   6.413  0.4634  0.3692  0.5488
  188SLPC    C121655   3.189   4.201   6.443  0.8399 -0.1488  0.3118
  188SLPC    HA21656   3.215   4.126   6.522 -0.0607  0.7904  1.5426
  188SLPC    HB21657   3.257   4.169   6.361 -1.7720 -1.9731 -1.3000
  188SLPC    C221658   3.212   4.344   6.499  0.3216 -0.2146 -0.1890
  188SLPC    HS21659   3.309   4.341   6.553 -0.8260 -2.3594  1.9251
  188SLPC   O2121660   3.107   4.376   6.592 -0.8400 -0.6462  0.0201
  188SLPC   C2121661   3.119   4.306   6.704 -0.0657 -0.0635  0.0483
  188SLPC   O2221662   3.198   4.217   6.729  0.5209  0.6431 -0.9025
  188SLPC   C2221663   3.009   4.354   6.796  0.1220 -0.8428 -0.4003
  188SLPC   H2R21664   2.909   4.327   6.754 -0.1620  0.2464 -0.4448
  188SLPC   H2S21665   3.024   4.300   6.892  0.7292  0.1933  0.0934
  188SLPC    C321666   3.218   4.457   6.383  0.1682 -0.3755 -0.5767
  188SLPC    HX21667   3.128   4.452   6.318 -0.0293  1.7327 -0.5270
  188SLPC    HY21668   3.305   4.429   6.320  0.9028 -0.3730  0.4091
  188SLPC   O3121669   3.240   4.587   6.436 -0.1326 -0.8551  0.3941
  188SLPC   C3121670   3.255   4.680   6.342  0.3285 -0.3539 -0.5861
  188SLPC   O3221671   3.206   4.670   6.230 -0.7185 -0.0540 -0.5365
  188SLPC   C3221672   3.341   4.793   6.393  0.1106 -0.5094  0.1632
  188SLPC   H2X21673   3.301   4.887   6.348  1.8355  1.3648  2.2619
  188SLPC   H2Y21674   3.442   4.769   6.354  0.2189  0.6408 -0.3267
  188SLPC   C2321675   3.012   4.508   6.822 -0.4656 -0.5053  0.4437
  188SLPC   H3R21676   2.944   4.555   6.747  0.2251  0.3831  0.3634
  188SLPC   H3S21677   3.116   4.547   6.822 -1.7282  3.2788 -0.2257
  188SLPC   C2421678   2.949   4.545   6.957  0.5253 -0.0118  0.4443
  188SLPC   H4R21679   3.029   4.537   7.034  2.4973  1.5156 -1.3430
  188SLPC   H4S21680   2.867   4.472   6.973  0.7239  0.2179  2.8730
  188SLPC   C2521681   2.891   4.686   6.956  1.0369 -0.6914  0.5779
  188SLPC   H5R21682   2.843   4.698   6.856  1.0478 -0.5050  0.5944
  188SLPC   H5S21683   2.982   4.749   6.950  0.2905  0.3382 -0.4343
  188SLPC   C2621684   2.803   4.722   7.070  0.2884 -0.9476 -0.4276
  188SLPC   H6R21685   2.860   4.711   7.165 -0.7532  0.1622  0.3533
  188SLPC   H6S21686   2.716   4.653   7.080  0.0939 -0.5938  0.4526
  188SLPC   C2721687   2.754   4.873   7.067 -0.3474  0.7298 -0.0476
  188SLPC   H7R21688   2.732   4.890   6.959 -1.4414  0.0887  0.0520
  188SLPC   H7S21689   2.836   4.932   7.112 -0.5003 -0.0734  1.3433
  188SLPC   C2821690   2.626   4.897   7.150  0.5036  0.0983  0.8467
  188SLPC   H8R21691   2.596   5.004   7.155 -0.3377  0.3275 -3.9890
  188SLPC   H8S21692   2.640   4.859   7.253  2.1155 -1.6735  0.0265
  188SLPC   C2921693   2.512   4.825   7.078 -0.4157  0.2834 -0.4314
  188SLPC   H9R21694   2.519   4.833   6.969  0.5822  1.0998 -0.3259
  188SLPC  C21021695   2.429   4.738   7.133 -0.1620  0.9300 -0.1888
  188SLPC  H10R21696   2.352   4.683   7.078  0.2337 -0.5122  0.6463
  188SLPC  C21121697   2.422   4.704   7.282 -0.2892 -0.2341  0.4606
  188SLPC  H11R21698   2.459   4.788   7.346  1.4352 -0.9912  0.5213
  188SLPC  H11S21699   2.481   4.612   7.299 -0.3485 -0.4292 -0.3907
  188SLPC  C21221700   2.277   4.663   7.311  0.0776  0.3171  0.4877
  188SLPC  H12R21701   2.198   4.687   7.238  1.7568 -0.2866 -1.6603
  188SLPC  C21321702   2.240   4.603   7.423 -0.1802 -0.6124 -0.1531
  188SLPC  H13R21703   2.139   4.563   7.437 -0.7050  0.9938  0.7840
  188SLPC  C21421704   2.331   4.581   7.538  0.7690  0.0308 -0.0774
  188SLPC  H14R21705   2.293   4.638   7.625  1.2250 -0.1554  0.2512
  188SLPC  H14S21706   2.429   4.631   7.519  1.1594 -1.3446 -1.9578
  188SLPC  C21521707   2.350   4.426   7.557 -0.1729 -0.4645  0.5777
  188SLPC  H15R21708   2.406   4.373   7.477  2.9688  2.3131  0.7323
  188SLPC  H15S21709   2.251   4.375   7.556 -0.4544 -0.1044 -2.7867
  188SLPC  C21621710   2.427   4.404   7.687  0.8389  0.8654 -0.2790
  188SLPC  H16R21711   2.370   4.476   7.750  0.3468 -0.4764  0.8457
  188SLPC  H16S21712   2.530   4.445   7.679  0.2027  3.5950  3.0949
  188SLPC  C21721713   2.440   4.257   7.735  0.5248 -0.1311 -0.7938
  188SLPC  H17R21714   2.529   4.238   7.799  1.9366  0.1977 -2.5660
  188SLPC  H17S21715   2.473   4.191   7.651 -0.5391 -1.3887 -0.2608
  188SLPC  C21821716   2.303   4.216   7.796 -0.4514 -0.6432 -0.2808
  188SLPC  H18R21717   2.275   4.109   7.801 -1.1708 -0.4516 -0.1824
  188SLPC  H18S21718   2.224   4.260   7.732 -0.0791 -1.0534 -1.0427
  188SLPC  H18T21719   2.289   4.267   7.893 -1.3518 -1.3926 -0.0029
  188SLPC   C3321720   3.353   4.818   6.548 -0.2821 -0.1594  1.0287
  188SLPC   H3X21721   3.450   4.870   6.562  0.1875 -0.0572 -2.0168
  188SLPC   H3Y21722   3.374   4.715   6.585 -0.2954 -0.7834 -0.6117
  188SLPC   C3421723   3.235   4.888   6.605  0.4731 -0.2228  0.2496
  188SLPC   H4X21724   3.143   4.832   6.580 -1.8584  1.8257  3.4061
  188SLPC   H4Y21725   3.223   4.986   6.555 -0.9352 -1.1572 -1.3335
  188SLPC   C3521726   3.236   4.908   6.754 -0.6963  0.1693 -0.2116
  188SLPC   H5X21727   3.221   4.811   6.805  0.2738 -0.0015 -0.2394
  188SLPC   H5Y21728   3.146   4.966   6.786  0.2908  0.8845  1.3763
  188SLPC   C3621729   3.368   4.970   6.814 -0.0371  0.3391 -0.5098
  188SLPC   H6X21730   3.435   5.037   6.756  1.7385 -0.6980  0.2681
  188SLPC   H6Y21731   3.449   4.895   6.826 -0.8881 -0.6731 -0.9332
  188SLPC   C3721732   3.336   5.033   6.957  0.2756  0.0577 -0.5309
  188SLPC   H7X21733   3.272   5.116   6.922  0.1194 -0.5668 -1.7672
  188SLPC   H7Y21734   3.431   5.073   6.999 -0.1992 -0.7785  1.4746
  188SLPC   C3821735   3.264   4.944   7.054  0.1330  0.2452  0.1276
  188SLPC   H8X21736   3.325   4.852   7.043  0.8090  0.7725 -0.6326
  188SLPC   H8Y21737   3.162   4.919   7.018  0.3192  0.0277 -0.2555
  188SLPC   C3921738   3.283   4.996   7.200  0.1257 -0.3186  0.6803
  188SLPC   H9X21739   3.227   5.092   7.206 -2.0997 -1.4971 -0.1240
  188SLPC   H9Y21740   3.392   5.020   7.208 -0.2577  1.8351  0.2105
  188SLPC  C31021741   3.243   4.907   7.310  0.0185  0.6499  0.6013
  188SLPC  H10X21742   3.313   4.822   7.314  0.2108  0.6758 -1.1746
  188SLPC  H10Y21743   3.140   4.865   7.313  0.5078 -0.8512 -1.5185
  188SLPC  C31121744   3.267   4.981   7.439 -0.0022 -0.4100  0.0325
  188SLPC  H11X21745   3.200   5.069   7.435 -1.0193 -1.1171  0.8712
  188SLPC  H11Y21746   3.371   5.019   7.447 -1.0306  2.5626  0.4835
  188SLPC  C31221747   3.220   4.896   7.556  0.2754 -0.2628  0.4655
  188SLPC  H12X21748   3.282   4.803   7.553  0.3922 -0.2024  0.8913
  188SLPC  H12Y21749   3.122   4.850   7.533  1.0361 -0.9212 -1.7283
  188SLPC  C31321750   3.217   4.974   7.686  0.2446  0.1382 -0.7322
  188SLPC  H13X21751   3.152   5.062   7.674 -0.9807 -0.6672 -0.1603
  188SLPC  H13Y21752   3.318   5.014   7.708  0.0202 -0.3705  1.3704
  188SLPC  C31421753   3.173   4.884   7.803  0.2239 -0.3759  0.7452
  188SLPC  H14X21754   3.249   4.805   7.816 -2.6498 -3.4717  0.1796
  188SLPC  H14Y21755   3.078   4.830   7.785 -0.6063  1.1122  0.4606
  188SLPC  C31521756   3.160   4.955   7.936  1.2851 -0.4033  0.6914
  188SLPC  H15X21757   3.114   5.053   7.910 -0.4235 -0.9934  1.3490
  188SLPC  H15Y21758   3.262   4.958   7.980  0.3946 -1.2942  2.9765
  188SLPC  C31621759   3.068   4.881   8.026  0.1197  0.2347  0.2723
  188SLPC  H16X21760   3.110   4.779   8.024 -1.1899 -0.3812  1.8924
  188SLPC  H16Y21761   2.968   4.874   7.979  0.1080 -0.9278  0.4552
  188SLPC  C31721762   3.061   4.934   8.166  0.2130  0.7320 -0.2929
  188SLPC  H17X21763   3.034   5.041   8.162  1.7440  1.2560  1.6861
  188SLPC  H17Y21764   3.163   4.931   8.211 -0.5709 -2.0997  1.6225
  188SLPC  C31821765   2.964   4.851   8.254 -0.3080 -0.0423  0.2955
  188SLPC  H18X21766   2.863   4.876   8.214 -0.4395  2.8813  2.1834
  188SLPC  H18Y21767   2.975   4.880   8.360  0.0867  0.6762  0.0673
  188SLPC  H18Z21768   2.979   4.742   8.242 -0.0435  0.1520 -1.5491
  189SLPC     N21769   2.181   0.269   6.188  0.4118  0.2268 -0.6086
  189SLPC   C1321770   2.258   0.277   6.063 -0.1419 -0.1065  0.6023
  189SLPC  H13A21771   2.362   0.304   6.080 -0.2041  0.8556 -0.4106
  189SLPC  H13B21772   2.261   0.181   6.012 -1.5495 -0.3269  0.8928
  189SLPC  H13C21773   2.226   0.351   5.991 -2.7848 -1.6352  0.0860
  189SLPC   C1421774   2.033   0.231   6.146 -0.9031 -0.3344  0.1906
  189SLPC  H14A21775   2.021   0.145   6.081  0.1874 -1.5320  1.5070
  189SLPC  H14B21776   1.992   0.189   6.237  0.6024 -0.9915  0.5908
  189SLPC  H14C21777   1.986   0.315   6.097  1.2038 -0.2057 -1.7798
  189SLPC   C1521778   2.182   0.401   6.261  0.1563 -0.4538  0.5085
  189SLPC  H15A21779   2.128   0.474   6.202 -0.3014  1.1183  2.7616
  189SLPC  H15B21780   2.123   0.393   6.351 -4.2733  1.3868 -1.8951
  189SLPC  H15C21781   2.285   0.425   6.284  0.4200  0.9708 -1.8208
  189SLPC   C1221782   2.249   0.166   6.285  0.0535 -0.7525 -0.0733
  189SLPC  H12A21783   2.280   0.082   6.225 -1.9438 -2.2724  0.9280
  189SLPC  H12B21784   2.170   0.129   6.349 -2.4854  3.7307 -0.1966
  189SLPC   C1121785   2.366   0.216   6.367  0.2000  0.0305 -0.5341
  189SLPC  H11A21786   2.405   0.145   6.443  1.7831  1.8123  0.4139
  189SLPC  H11B21787   2.330   0.305   6.423  2.6742  2.6803 -2.8332
  189SLPC     P21788   2.590   0.168   6.237 -0.6082  0.2448  0.6189
  189SLPC   O1321789   2.621   0.184   6.096  0.2226  1.0487  0.5406
  189SLPC   O1421790   2.698   0.190   6.334 -0.5608 -0.3951 -0.0405
  189SLPC   O1221791   2.468   0.263   6.276  0.1664  0.0831  0.3997
  189SLPC   O1121792   2.537   0.019   6.254  0.3648  0.7713  0.0317
  189SLPC    C121793   2.621  -0.071   6.324 -0.0104  0.2943 -0.3818
  189SLPC    HA21794   2.693  -0.112   6.251  0.3543  0.0100  0.1287
  189SLPC    HB21795   2.670  -0.019   6.409 -0.5332  2.0129 -1.0787
  189SLPC    C221796   2.542  -0.194   6.379  0.3479  0.6692 -0.2533
  189SLPC    HS21797   2.515  -0.261   6.295  2.4836 -1.6370  0.7873
  189SLPC   O2121798   2.423  -0.143   6.441 -0.0913  0.4676  0.7396
  189SLPC   C2121799   2.331  -0.241   6.458  0.0150  0.3234  0.0397
  189SLPC   O2221800   2.347  -0.357   6.424  0.5987  0.2210 -0.1430
  189SLPC   C2221801   2.222  -0.181   6.553 -0.3011 -0.3807 -0.7186
  189SLPC   H2R21802   2.164  -0.102   6.501  0.3773  0.4758 -0.2141
  189SLPC   H2S21803   2.164  -0.271   6.582  1.4541 -1.0543  0.9216
  189SLPC    C321804   2.627  -0.274   6.473  0.2283 -0.0554 -0.7427
  189SLPC    HX21805   2.711  -0.316   6.414 -0.8534 -2.3993 -0.7215
  189SLPC    HY21806   2.575  -0.362   6.517  0.1248  0.8112  0.9632
  189SLPC   O3121807   2.671  -0.200   6.587 -0.2724  0.1639 -0.5583
  189SLPC   C3121808   2.748  -0.267   6.674 -0.3697  0.4376  0.0517
  189SLPC   O3221809   2.790  -0.376   6.657 -0.3410  0.3475  0.2729
  189SLPC   C3221810   2.771  -0.187   6.797 -0.5236 -0.1702  0.0777
  189SLPC   H2X21811   2.669  -0.163   6.835 -0.7577 -1.3244  0.2265
  189SLPC   H2Y21812   2.815  -0.089   6.770 -0.2594 -0.8721 -2.2576
  189SLPC   C2321813   2.286  -0.115   6.684  0.3987 -0.4329 -0.1276
  189SLPC   H3R21814   2.204  -0.055   6.728  0.0044  1.6922 -3.3670
  189SLPC   H3S21815   2.363  -0.036   6.667  0.6190 -0.7961 -0.8851
  189SLPC   C2421816   2.338  -0.227   6.783 -0.3136  0.7490 -0.2836
  189SLPC   H4R21817   2.423  -0.272   6.728 -0.6794 -3.3072  2.1127
  189SLPC   H4S21818   2.263  -0.308   6.798  1.5345 -0.8792  0.6575
  189SLPC   C2521819   2.389  -0.174   6.912 -0.2369  0.2045  0.1638
  189SLPC   H5R21820   2.444  -0.081   6.885  1.3262 -0.7942 -0.2379
  189SLPC   H5S21821   2.453  -0.256   6.951 -1.1580 -0.5246  0.1686
  189SLPC   C2621822   2.271  -0.154   7.017  0.2103  0.0138  0.5462
  189SLPC   H6R21823   2.217  -0.249   7.034  0.2790 -0.4667 -1.6276
  189SLPC   H6S21824   2.203  -0.073   6.982  0.3092  0.1897  0.7543
  189SLPC   C2721825   2.327  -0.109   7.155 -0.2843  0.3370  0.7894
  189SLPC   H7R21826   2.364  -0.006   7.134  1.6984 -0.4726  0.0805
  189SLPC   H7S21827   2.411  -0.177   7.179  0.6018  1.1772  0.1677
  189SLPC   C2821828   2.215  -0.107   7.252 -0.1700  0.0858 -0.6507
  189SLPC   H8R21829   2.177  -0.211   7.255  0.0923 -0.0073 -0.5531
  189SLPC   H8S21830   2.128  -0.052   7.211 -1.2840 -1.0948  0.0611
  189SLPC   C2921831   2.268  -0.055   7.386 -0.6070  0.3085  0.6415
  189SLPC   H9R21832   2.377  -0.042   7.397 -0.1972 -1.5800 -0.5813
  189SLPC  C21021833   2.193  -0.032   7.488  0.2973 -1.1109  0.0439
  189SLPC  H10R21834   2.235   0.007   7.582 -0.6648  1.8841 -0.6705
  189SLPC  C21121835   2.044  -0.054   7.501  0.7993  0.1011  0.3935
  189SLPC  H11R21836   2.000  -0.074   7.401 -1.7593 -2.1909  1.8217
  189SLPC  H11S21837   1.989   0.038   7.529  0.2150 -0.1673  0.1428
  189SLPC  C21221838   2.009  -0.172   7.579 -0.3906  0.9238  0.0359
  189SLPC  H12R21839   2.094  -0.221   7.629 -0.5214  1.1670  0.5028
  189SLPC  C21321840   1.887  -0.213   7.607  0.2408  0.4177 -0.0483
  189SLPC  H13R21841   1.876  -0.305   7.666 -2.3416 -1.2213 -2.7493
  189SLPC  C21421842   1.760  -0.148   7.566  0.3035  0.1780 -0.4114
  189SLPC  H14R21843   1.703  -0.206   7.490 -2.2139 -0.9347  2.1361
  189SLPC  H14S21844   1.791  -0.054   7.514  0.3388 -0.7871 -2.2268
  189SLPC  C21521845   1.671  -0.120   7.692  0.3497 -0.1947  0.1795
  189SLPC  H15R21846   1.635  -0.217   7.732  0.8589 -0.5575 -0.2227
  189SLPC  H15S21847   1.587  -0.052   7.666  1.0227  0.6806  0.1964
  189SLPC  C21621848   1.737  -0.042   7.808  0.3985 -0.8898  0.2310
  189SLPC  H16R21849   1.786   0.046   7.761 -0.5082 -0.2228  0.5300
  189SLPC  H16S21850   1.827  -0.097   7.844  1.6731  0.0180 -1.3898
  189SLPC  C21721851   1.640  -0.017   7.914  0.0814  0.0231 -0.2218
  189SLPC  H17R21852   1.599  -0.119   7.931  1.1203 -0.0809  2.0157
  189SLPC  H17S21853   1.553   0.045   7.884  1.1983  0.8817 -1.8048
  189SLPC  C21821854   1.708   0.043   8.039 -0.2619  0.1874  0.0325
  189SLPC  H18R21855   1.651   0.025   8.133  0.6408 -1.6797  0.2765
  189SLPC  H18S21856   1.714   0.153   8.028 -2.0552  0.3243  0.0597
  189SLPC  H18T21857   1.807  -0.006   8.052 -0.3990 -0.3002 -0.7023
  189SLPC   C3321858   2.859  -0.265   6.895 -0.7905  0.0025 -0.6313
  189SLPC   H3X21859   2.904  -0.197   6.971 -1.7459 -1.8145  1.6847
  189SLPC   H3Y21860   2.940  -0.321   6.845 -0.2491 -0.9388  1.1985
  189SLPC   C3421861   2.791  -0.364   6.981 -0.1033 -0.2519  0.1188
  189SLPC   H4X21862   2.761  -0.455   6.925  1.4304 -1.9724  1.9612
  189SLPC   H4Y21863   2.704  -0.317   7.032  0.1910 -1.0316  1.3793
  189SLPC   C3521864   2.894  -0.434   7.068  0.6829  0.3709  0.0846
  189SLPC   H5X21865   2.956  -0.360   7.123 -0.0954  0.9698  0.1739
  189SLPC   H5Y21866   2.963  -0.508   7.021  0.5997  0.5834 -0.3788
  189SLPC   C3621867   2.827  -0.513   7.182 -0.5555  0.5263 -0.8818
  189SLPC   H6X21868   2.882  -0.610   7.180 -1.7436 -0.2273  0.9344
  189SLPC   H6Y21869   2.722  -0.539   7.158 -1.2921 -0.1203  2.5504
  189SLPC   C3721870   2.837  -0.439   7.315 -0.2398  0.7777 -1.0004
  189SLPC   H7X21871   2.806  -0.333   7.302 -1.2005  0.6703  0.2217
  189SLPC   H7Y21872   2.937  -0.457   7.361 -1.0069  2.6406  1.6744
  189SLPC   C3821873   2.748  -0.506   7.424  0.9556 -0.7147  0.4189
  189SLPC   H8X21874   2.778  -0.613   7.416  2.5938 -0.3967  1.7390
  189SLPC   H8Y21875   2.641  -0.501   7.395  1.2076 -0.6021 -0.5468
  189SLPC   C3921876   2.782  -0.455   7.564 -0.4602 -0.1929 -0.8042
  189SLPC   H9X21877   2.801  -0.346   7.558  1.2007 -0.3537  0.5691
  189SLPC   H9Y21878   2.882  -0.499   7.588  1.1949  2.1613 -2.7903
  189SLPC  C31021879   2.670  -0.487   7.666 -0.1042  0.5203 -0.5120
  189SLPC  H10X21880   2.659  -0.597   7.680  0.0028  0.7130  1.2758
  189SLPC  H10Y21881   2.575  -0.441   7.633 -0.1167  0.3438 -0.7270
  189SLPC  C31121882   2.710  -0.443   7.809 -0.5211 -0.6496 -0.1456
  189SLPC  H11X21883   2.704  -0.335   7.831 -1.3759 -1.1772  2.6861
  189SLPC  H11Y21884   2.816  -0.467   7.829  0.2116  0.8585 -1.9380
  189SLPC  C31221885   2.617  -0.508   7.908  0.4718 -0.8910 -0.4621
  189SLPC  H12X21886   2.639  -0.617   7.905  0.3951 -0.9973  1.8037
  189SLPC  H12Y21887   2.514  -0.486   7.872  1.3161  1.9354 -1.4327
  189SLPC  C31321888   2.653  -0.470   8.053  0.2505 -0.1046 -0.4010
  189SLPC  H13X21889   2.630  -0.363   8.070  0.2351 -0.0343 -0.8525
  189SLPC  H13Y21890   2.761  -0.483   8.079 -0.0475  1.2690  1.7442
  189SLPC  C31421891   2.566  -0.560   8.142 -0.2867  0.0628 -0.2594
  189SLPC  H14X21892   2.582  -0.668   8.121 -0.0169 -0.1150  0.8010
  189SLPC  H14Y21893   2.459  -0.545   8.114 -0.1539 -2.8802 -2.9103
  189SLPC  C31521894   2.580  -0.540   8.296  0.0341 -0.3630  0.1696
  189SLPC  H15X21895   2.523  -0.622   8.345 -4.0391  1.5979 -0.8315
  189SLPC  H15Y21896   2.531  -0.445   8.326 -0.6503 -1.2514  2.0208
  189SLPC  C31621897   2.730  -0.527   8.337  0.3569  0.5667 -0.4264
  189SLPC  H16X21898   2.793  -0.465   8.271  1.2693  0.4870  0.3412
  189SLPC  H16Y21899   2.782  -0.625   8.327 -2.6931 -1.6019  2.3284
  189SLPC  C31721900   2.763  -0.479   8.483 -0.1158 -0.0414 -0.3663
  189SLPC  H17X21901   2.743  -0.369   8.486  0.2814  0.0395 -0.5338
  189SLPC  H17Y21902   2.873  -0.494   8.489 -0.1099 -0.0952 -0.6093
  189SLPC  C31821903   2.686  -0.559   8.588 -0.0079  0.2700  0.0458
  189SLPC  H18X21904   2.707  -0.508   8.685  3.1721 -0.7985  0.0531
  189SLPC  H18Y21905   2.726  -0.662   8.584 -0.6888 -0.0270  0.6391
  189SLPC  H18Z21906   2.577  -0.564   8.567 -0.1610  0.3669  0.7852
  190SLPC     N21907   3.236   5.720   5.732  0.1668 -0.2376 -0.8164
  190SLPC   C1321908   3.235   5.857   5.691  0.1559 -0.7004  0.4164
  190SLPC  H13A21909   3.135   5.895   5.675  1.3585  2.5346 -0.0688
  190SLPC  H13B21910   3.292   5.925   5.753 -0.6290  1.1934 -0.8403
  190SLPC  H13C21911   3.271   5.872   5.591 -4.5792  2.2168 -1.1777
  190SLPC   C1421912   3.372   5.660   5.727 -0.0169  0.5427  0.1586
  190SLPC  H14A21913   3.401   5.640   5.625 -1.0383 -3.6787  0.5113
  190SLPC  H14B21914   3.443   5.726   5.775 -1.3842  0.7473  1.9806
  190SLPC  H14C21915   3.375   5.566   5.780 -3.5498  0.5796  0.6025
  190SLPC   C1521916   3.148   5.637   5.647  0.8063 -0.8463  0.5787
  190SLPC  H15A21917   3.162   5.534   5.677  3.7023  0.2912  3.8105
  190SLPC  H15B21918   3.047   5.666   5.673  0.2692 -0.1978 -1.9078
  190SLPC  H15C21919   3.162   5.663   5.543  1.0516  2.4454  1.3184
  190SLPC   C1221920   3.178   5.711   5.870  0.0565  0.5974  0.1069
  190SLPC  H12A21921   3.082   5.760   5.861 -0.7905 -0.9750  0.1914
  190SLPC  H12B21922   3.238   5.772   5.937  1.1268 -1.8994  1.5575
  190SLPC   C1121923   3.126   5.586   5.940  0.1498 -0.3519 -0.1749
  190SLPC  H11A21924   3.054   5.534   5.874 -1.2547 -0.5059  1.4103
  190SLPC  H11B21925   3.060   5.620   6.023 -0.2500 -0.4745 -0.4409
  190SLPC     P21926   3.298   5.535   6.127  0.0301  0.3132  0.0857
  190SLPC   O1321927   3.350   5.670   6.124  0.4627  0.4380  0.0365
  190SLPC   O1421928   3.198   5.503   6.228 -0.4701  0.3634 -0.0651
  190SLPC   O1221929   3.237   5.502   5.983  0.7389 -0.4135 -0.1226
  190SLPC   O1121930   3.416   5.427   6.133 -0.2648  0.6325 -0.1406
  190SLPC    C121931   3.393   5.287   6.133  0.2954 -0.1483  0.2402
  190SLPC    HA21932   3.283   5.268   6.135 -0.1103  2.0127  0.5440
  190SLPC    HB21933   3.447   5.237   6.049  2.4364  1.9756  0.2659
  190SLPC    C221934   3.452   5.207   6.252  0.8569 -0.5574  0.4914
  190SLPC    HS21935   3.433   5.099   6.239  0.3078 -0.7330  2.4143
  190SLPC   O2121936   3.406   5.269   6.373 -0.5379  0.1783  0.1756
  190SLPC   C2121937   3.280   5.253   6.412 -0.5468  0.4830  0.3672
  190SLPC   O2221938   3.202   5.172   6.363 -0.1034  0.6711  0.5948
  190SLPC   C2221939   3.250   5.331   6.544 -0.2193  0.3366  0.1578
  190SLPC   H2R21940   3.314   5.284   6.622  0.9149 -0.6342 -1.3061
  190SLPC   H2S21941   3.284   5.436   6.531  1.8932 -0.5737 -2.8169
  190SLPC    C321942   3.606   5.219   6.243 -0.1190 -0.4261  0.3490
  190SLPC    HX21943   3.642   5.323   6.263  0.4098 -0.6942  0.8101
  190SLPC    HY21944   3.639   5.181   6.144 -0.5377 -0.5800  0.2672
  190SLPC   O3121945   3.677   5.149   6.349  0.2413  0.0051  0.3582
  190SLPC   C3121946   3.674   5.017   6.352  0.2558  0.8697 -0.3887
  190SLPC   O3221947   3.610   4.942   6.276 -1.1967  0.0313  0.3925
  190SLPC   C3221948   3.761   4.968   6.466 -0.1504 -1.4033  0.1185
  190SLPC   H2X21949   3.713   5.005   6.558 -0.2986 -1.7964  0.2018
  190SLPC   H2Y21950   3.865   5.007   6.458 -0.9081  0.8372  0.6781
  190SLPC   C2321951   3.103   5.319   6.579  1.0016 -0.2578  0.1849
  190SLPC   H3R21952   3.060   5.217   6.592  1.3212 -0.5123 -0.6693
  190SLPC   H3S21953   3.055   5.372   6.494 -0.9733 -0.7301  0.9524
  190SLPC   C2421954   3.066   5.408   6.702 -0.5652 -0.4223  0.8919
  190SLPC   H4R21955   2.957   5.431   6.703 -0.3319  1.2192 -1.7740
  190SLPC   H4S21956   3.102   5.511   6.686 -2.5825  0.3546  1.0146
  190SLPC   C2521957   3.122   5.342   6.831 -0.1023  0.1260 -0.1470
  190SLPC   H5R21958   3.233   5.337   6.830  0.0179  2.0068 -0.8707
  190SLPC   H5S21959   3.084   5.238   6.836 -0.0739  0.1672  2.3921
  190SLPC   C2621960   3.073   5.424   6.959 -0.2789  0.7065 -0.6186
  190SLPC   H6R21961   2.973   5.466   6.935 -0.5328 -0.1276 -1.0378
  190SLPC   H6S21962   3.139   5.513   6.958 -0.0097  0.5372 -2.6089
  190SLPC   C2721963   3.073   5.347   7.095  1.1466  0.0662 -0.1639
  190SLPC   H7R21964   3.069   5.415   7.182  2.9707 -0.6480  0.5279
  190SLPC   H7S21965   3.168   5.292   7.110  0.9801  0.4851  3.2129
  190SLPC   C2821966   2.947   5.253   7.097 -0.4066 -0.1049 -0.7997
  190SLPC   H8R21967   2.959   5.195   7.004 -0.4726  0.8772 -1.4413
  190SLPC   H8S21968   2.852   5.310   7.085 -1.7826 -2.2140 -0.4309
  190SLPC   C2921969   2.958   5.162   7.215  0.0782  0.2537 -0.0284
  190SLPC   H9R21970   3.034   5.083   7.213 -0.4453 -0.2415 -1.5349
  190SLPC  C21021971   2.905   5.188   7.333  0.4663  0.3397 -0.2569
  190SLPC  H10R21972   2.904   5.109   7.410 -1.4816 -1.0819 -1.6240
  190SLPC  C21121973   2.832   5.322   7.367 -0.0564  0.6150 -1.0798
  190SLPC  H11R21974   2.727   5.306   7.398  0.6880 -0.9372  0.8396
  190SLPC  H11S21975   2.806   5.392   7.285 -3.0810  2.0377  0.9053
  190SLPC  C21221976   2.917   5.402   7.461 -0.4601  0.1690  0.1851
  190SLPC  H12R21977   3.006   5.447   7.414  0.2946 -0.3981  1.0398
  190SLPC  C21321978   2.888   5.418   7.595  0.0834 -0.2344 -0.5491
  190SLPC  H13R21979   2.951   5.484   7.657  0.7206 -1.4266  0.1006
  190SLPC  C21421980   2.771   5.365   7.666  0.0066  0.8794 -0.1707
  190SLPC  H14R21981   2.722   5.290   7.601  1.8056 -1.1495  0.6793
  190SLPC  H14S21982   2.699   5.439   7.707 -2.5005 -1.7158  0.3344
  190SLPC  C21521983   2.822   5.284   7.795  0.5579 -0.3207 -0.3029
  190SLPC  H15R21984   2.875   5.341   7.875  1.5092 -1.0934 -0.3685
  190SLPC  H15S21985   2.887   5.199   7.765 -1.1869 -1.2810 -1.5347
  190SLPC  C21621986   2.704   5.214   7.869 -0.1968 -0.2378 -0.5175
  190SLPC  H16R21987   2.656   5.149   7.793 -0.0988  0.4794 -1.2101
  190SLPC  H16S21988   2.631   5.289   7.907  0.6468 -0.2752  1.2640
  190SLPC  C21721989   2.755   5.136   7.992  0.3634  0.4011  0.0608
  190SLPC  H17R21990   2.815   5.197   8.063 -0.1538  0.1628  0.7116
  190SLPC  H17S21991   2.829   5.064   7.949 -0.9524 -0.5326 -0.7374
  190SLPC  C21821992   2.648   5.053   8.056  1.0186 -0.2015  0.3351
  190SLPC  H18R21993   2.601   4.984   7.983 -0.7278 -0.1496  1.3335
  190SLPC  H18S21994   2.569   5.119   8.098 -0.2499 -0.6654 -1.2408
  190SLPC  H18T21995   2.681   4.984   8.137  0.4235 -0.4869  0.3384
  190SLPC   C3321996   3.760   4.821   6.482 -0.6561  0.2139  0.1675
  190SLPC   H3X21997   3.787   4.766   6.390 -0.2476 -0.4215  0.6536
  190SLPC   H3Y21998   3.658   4.783   6.507 -1.4116  1.5772 -0.7605
  190SLPC   C3421999   3.853   4.781   6.591  0.3553 -0.2609 -0.1135
  190SLPC   H4X22000   3.960   4.790   6.563  0.0528 -1.1145 -1.6457
  190SLPC   H4Y22001   3.844   4.673   6.615 -0.0971 -0.0941  0.5031
  190SLPC   C3522002   3.825   4.855   6.728 -0.0789  0.0972 -0.9903
  190SLPC   H5X22003   3.715   4.861   6.742  0.1083 -0.0974  0.7909
  190SLPC   H5Y22004   3.848   4.964   6.724 -0.8712  0.2289 -3.0893
  190SLPC   C3622005   3.870   4.774   6.853  0.0288 -0.2717 -0.6705
  190SLPC   H6X22006   3.981   4.772   6.861  0.1742 -2.9157 -2.1182
  190SLPC   H6Y22007   3.825   4.673   6.836  0.5375 -0.4377 -1.0534
  190SLPC   C3722008   3.808   4.830   6.987 -0.2677 -0.0388  0.3364
  190SLPC   H7X22009   3.795   4.754   7.066  2.0639 -2.9531 -1.8592
  190SLPC   H7Y22010   3.700   4.852   6.969 -0.6923 -2.1465  0.0442
  190SLPC   C3822011   3.879   4.951   7.054 -0.2019 -0.1967  0.3177
  190SLPC   H8X22012   3.904   5.020   6.970 -1.4827 -0.9223 -0.7097
  190SLPC   H8Y22013   3.977   4.906   7.082  0.1344  0.0084 -0.4953
  190SLPC   C3922014   3.801   5.023   7.164  0.3052 -0.3160 -0.1758
  190SLPC   H9X22015   3.694   5.000   7.145  0.2156  2.0816 -3.2788
  190SLPC   H9Y22016   3.824   5.131   7.155  0.5199  0.0290  3.2368
  190SLPC  C31022017   3.840   4.983   7.308 -0.0284 -0.5838  0.2602
  190SLPC  H10X22018   3.942   5.014   7.339 -0.0637 -0.6718  0.4673
  190SLPC  H10Y22019   3.851   4.873   7.315 -0.6276 -0.5392  2.3446
  190SLPC  C31122020   3.744   5.015   7.425  0.1623  0.4241 -0.6666
  190SLPC  H11X22021   3.675   5.098   7.400  0.9001  1.3469  0.2284
  190SLPC  H11Y22022   3.820   5.041   7.502  0.6426 -3.1359  0.2277
  190SLPC  C31222023   3.656   4.896   7.471 -0.3526 -0.0781  0.1102
  190SLPC  H12X22024   3.715   4.806   7.497  0.0986  0.2145  0.1073
  190SLPC  H12Y22025   3.590   4.873   7.384  0.5465  0.0643 -0.6291
  190SLPC  C31322026   3.578   4.919   7.600  0.1621  0.0200  0.0666
  190SLPC  H13X22027   3.502   4.839   7.613 -1.0103  0.3772 -3.5545
  190SLPC  H13Y22028   3.519   5.014   7.600 -1.2093 -0.7979 -0.3592
  190SLPC  C31422029   3.659   4.920   7.726 -0.2619  0.3671 -0.6391
  190SLPC  H14X22030   3.726   5.008   7.723 -0.3776  0.4320 -1.3045
  190SLPC  H14Y22031   3.716   4.825   7.737  1.0289  1.2505  0.6819
  190SLPC  C31522032   3.566   4.917   7.851  0.0416  0.4488  0.5014
  190SLPC  H15X22033   3.521   4.815   7.855  0.3479  0.2044 -1.2131
  190SLPC  H15Y22034   3.482   4.989   7.843  0.5457  1.0092  0.2068
  190SLPC  C31622035   3.636   4.931   7.983  0.7816 -0.2516 -0.3759
  190SLPC  H16X22036   3.677   5.033   8.000 -1.0917  0.7545 -1.5913
  190SLPC  H16Y22037   3.727   4.866   7.977  1.2942  0.2679  1.2736
  190SLPC  C31722038   3.544   4.908   8.105 -0.1894 -0.3396 -0.2274
  190SLPC  H17X22039   3.508   4.803   8.105 -0.1410 -0.3586  0.7717
  190SLPC  H17Y22040   3.447   4.962   8.105 -0.9532 -1.5592 -2.5659
  190SLPC  C31822041   3.591   4.932   8.251  0.1814  0.5267 -0.1683
  190SLPC  H18X22042   3.577   5.036   8.288 -2.3265 -0.7285  2.8618
  190SLPC  H18Y22043   3.691   4.886   8.268  0.2318  0.3387 -0.9237
  190SLPC  H18Z22044   3.521   4.892   8.327 -0.7653  1.9775 -0.2398
  191SLPC     N22045   2.085   0.765   5.503  0.2396  0.1585 -0.1907
  191SLPC   C1322046   1.972   0.840   5.433  0.0935 -0.5566 -0.3035
  191SLPC  H13A22047   1.977   0.839   5.325 -1.4667 -4.2717 -0.4913
  191SLPC  H13B22048   1.878   0.793   5.458 -1.5281  1.8789 -1.4125
  191SLPC  H13C22049   1.970   0.944   5.463  0.2850  0.2330 -2.7512
  191SLPC   C1422050   2.213   0.816   5.462 -0.8159  0.4854 -0.6056
  191SLPC  H14A22051   2.213   0.816   5.354 -0.2502  0.6297 -0.6082
  191SLPC  H14B22052   2.234   0.918   5.488  0.0515  0.0856  0.3430
  191SLPC  H14C22053   2.291   0.758   5.510 -2.7224 -0.0222  2.1246
  191SLPC   C1522054   2.076   0.627   5.453 -0.9538  0.4404  0.4742
  191SLPC  H15A22055   2.149   0.558   5.492 -1.7648  0.6860  2.5513
  191SLPC  H15B22056   1.974   0.592   5.464 -1.3765  1.3795 -0.2780
  191SLPC  H15C22057   2.095   0.625   5.347 -0.3442 -0.8640  0.5866
  191SLPC   C1222058   2.066   0.771   5.652 -0.2303 -0.1363  0.7792
  191SLPC  H12A22059   2.072   0.875   5.682 -0.4926 -0.8582  3.6060
  191SLPC  H12B22060   2.151   0.724   5.699  0.7535 -0.9988 -1.6562
  191SLPC   C1122061   1.942   0.702   5.714  0.1857  0.1481 -0.1519
  191SLPC  H11A22062   1.924   0.603   5.668 -1.1211 -1.4202  3.3490
  191SLPC  H11B22063   1.847   0.756   5.697 -0.4200 -0.9696 -0.4141
  191SLPC     P22064   2.026   0.562   5.935 -0.3532 -0.0457  0.0066
  191SLPC   O1322065   1.925   0.463   5.960 -0.1652  0.0019  0.4890
  191SLPC   O1422066   2.150   0.511   5.871 -0.3892 -0.5438 -0.7065
  191SLPC   O1222067   1.965   0.683   5.852  0.1451 -0.2433 -0.4634
  191SLPC   O1122068   2.061   0.624   6.074 -0.2642  0.0940 -0.6926
  191SLPC    C122069   1.971   0.717   6.139  0.8430 -0.8277  0.2403
  191SLPC    HA22070   2.007   0.819   6.114 -1.6142  0.0210 -0.1650
  191SLPC    HB22071   1.866   0.706   6.103  0.7657  3.9030 -1.7305
  191SLPC    C222072   1.957   0.703   6.299  0.3795  0.6933  0.0786
  191SLPC    HS22073   1.902   0.792   6.336 -0.3891 -0.7855  2.7211
  191SLPC   O2122074   2.086   0.673   6.355 -0.2171 -1.0079  0.1874
  191SLPC   C2122075   2.139   0.770   6.429  0.6582  1.3682  0.3058
  191SLPC   O2222076   2.093   0.878   6.454  0.5675 -0.0864  0.8209
  191SLPC   C2222077   2.264   0.708   6.498  0.7070 -0.3706 -0.1591
  191SLPC   H2R22078   2.233   0.639   6.580  0.1196 -0.8435 -0.7696
  191SLPC   H2S22079   2.310   0.656   6.412  0.9078 -1.2410  0.4570
  191SLPC    C322080   1.863   0.586   6.346 -0.2799 -0.0456  0.6247
  191SLPC    HX22081   1.914   0.496   6.305 -0.0558 -0.0606  0.9310
  191SLPC    HY22082   1.764   0.594   6.296 -0.2173 -3.0096 -0.1869
  191SLPC   O3122083   1.850   0.591   6.487  0.1464  0.3193 -0.0369
  191SLPC   C3122084   1.922   0.503   6.561  0.0276  0.3863  0.1296
  191SLPC   O3222085   1.997   0.411   6.524 -0.5792 -0.1955  0.1957
  191SLPC   C3222086   1.874   0.515   6.706 -0.4687 -0.0807  0.6306
  191SLPC   H2X22087   1.893   0.415   6.750 -1.7574 -1.6633 -2.1579
  191SLPC   H2Y22088   1.764   0.528   6.709 -0.6919 -0.3834 -2.8180
  191SLPC   C2322089   2.368   0.809   6.551  0.6426  0.6814 -0.4682
  191SLPC   H3R22090   2.376   0.896   6.482  1.3788 -0.5496 -1.9945
  191SLPC   H3S22091   2.463   0.753   6.567  0.1859 -0.4423 -1.5370
  191SLPC   C2422092   2.321   0.850   6.690  0.0615  0.1885  0.2232
  191SLPC   H4R22093   2.303   0.757   6.747 -0.5727 -0.6719 -1.3163
  191SLPC   H4S22094   2.226   0.908   6.686  0.0913  0.3346  1.3920
  191SLPC   C2522095   2.419   0.951   6.749  0.1416 -0.5309 -0.1058
  191SLPC   H5R22096   2.391   1.048   6.704  0.7910  1.1951  2.9249
  191SLPC   H5S22097   2.522   0.926   6.714 -0.0359  1.0742 -1.9109
  191SLPC   C2622098   2.421   0.959   6.902 -0.0373 -0.3349 -0.5246
  191SLPC   H6R22099   2.456   0.861   6.942  0.5357 -0.0065 -0.2032
  191SLPC   H6S22100   2.329   0.995   6.953  0.3902 -0.0517  0.0615
  191SLPC   C2722101   2.537   1.055   6.946 -0.9410 -0.1306  0.1857
  191SLPC   H7R22102   2.500   1.156   6.920 -0.2601 -0.4189 -2.0953
  191SLPC   H7S22103   2.629   1.027   6.891 -0.4635 -2.3862  1.9518
  191SLPC   C2822104   2.569   1.040   7.098  0.8035  0.5238  0.4193
  191SLPC   H8R22105   2.660   1.102   7.107  1.2867 -0.2891  1.3187
  191SLPC   H8S22106   2.588   0.935   7.129  0.4518  0.4403  0.3649
  191SLPC   C2922107   2.460   1.094   7.182  0.0678  0.6523 -0.3377
  191SLPC   H9R22108   2.396   1.166   7.129  0.7794 -0.4781 -2.9067
  191SLPC  C21022109   2.432   1.063   7.309 -0.6207 -0.0775  0.8737
  191SLPC  H10R22110   2.348   1.113   7.360 -0.4911  0.5055  0.5177
  191SLPC  C21122111   2.492   0.954   7.394  0.6058 -0.6074  0.3564
  191SLPC  H11R22112   2.544   0.885   7.324  0.3638  0.6525 -1.1208
  191SLPC  H11S22113   2.401   0.913   7.443 -1.1865  2.1255 -0.4313
  191SLPC  C21222114   2.586   1.027   7.484  0.3976 -0.4679 -0.1512
  191SLPC  H12R22115   2.690   1.043   7.451  0.1530 -0.9726 -1.2323
  191SLPC  C21322116   2.557   1.066   7.606  0.2358  0.1167 -0.3889
  191SLPC  H13R22117   2.643   1.091   7.670  0.5444  0.8158 -1.0586
  191SLPC  C21422118   2.428   1.058   7.682  0.2349 -0.1112 -0.6802
  191SLPC  H14R22119   2.343   1.027   7.617  0.8418 -0.6913 -1.2144
  191SLPC  H14S22120   2.415   1.164   7.711 -2.5683  0.5987 -3.8493
  191SLPC  C21522121   2.418   0.974   7.817 -0.1344 -0.2006 -0.1697
  191SLPC  H15R22122   2.440   0.867   7.796  0.8846  0.0526 -0.4375
  191SLPC  H15S22123   2.315   0.984   7.858 -0.3193  0.7741 -0.8294
  191SLPC  C21622124   2.508   1.038   7.927 -0.1625  0.1039 -0.4783
  191SLPC  H16R22125   2.478   1.141   7.957  2.7008  0.6397  0.9264
  191SLPC  H16S22126   2.611   1.055   7.890  0.2554  2.9837  1.5842
  191SLPC  C21722127   2.534   0.942   8.041  1.1926  0.4330 -0.8610
  191SLPC  H17R22128   2.634   0.965   8.083  1.3954 -0.4925 -0.8006
  191SLPC  H17S22129   2.537   0.843   7.990 -0.1697 -0.7488  1.1761
  191SLPC  C21822130   2.411   0.955   8.134  0.0074  0.3648  0.7832
  191SLPC  H18R22131   2.450   0.915   8.230  1.5150  0.7987  0.3777
  191SLPC  H18S22132   2.322   0.900   8.097  0.0644  0.5951  0.2985
  191SLPC  H18T22133   2.387   1.063   8.134 -0.1956  0.3600 -1.3673
  191SLPC   C3322134   1.951   0.627   6.768  0.6512 -0.3325  0.0306
  191SLPC   H3X22135   1.938   0.718   6.706  0.2533 -0.9454 -0.8084
  191SLPC   H3Y22136   2.060   0.610   6.778  0.7735  0.2867 -0.2146
  191SLPC   C3422137   1.918   0.658   6.916 -0.9726 -0.5028 -0.2735
  191SLPC   H4X22138   1.997   0.725   6.955 -0.3427 -1.0380 -0.6194
  191SLPC   H4Y22139   1.929   0.567   6.978  3.0640 -0.2022 -0.2889
  191SLPC   C3522140   1.784   0.726   6.947  0.0662 -0.5287 -0.2531
  191SLPC   H5X22141   1.709   0.644   6.949 -1.7747  0.9972 -2.2639
  191SLPC   H5Y22142   1.749   0.786   6.860  0.0630 -0.5021 -0.2335
  191SLPC   C3622143   1.799   0.807   7.077  0.6098 -0.6915 -0.6971
  191SLPC   H6X22144   1.707   0.866   7.099  1.3243  0.4903 -0.8073
  191SLPC   H6Y22145   1.887   0.873   7.091  0.4678 -0.8507  1.2420
  191SLPC   C3722146   1.812   0.716   7.198  0.8624 -0.4088 -0.2584
  191SLPC   H7X22147   1.917   0.680   7.203  0.7907 -0.5853  0.0091
  191SLPC   H7Y22148   1.737   0.635   7.184 -1.3358  1.3081  0.9604
  191SLPC   C3822149   1.773   0.801   7.327 -0.3306  0.1717  0.0949
  191SLPC   H8X22150   1.681   0.862   7.317 -0.6511 -0.1797  0.8407
  191SLPC   H8Y22151   1.855   0.875   7.334 -0.3364  0.6598 -3.2237
  191SLPC   C3922152   1.749   0.702   7.446 -1.0069 -0.1649  0.3720
  191SLPC   H9X22153   1.838   0.636   7.438 -1.2776 -0.5638  0.5635
  191SLPC   H9Y22154   1.657   0.640   7.434 -1.1519  0.3374 -1.3224
  191SLPC  C31022155   1.756   0.764   7.583  0.6149  0.0252 -0.1929
  191SLPC  H10X22156   1.678   0.843   7.588  0.0851 -0.4690 -0.5975
  191SLPC  H10Y22157   1.859   0.804   7.598  0.1987  2.0493 -2.2596
  191SLPC  C31122158   1.726   0.662   7.685  0.3520  0.0234 -0.2490
  191SLPC  H11X22159   1.800   0.579   7.688  0.3219  0.0106  0.3257
  191SLPC  H11Y22160   1.637   0.602   7.658 -0.3466  1.4258 -1.2081
  191SLPC  C31222161   1.692   0.720   7.825 -0.6806 -0.4462  0.1127
  191SLPC  H12X22162   1.621   0.803   7.805  0.3076  0.4547  0.2454
  191SLPC  H12Y22163   1.779   0.769   7.873 -0.7449 -0.5480  0.3328
  191SLPC  C31322164   1.647   0.614   7.930 -0.3109 -0.2814  0.1364
  191SLPC  H13X22165   1.716   0.526   7.928 -0.9238 -0.7471 -0.7131
  191SLPC  H13Y22166   1.549   0.576   7.895 -0.7299  1.6189 -0.8390
  191SLPC  C31422167   1.656   0.652   8.076 -0.5258 -0.3129 -0.2630
  191SLPC  H14X22168   1.590   0.740   8.092 -0.0466 -0.0157  0.1071
  191SLPC  H14Y22169   1.763   0.677   8.097 -0.7212  0.6608 -0.3531
  191SLPC  C31522170   1.614   0.546   8.179  0.1259 -0.1506 -0.3252
  191SLPC  H15X22171   1.648   0.571   8.282  3.6625 -1.0764 -1.1252
  191SLPC  H15Y22172   1.656   0.447   8.151 -0.7292 -0.5841 -0.1267
  191SLPC  C31622173   1.460   0.529   8.174  0.0149  0.6034 -0.0270
  191SLPC  H16X22174   1.429   0.499   8.071 -2.8165 -0.5212  1.0362
  191SLPC  H16Y22175   1.402   0.621   8.195  1.1609  1.3531 -0.0573
  191SLPC  C31722176   1.420   0.417   8.275  0.1207  1.2650 -0.7712
  191SLPC  H17X22177   1.466   0.438   8.373 -0.8878  0.1071 -0.0183
  191SLPC  H17Y22178   1.477   0.325   8.248  0.3637  1.7448 -1.9810
  191SLPC  C31822179   1.271   0.393   8.292  0.3656  1.0970  0.4691
  191SLPC  H18X22180   1.241   0.360   8.190  2.2817  2.5221 -0.6133
  191SLPC  H18Y22181   1.211   0.481   8.323 -1.2077  0.1773  0.1648
  191SLPC  H18Z22182   1.253   0.310   8.364  0.8547  0.0262 -0.5993
  192SLPC     N22183   3.559   1.890   6.102  0.2994 -0.1200 -0.4576
  192SLPC   C1322184   3.413   1.902   6.126 -0.6960  0.2448  0.2196
  192SLPC  H13A22185   3.363   1.964   6.053 -1.2001  0.9789  1.1633
  192SLPC  H13B22186   3.364   1.807   6.133 -0.2892  0.1319  2.1504
  192SLPC  H13C22187   3.397   1.943   6.225  1.3617  0.0276  0.6855
  192SLPC   C1422188   3.617   2.025   6.113  0.2975 -0.9010  0.1257
  192SLPC  H14A22189   3.597   2.067   6.210 -1.2999 -2.4594  0.5284
  192SLPC  H14B22190   3.724   2.023   6.102  0.4957  0.6560  1.3265
  192SLPC  H14C22191   3.583   2.089   6.032  2.0939 -0.9635 -0.7378
  192SLPC   C1522192   3.569   1.832   5.962 -0.5941 -0.4868  0.0090
  192SLPC  H15A22193   3.537   1.729   5.964  0.7423 -0.9184 -0.0155
  192SLPC  H15B22194   3.501   1.885   5.897 -2.7371 -2.2021  0.7314
  192SLPC  H15C22195   3.673   1.841   5.935  0.1954  0.9105  3.0230
  192SLPC   C1222196   3.617   1.783   6.204 -0.4860  0.2887 -0.0809
  192SLPC  H12A22197   3.705   1.741   6.158  0.4824  0.5883  1.3871
  192SLPC  H12B22198   3.551   1.698   6.206  0.2783 -0.3407  1.9014
  192SLPC   C1122199   3.643   1.823   6.348 -0.1902  0.4474  0.2595
  192SLPC  H11A22200   3.643   1.747   6.428 -3.6365 -0.6835 -0.6355
  192SLPC  H11B22201   3.551   1.879   6.376 -0.2428  0.5696 -0.1347
  192SLPC     P22202   3.901   1.831   6.333  0.0883 -0.1748 -0.0457
  192SLPC   O1322203   3.893   1.721   6.234 -0.1741 -0.0451 -0.1252
  192SLPC   O1422204   3.999   1.942   6.304  0.6270 -0.1376 -0.1444
  192SLPC   O1222205   3.756   1.893   6.349 -0.6036  0.0297  0.4731
  192SLPC   O1122206   3.926   1.770   6.470 -0.6996  0.0565 -0.3351
  192SLPC    C122207   3.919   1.854   6.590 -0.2461 -0.6518  0.1678
  192SLPC    HA22208   4.021   1.859   6.634 -0.6330 -0.6295  1.0861
  192SLPC    HB22209   3.875   1.954   6.572 -0.3061 -0.9774 -1.7242
  192SLPC    C222210   3.841   1.787   6.702 -0.6066 -0.3882 -0.2485
  192SLPC    HS22211   3.731   1.785   6.689 -0.9170  0.8998  1.7174
  192SLPC   O2122212   3.869   1.866   6.819 -0.9049  0.6643 -0.0094
  192SLPC   C2122213   3.788   1.870   6.929 -0.1216 -0.3606  0.2385
  192SLPC   O2222214   3.673   1.845   6.924  0.2661 -0.1860 -0.9651
  192SLPC   C2222215   3.876   1.896   7.051  0.1203  0.0287  0.2245
  192SLPC   H2R22216   3.975   1.938   7.025  0.9663 -0.8741  1.8454
  192SLPC   H2S22217   3.839   1.981   7.113 -0.3222 -0.7143  1.0085
  192SLPC    C322218   3.882   1.639   6.723  0.3832  0.3480 -0.4863
  192SLPC    HX22219   3.993   1.633   6.733  0.6309 -2.4798 -3.3913
  192SLPC    HY22220   3.851   1.590   6.629  1.1957 -2.0461  0.3917
  192SLPC   O3122221   3.816   1.583   6.838 -0.0418  0.2694  0.0796
  192SLPC   C3122222   3.748   1.477   6.812  0.0886 -0.2411  0.0291
  192SLPC   O3222223   3.706   1.440   6.704 -0.3548  0.1437  0.3947
  192SLPC   C3222224   3.725   1.413   6.947 -0.5504  0.7197 -0.4571
  192SLPC   H2X22225   3.809   1.442   7.013  0.1236  0.8919 -1.3797
  192SLPC   H2Y22226   3.731   1.303   6.930  1.3424  0.4617  1.4363
  192SLPC   C2322227   3.889   1.766   7.147  0.4256  0.6326 -0.1997
  192SLPC   H3R22228   3.943   1.689   7.087 -0.6806 -0.3874  0.0719
  192SLPC   H3S22229   3.792   1.720   7.174 -1.8776  4.4857 -1.2167
  192SLPC   C2422230   3.963   1.802   7.275  0.0293  0.7761  0.0514
  192SLPC   H4R22231   3.964   1.711   7.339  0.8244  0.0601 -0.9324
  192SLPC   H4S22232   3.911   1.889   7.319 -1.2278 -0.8859  2.0831
  192SLPC   C2522233   4.118   1.821   7.244 -0.0629  0.1591 -0.8539
  192SLPC   H5R22234   4.133   1.901   7.168  0.7344 -0.6949 -1.6149
  192SLPC   H5S22235   4.171   1.727   7.217  0.4248  1.0591 -3.2334
  192SLPC   C2622236   4.190   1.883   7.363 -0.6042 -0.8558  0.1086
  192SLPC   H6R22237   4.171   1.992   7.373 -0.1039 -0.7446 -0.1563
  192SLPC   H6S22238   4.299   1.871   7.350 -0.5279  0.0415 -0.0971
  192SLPC   C2722239   4.144   1.820   7.494 -0.4018 -0.0324  0.0044
  192SLPC   H7R22240   4.160   1.711   7.477 -0.5406  0.0408 -0.6146
  192SLPC   H7S22241   4.036   1.844   7.499 -0.5512 -0.5204 -0.6279
  192SLPC   C2822242   4.216   1.874   7.621 -0.2255 -0.4913 -0.2992
  192SLPC   H8R22243   4.202   1.983   7.632  1.6274 -0.2435  0.0161
  192SLPC   H8S22244   4.325   1.850   7.614  0.5870  2.6284  0.0988
  192SLPC   C2922245   4.150   1.792   7.726  0.2212  0.1021  0.5078
  192SLPC   H9R22246   4.106   1.696   7.697  0.5530 -0.1959  0.9793
  192SLPC  C21022247   4.133   1.823   7.859 -0.0777 -0.4948 -0.1546
  192SLPC  H10R22248   4.094   1.750   7.930  3.3899  1.0802  3.7549
  192SLPC  C21122249   4.172   1.959   7.921  0.0767  0.1859 -0.2804
  192SLPC  H11R22250   4.178   2.040   7.846  1.5548  2.0954  1.7982
  192SLPC  H11S22251   4.264   1.956   7.983  1.1507 -2.4237 -1.7944
  192SLPC  C21222252   4.057   2.012   8.007 -0.7740  0.3082  0.4746
  192SLPC  H12R22253   3.955   2.000   7.969 -1.1836  1.2885  1.2295
  192SLPC  C21322254   4.065   2.055   8.132  0.5619 -0.0662 -0.5285
  192SLPC  H13R22255   3.971   2.077   8.186  1.7498  0.2923  1.5033
  192SLPC  C21422256   4.180   2.072   8.223  0.8807  1.1027  0.1508
  192SLPC  H14R22257   4.252   1.997   8.182 -0.2427 -0.1227  0.3384
  192SLPC  H14S22258   4.163   2.028   8.323  1.8929  0.6085  0.1284
  192SLPC  C21522259   4.235   2.214   8.247  0.8104  0.0626 -0.8095
  192SLPC  H15R22260   4.259   2.259   8.148  0.3228 -0.6350 -1.2582
  192SLPC  H15S22261   4.332   2.196   8.297 -1.2269 -1.0534  3.1450
  192SLPC  C21622262   4.135   2.312   8.309  0.0926 -0.2266 -0.0806
  192SLPC  H16R22263   4.089   2.246   8.386 -0.4563 -0.0346 -0.2413
  192SLPC  H16S22264   4.059   2.332   8.230 -0.7443 -3.1504 -0.1280
  192SLPC  C21722265   4.178   2.442   8.371  0.6607 -1.0228  0.3308
  192SLPC  H17R22266   4.090   2.491   8.418  0.3021 -1.4396  0.1070
  192SLPC  H17S22267   4.253   2.428   8.452  2.1455 -0.0891 -0.8254
  192SLPC  C21822268   4.238   2.540   8.262 -0.1969 -0.3224 -0.1395
  192SLPC  H18R22269   4.152   2.588   8.211  0.7488 -1.4939 -2.9981
  192SLPC  H18S22270   4.304   2.481   8.196 -0.2857 -0.6628  0.0693
  192SLPC  H18T22271   4.290   2.621   8.317  0.2958  1.3038 -2.8233
  192SLPC   C3322272   3.588   1.436   7.010 -0.1925  0.1973  0.7153
  192SLPC   H3X22273   3.510   1.413   6.934  0.0577 -2.3207  1.1225
  192SLPC   H3Y22274   3.574   1.545   7.021 -3.9801  0.1817 -2.0429
  192SLPC   C3422275   3.569   1.349   7.134  0.1579 -0.4627  0.2251
  192SLPC   H4X22276   3.623   1.256   7.107 -1.2497 -0.9721 -0.9725
  192SLPC   H4Y22277   3.466   1.318   7.164  0.7670 -0.9850  1.8901
  192SLPC   C3522278   3.626   1.427   7.256  0.0562 -0.1857  1.1792
  192SLPC   H5X22279   3.693   1.507   7.218 -0.1005  0.5824  2.4608
  192SLPC   H5Y22280   3.686   1.356   7.317  1.3316 -1.0120 -0.9091
  192SLPC   C3622281   3.509   1.495   7.337 -0.0936 -0.0762 -0.2860
  192SLPC   H6X22282   3.448   1.414   7.381  0.9544 -0.8049 -0.1526
  192SLPC   H6Y22283   3.432   1.547   7.275 -0.2063  0.2048  0.0864
  192SLPC   C3722284   3.558   1.604   7.444 -0.1274  0.7308  0.8694
  192SLPC   H7X22285   3.465   1.639   7.494  0.6616  3.4447  0.5878
  192SLPC   H7Y22286   3.602   1.686   7.384 -0.8618  2.7063  2.8898
  192SLPC   C3822287   3.641   1.543   7.550 -0.2803  0.3785  0.0207
  192SLPC   H8X22288   3.730   1.511   7.492 -1.5952 -2.4882 -0.6127
  192SLPC   H8Y22289   3.600   1.452   7.598 -0.0386  1.1306  1.7328
  192SLPC   C3922290   3.676   1.632   7.667 -0.3281 -0.3512 -1.2847
  192SLPC   H9X22291   3.579   1.677   7.698  0.6069  0.0618  1.3099
  192SLPC   H9Y22292   3.727   1.728   7.644 -1.1596  0.5946  0.5738
  192SLPC  C31022293   3.736   1.561   7.796  0.0512 -0.0461 -0.2968
  192SLPC  H10X22294   3.822   1.504   7.755 -2.5897 -3.0485 -2.0825
  192SLPC  H10Y22295   3.664   1.489   7.838  1.5494 -0.6079  1.4262
  192SLPC  C31122296   3.760   1.673   7.898 -0.3783 -0.1661  0.2129
  192SLPC  H11X22297   3.698   1.763   7.881 -1.8405 -0.8691  1.5595
  192SLPC  H11Y22298   3.869   1.698   7.901 -0.2793 -0.6292  0.8326
  192SLPC  C31222299   3.715   1.615   8.027 -0.0210 -0.0223  0.6429
  192SLPC  H12X22300   3.716   1.504   8.030  0.3559 -0.0077  1.6516
  192SLPC  H12Y22301   3.611   1.652   8.015  0.2241 -0.1385 -2.7386
  192SLPC  C31322302   3.778   1.680   8.148 -0.3415  0.1510  0.4145
  192SLPC  H13X22303   3.715   1.658   8.236  1.0188 -0.9793  1.1578
  192SLPC  H13Y22304   3.796   1.790   8.145  0.4225  0.1103  2.3197
  192SLPC  C31422305   3.914   1.614   8.170  0.0251  0.0716  0.2334
  192SLPC  H14X22306   3.970   1.616   8.074 -0.2379 -0.6274  0.0606
  192SLPC  H14Y22307   3.899   1.505   8.184  1.6049  0.1171  2.9589
  192SLPC  C31522308   4.007   1.669   8.282  0.5481  0.0105 -0.4484
  192SLPC  H15X22309   3.962   1.631   8.376  1.3177 -1.9590 -0.8277
  192SLPC  H15Y22310   3.997   1.779   8.289  0.9593  0.0819 -0.8805
  192SLPC  C31622311   4.158   1.636   8.263  0.7074 -0.3293 -0.3291
  192SLPC  H16X22312   4.174   1.672   8.159  0.0245  0.6011 -0.1233
  192SLPC  H16Y22313   4.169   1.526   8.256  0.9701 -0.3645  0.5232
  192SLPC  C31722314   4.252   1.688   8.365 -0.0182  0.3350 -0.5479
  192SLPC  H17X22315   4.221   1.650   8.465  0.4938  0.3564 -0.3774
  192SLPC  H17Y22316   4.242   1.798   8.350 -1.4142  0.4571  0.9889
  192SLPC  C31822317   4.399   1.649   8.356  0.1775 -0.2758 -0.0790
  192SLPC  H18X22318   4.452   1.683   8.264  0.3673 -0.2195  0.0505
  192SLPC  H18Y22319   4.401   1.538   8.368  0.4416 -0.0320  2.5457
  192SLPC  H18Z22320   4.455   1.695   8.440  1.1669 -0.1346 -0.7888
  193SOD    SOD22321   4.248   4.430  12.790 -0.3016 -0.1295  0.2118
  194SOD    SOD22322   4.498   3.938  15.150  0.2821 -0.0695 -0.2212
  195SOD    SOD22323   6.450   5.398  11.611 -0.0726 -0.4321 -0.0193
  196SOD    SOD22324   1.817   1.384   3.485 -0.0920  0.0814 -0.4722
  197SOD    SOD22325   1.147   2.472  11.130 -0.8759  0.3072  0.2420
  198SOD    SOD22326   2.380   0.403   3.634 -0.3539  0.1792 -0.1676
  199SOD    SOD22327   0.198   5.153  17.173  0.2807  0.5082 -0.0412
  200SOD    SOD22328   6.399   1.834  14.979 -0.2487 -0.2288 -0.6009
  201SOD    SOD22329   3.309   1.855  16.486  0.0814  0.6081  0.3192
  202SOD    SOD22330   5.391   1.157   6.600  0.2598  0.3513 -0.5034
  203SOD    SOD22331   0.039   3.356   6.695 -0.2407 -0.5001  0.0802
  204SOD    SOD22332   4.659   3.009   3.028  0.3515  0.3902  0.0595
  205SOD    SOD22333   1.588   1.218  10.739 -0.2434  0.3345 -0.4458
  206SOD    SOD22334   5.480   4.139   6.531  0.6683  0.3512 -0.4842
  207SOD    SOD22335   3.043   2.452  16.097  0.1551 -0.2443  0.1603
  208SOD    SOD22336   3.710   0.554  11.396 -0.3233  0.7901 -0.2598
  209SOD    SOD22337   6.747   4.059   3.617  0.3770 -0.0496 -0.2257
  210SOD    SOD22338   6.335   3.243  13.669 -0.1536 -0.2469 -0.2486
  211SOD    SOD22339   2.318   3.761  12.266  0.4555 -0.6340  0.5085
  212SOD    SOD22340   0.618   5.892  16.913 -0.8905  0.8569 -0.8358
  213SOD    SOD22341   4.783   1.405  11.289  0.4337  0.1461  0.3742
  214SOD    SOD22342   1.673   4.149   4.115  0.2601 -0.1894  0.3517
  215SOD    SOD22343   5.465   4.131  11.250  0.0559 -1.0427 -0.1323
  216SOD    SOD22344   2.363   6.341   6.236 -0.0153  0.0647  0.0980
  217SOD    SOD22345   3.315   6.282  16.853 -0.3305  0.5262  0.1491
  218SOD    SOD22346   1.136   4.913  15.119  0.2018  0.0407  0.1955
  219SOD    SOD22347   6.726   3.411  16.447 -0.3051 -0.1477  0.4794
  220SOD    SOD22348   6.527   1.788   5.401  0.5146  0.4112  0.0275
  221SOD    SOD22349   1.384   6.306  14.827  0.0389  0.0517  0.2157
  222SOD    SOD22350   5.825   3.770  12.589  0.3877  0.1425 -0.5131
  223SOD    SOD22351   4.575   3.866  16.095  0.1544  0.3476  0.4457
  224SOD    SOD22352   4.435   5.373   0.227 -0.1036  0.3473 -0.0969
  225SOD    SOD22353   1.585   0.231  16.215  0.5307 -0.0443 -0.1887
  226SOD    SOD22354   5.920   1.614  15.719  0.1595 -0.2036  0.2838
  227SOD    SOD22355   3.943   3.548  11.103 -0.3045 -0.3818  0.2424
  228SOD    SOD22356   3.756   4.528  12.159  0.6737 -0.1975  0.0709
  229SOD    SOD22357   2.169   6.088  12.873 -0.0113 -0.4014  0.2019
  230SOD    SOD22358   5.090   1.845   0.734  0.7599 -0.1816  0.2008
  231SOD    SOD22359   0.002   3.465  14.453 -0.6415  0.0057  0.2797
  232SOD    SOD22360   2.015   0.880  17.040 -0.8663 -0.3967  0.0470
  233SOD    SOD22361   3.903   0.686   3.353  0.3443  0.2211  0.8695
  234SOD    SOD22362   5.581   0.056   1.034 -0.2023 -0.2846  0.2568
  235SOD    SOD22363   4.839   5.870  11.422  0.1859  0.1887 -0.5187
  236SOD    SOD22364   1.655   0.671  16.609 -0.3626 -0.1510  0.2358
  237SOD    SOD22365   4.154   0.729   2.167 -0.3291 -0.3729 -0.5566
  238SOD    SOD22366   5.971   1.693  16.323  0.0757  0.2371  0.4520
  239SOD    SOD22367   1.181   4.796   2.504 -0.4799 -0.3924 -0.4768
  240SOD    SOD22368   0.305   0.784  14.705  0.3449  0.1736 -0.3513
  241SOD    SOD22369   5.154   6.144   5.419 -0.2598  0.6165 -0.2862
  242SOD    SOD22370   6.317   6.358   6.298  0.4781  0.0711  0.0206
  243SOD    SOD22371   6.088   6.337   4.544 -0.1725 -0.1342  0.0503
  244SOD    SOD22372   4.741   3.067   0.809  0.1417 -0.0474 -0.1071
  245SOD    SOD22373   2.875   4.681   5.999 -0.2784  0.3802 -0.5142
  246SOD    SOD22374   5.649   3.719   1.050  0.9658 -0.4426 -0.2502
  247SOD    SOD22375   0.137   0.413   0.300  0.1263 -0.2791 -0.1504
  248SOD    SOD22376   0.228   0.970   4.072 -0.1929 -0.1006 -0.0793
  249SOD    SOD22377   6.546   4.822   6.802  0.1603 -0.1048 -0.3194
  250SOD    SOD22378   5.843   4.333  11.905 -0.4602 -0.2776  0.3176
  251SOD    SOD22379   1.008   3.456  13.888  0.0778 -0.5330 -0.2884
  252SOD    SOD22380   4.216   4.353  11.866  0.1339 -0.1214  0.1940
  253SOD    SOD22381   5.067   5.317  16.270 -0.4198 -0.0067  0.0223
  254SOD    SOD22382   5.377   1.522  13.946  0.4319 -0.0299  0.1930
  255SOD    SOD22383   1.840   1.687  14.609  0.4375  0.0026 -0.4178
  256SOD    SOD22384   0.643   2.504   6.688 -0.1622  0.0361 -0.1671
  257SOD    SOD22385   5.981   4.084  10.701  0.2555 -0.0364 -0.0853
  258SOD    SOD22386   1.364   4.734   5.683  0.1808  0.3062  0.0013
  259SOD    SOD22387   5.536   0.446  11.154 -0.2889 -0.0549 -0.0993
  260SOD    SOD22388   6.595   3.315   2.453  0.5471  0.6215  0.2631
  261SOD    SOD22389   4.940   5.953   1.596 -0.1109 -0.3766 -0.6726
  262SOD    SOD22390   2.348   6.768  16.122  0.1206  0.4229 -0.1418
  263SOD    SOD22391   6.426   5.866  12.362 -0.1719  0.5220 -0.1132
  264SOD    SOD22392   5.358   3.949  13.909 -0.1011 -0.2522 -0.1617
  265SOD    SOD22393   6.418   3.902   5.241 -0.3914 -0.1789 -0.3958
  266CLA    CLA22394   3.722   3.711  14.405 -0.3286 -0.3214 -0.1926
  267CLA    CLA22395   5.899   0.169  15.359 -0.2177 -0.2549 -0.0703
  268CLA    CLA22396   4.498   3.598  14.168 -0.2500 -0.3601 -0.0981
  269CLA    CLA22397   6.585   3.059   1.784  0.1780 -0.0966 -0.3166
  270CLA    CLA22398   5.192   3.804  16.341 -0.0728 -0.0864 -0.7202
  271CLA    CLA22399   6.783   5.649   3.953 -0.1182 -0.2290 -0.3010
  272CLA    CLA22400   6.206   3.600   3.528 -0.2024  0.2675 -0.3886
  273CLA    CLA22401   2.956   2.450  15.850  0.2446 -0.4822  0.1909
  274CLA    CLA22402   0.144   3.016  13.356 -0.2102  0.3477 -0.2370
  275CLA    CLA22403   2.728   6.431   4.231  0.2848 -0.2004  0.0931
  276CLA    CLA22404   1.463   6.509  15.813  0.1447  0.1241  0.3921
  277CLA    CLA22405   4.555   5.381  16.138  0.1831 -0.0135 -0.5210
  278CLA    CLA22406   2.225   6.403   1.770 -0.1356  0.0636  0.0168
  279CLA    CLA22407   5.519   0.439   1.788  0.0485  0.1582 -0.2341
  280CLA    CLA22408   5.799   1.284  16.094  0.7107 -0.2299  0.0708
  281CLA    CLA22409   4.025   4.083  12.045  0.1198  0.2052  0.3658
  282CLA    CLA22410   4.562   0.464  12.615  0.3613 -0.3906  0.2139
  283CLA    CLA22411   0.870   0.322   5.384  0.2101  0.3653  0.0028
  284CLA    CLA22412   1.005   3.742  16.813 -0.4710 -0.1811 -0.3184
  285CLA    CLA22413   4.303   4.329  15.055  0.1722 -0.0475 -0.4928
  286CLA    CLA22414   6.745   5.497  17.044 -0.3034  0.1290  0.1854
  287CLA    CLA22415   6.732   5.728   4.738 -0.3284  0.4038  0.1871
  288CLA    CLA22416   5.500   0.550  14.360  0.0348 -0.1885  0.0875
  289CLA    CLA22417   2.546   3.455  17.163  0.1174  0.1331  0.1007
  290CLA    CLA22418   4.243   0.777  12.035 -0.2200 -0.2767  0.4128
  291CLA    CLA22419   0.786   3.974  13.883  0.0467  0.1355 -0.0809
  292CLA    CLA22420   4.265   6.555   2.669  0.0999  0.3809  0.1714
  293CLA    CLA22421   1.968   2.579  11.633  0.0933  0.0189  0.3115
  294CLA    CLA22422   6.279   4.587  12.754 -0.1071 -0.3023  0.0017
  295CLA    CLA22423   4.982   5.835   5.082 -0.1737  0.2631 -0.0988
  296CLA    CLA22424   6.505   1.538   6.358  0.1424 -0.3707 -0.0320
  297CLA    CLA22425   5.564   2.718  16.438 -0.1740  0.3077  0.0277
  298CLA    CLA22426   5.150   0.172   1.802  0.1250 -0.5246 -0.3777
  299CLA    CLA22427   0.092   2.115  15.887  0.1685  0.1411  0.0521
  300CLA    CLA22428   2.889   1.526  12.529 -0.1032 -0.1273  0.1257
  301CLA    CLA22429   1.518   0.082   3.098 -0.2833 -0.5557  0.1712
  302CLA    CLA22430   2.056   4.209  13.841  0.0546  0.1131 -0.1484
  303CLA    CLA22431   5.013   2.946  15.843 -0.0388 -0.2720 -0.5455
  304CLA    CLA22432   3.267   1.873   0.701  0.0201 -0.4019 -0.2327
  305CLA    CLA22433   2.600   4.931   1.044  0.2584  0.2994 -0.1760
  306CLA    CLA22434   3.350   4.787  12.598  0.5634  0.3967  0.0253
  307CLA    CLA22435   2.456   1.147  17.138  0.2826  0.4444  0.0171
  308CLA    CLA22436   1.938   0.511  15.651 -0.1898 -0.0428  0.0617
  309CLA    CLA22437   1.743   0.435  16.146  0.0801 -0.0566 -0.0326
  310CLA    CLA22438   6.333   2.866  12.329  0.0738 -0.1323  0.1741
  311CLA    CLA22439   2.393   2.271  15.540 -0.2596  0.3384  0.1164
  312CLA    CLA22440   6.106   5.507  11.944  0.0448  0.1373  0.1863
  313CLA    CLA22441   2.055   2.540   0.968  0.3784  0.0542 -0.4448
  314CLA    CLA22442   5.702   3.105  13.672 -0.2063 -0.0861 -0.0862
  315CLA    CLA22443   2.202   5.177  12.565  0.1685  0.3348 -0.3188
  316CLA    CLA22444   2.053   5.207   1.970  0.6625  0.0261 -0.0853
  317CLA    CLA22445   3.694   5.006   0.667 -0.2665 -0.1997 -0.1966
  318CLA    CLA22446   5.598   1.730   4.118 -0.3439  0.0743 -0.1476
  319TIP3   OH222447   5.002   5.170  16.435  0.4883 -0.4079  0.2200
  319TIP3    H122448   5.087   5.138  16.463  1.0180 -0.8883 -1.7371
  319TIP3    H222449   4.948   5.091  16.429 -0.2647 -0.0564  1.8701
  320TIP3   OH222450   1.490   5.588  13.318 -0.2767  1.1311 -0.3703
  320TIP3    H122451   1.511   5.624  13.232 -0.3594  0.4692 -0.6710
  320TIP3    H222452   1.410   5.537  13.303  1.1538 -1.1643 -0.4742
  321TIP3   OH222453   0.652   6.253  13.967  0.1830 -0.0536  0.4951
  321TIP3    H122454   0.736   6.298  13.971  0.0956  0.0422  2.4845
  321TIP3    H222455   0.661   6.191  13.895  1.4963  0.8172 -0.1203
  322TIP3   OH222456   3.894   2.032  12.209  0.1447  0.2393  0.0823
  322TIP3    H122457   3.819   2.051  12.264  0.7606  0.3598  0.8944
  322TIP3    H222458   3.934   1.954  12.248  0.8553  0.5968  0.0854
  323TIP3   OH222459   3.177   2.211  11.071 -0.2111  0.0546 -0.1955
  323TIP3    H122460   3.095   2.183  11.030 -0.6444  0.4663  0.3683
  323TIP3    H222461   3.245   2.178  11.013 -0.8123  1.0514 -1.5303
  324TIP3   OH222462   0.627   4.055  11.892  0.2285 -0.0741  0.1930
  324TIP3    H122463   0.621   4.045  11.797  1.0278 -0.1017  0.1408
  324TIP3    H222464   0.601   4.146  11.907 -0.5938 -0.2718  0.0254
  325TIP3   OH222465   3.153   2.521  14.682 -0.1936 -0.4818  0.4457
  325TIP3    H122466   3.175   2.547  14.593 -2.2003 -1.2983 -0.3416
  325TIP3    H222467   3.231   2.477  14.714  0.7985  0.4140 -0.6477
  326TIP3   OH222468   6.785   4.128   3.399  0.0164 -0.4473  0.4119
  326TIP3    H122469   6.734   4.195   3.354 -1.1892 -1.2605  0.5286
  326TIP3    H222470   6.835   4.086   3.329  0.5927  0.3883  0.3055
  327TIP3   OH222471   0.650   0.507   2.208 -0.1857  0.6354  0.5087
  327TIP3    H122472   0.743   0.525   2.226  0.1903  0.1130 -0.7770
  327TIP3    H222473   0.607   0.592   2.215  0.2464  0.7753  1.8274
  328TIP3   OH222474   4.908   4.816   2.352 -0.7620 -0.0034 -0.6400
  328TIP3    H122475   4.910   4.724   2.375  0.0721 -0.0521 -0.8680
  328TIP3    H222476   4.842   4.822   2.283 -1.8557 -0.1743  0.3569
  329TIP3   OH222477   4.194   2.945   4.008 -0.2619 -0.8491 -0.2176
  329TIP3    H122478   4.191   3.040   3.998  2.5896 -0.5893  0.5654
  329TIP3    H222479   4.102   2.918   4.009 -1.1318  1.6220 -2.5056
  330TIP3   OH222480   1.161   1.359  13.689  0.1257 -0.2973 -0.2579
  330TIP3    H122481   1.228   1.312  13.639  1.3420  0.3178  0.7335
  330TIP3    H222482   1.125   1.423  13.627  1.7694  0.6147 -0.3380
  331TIP3   OH222483   4.361   0.432  15.650 -0.2757 -0.0840  0.2778
  331TIP3    H122484   4.313   0.495  15.596 -0.0558 -1.4758 -1.6569
  331TIP3    H222485   4.439   0.412  15.600  1.8676  1.2455  2.8385
  332TIP3   OH222486   5.394   4.363  15.475 -0.3282 -0.5546  0.6956
  332TIP3    H122487   5.320   4.302  15.475 -1.1800  0.4493 -0.2120
  332TIP3    H222488   5.447   4.336  15.550 -0.0764 -3.1395 -0.2952
  333TIP3   OH222489   5.514   4.820  14.477 -0.2957  0.1475 -0.0776
  333TIP3    H122490   5.553   4.907  14.484  0.2308 -0.1048  0.1693
  333TIP3    H222491   5.556   4.780  14.401 -0.1680 -0.0734  0.1062
  334TIP3   OH222492   2.103   2.738  14.367  0.5046 -0.0114  0.0299
  334TIP3    H122493   2.022   2.730  14.316  0.5496  1.1903 -0.2402
  334TIP3    H222494   2.167   2.772  14.306  0.7089  0.9035  0.7338
  335TIP3   OH222495   1.072   5.959  16.333  0.5869  0.0905 -0.8299
  335TIP3    H122496   1.089   6.009  16.253  0.1622 -0.8529 -1.5323
  335TIP3    H222497   1.069   5.867  16.304 -3.5331 -0.0506 -0.4942
  336TIP3   OH222498   4.966   5.483  15.938 -0.3152 -0.2232 -0.6192
  336TIP3    H122499   5.036   5.458  15.878 -1.3893 -1.0916 -1.5327
  336TIP3    H222500   4.904   5.411  15.936 -0.4288 -0.2687  1.5166
  337TIP3   OH222501   6.032   4.166  14.168  0.0547  0.1282  0.3860
  337TIP3    H122502   6.062   4.152  14.258  0.6501 -1.4642 -0.0325
  337TIP3    H222503   6.099   4.123  14.114 -1.8184 -1.5661 -0.6830
  338TIP3   OH222504   4.085   2.508   6.580  0.2641  0.0303 -0.0757
  338TIP3    H122505   3.992   2.504   6.600 -0.0563  1.3813 -1.1819
  338TIP3    H222506   4.089   2.517   6.484  1.5605 -0.7520 -0.1314
  339TIP3   OH222507   2.339   6.130   2.297 -0.1810  0.2220 -0.0696
  339TIP3    H122508   2.350   6.221   2.323 -0.7886 -0.0066  1.0125
  339TIP3    H222509   2.246   6.113   2.306 -0.0076 -0.6501  0.1968
  340TIP3   OH222510   5.519   2.865   4.820 -0.8255 -0.3698 -0.3153
  340TIP3    H122511   5.490   2.905   4.903  0.6741  2.4295 -1.0027
  340TIP3    H222512   5.566   2.786   4.847  0.1031  0.7581  1.6079
  341TIP3   OH222513   2.817   1.686   4.459 -0.3484 -0.0586  0.5397
  341TIP3    H122514   2.755   1.614   4.469  0.1401 -0.8038 -1.2765
  341TIP3    H222515   2.838   1.714   4.548 -2.8975 -0.0942  1.2259
  342TIP3   OH222516   1.595   6.435  12.875  0.1049 -0.2644 -0.0413
  342TIP3    H122517   1.519   6.486  12.849 -0.3287 -1.7573 -1.9238
  342TIP3    H222518   1.656   6.499  12.912 -1.1307  1.3052 -0.6257
  343TIP3   OH222519   5.564   2.836  15.268 -0.1960  0.0946 -0.1836
  343TIP3    H122520   5.481   2.824  15.222 -1.1342  0.9821  1.1732
  343TIP3    H222521   5.592   2.925  15.246  0.9208 -0.5360 -1.3996
  344TIP3   OH222522   3.009   2.230   4.251 -0.5393  0.0199  0.5380
  344TIP3    H122523   3.029   2.137   4.249 -1.8733 -0.3286  1.7249
  344TIP3    H222524   3.041   2.260   4.337 -3.3230 -0.1993  1.7506
  345TIP3   OH222525   6.199   5.400   2.745  0.4202  0.1397 -0.7648
  345TIP3    H122526   6.169   5.440   2.663  0.9678 -1.3894 -1.7612
  345TIP3    H222527   6.125   5.345   2.773  0.3973  0.3275 -0.4475
  346TIP3   OH222528   4.904   3.190   2.421  0.5681 -0.5582  0.0029
  346TIP3    H122529   4.834   3.158   2.477  1.2378 -1.1882  0.4945
  346TIP3    H222530   4.882   3.282   2.404  0.5468 -0.2458  1.5974
  347TIP3   OH222531   3.367   3.463   2.807  0.3328  0.1304  0.2991
  347TIP3    H122532   3.274   3.439   2.802  0.2581  0.3703  0.4920
  347TIP3    H222533   3.381   3.519   2.731  0.6875 -1.0918 -0.5644
  348TIP3   OH222534   3.428   4.685  11.087  0.0080  0.1104  0.3780
  348TIP3    H122535   3.407   4.605  11.135 -1.5965 -0.8465 -1.7202
  348TIP3    H222536   3.481   4.656  11.013  0.6996  1.2324  0.4019
  349TIP3   OH222537   3.099   5.840   2.872  0.0181  0.3356  0.0813
  349TIP3    H122538   3.040   5.888   2.815  0.1416  0.9187  0.4400
  349TIP3    H222539   3.145   5.780   2.813 -0.7207  0.0736 -0.2394
  350TIP3   OH222540   0.562   2.459  13.372 -0.6282 -0.0228 -0.1160
  350TIP3    H122541   0.471   2.467  13.403 -1.0481 -0.7839 -1.0686
  350TIP3    H222542   0.560   2.495  13.283 -0.3140 -1.2399 -0.6403
  351TIP3   OH222543   1.199   5.848  11.865 -0.5596  0.0476 -0.6393
  351TIP3    H122544   1.174   5.897  11.787  3.2979 -0.8467 -2.6714
  351TIP3    H222545   1.203   5.757  11.837  1.8192 -0.1951  0.1815
  352TIP3   OH222546   5.822   0.522   0.321 -0.2066 -0.0059 -0.6833
  352TIP3    H122547   5.900   0.474   0.349 -0.3816 -0.3786 -0.8353
  352TIP3    H222548   5.826   0.521   0.225 -0.7141 -0.5420 -0.7016
  353TIP3   OH222549   3.549   0.353  12.314 -0.1335  0.3326 -0.0713
  353TIP3    H122550   3.632   0.353  12.267  0.0471 -0.3036  0.2437
  353TIP3    H222551   3.554   0.278  12.373 -1.4809 -0.5926 -1.0505
  354TIP3   OH222552   4.465   5.479  15.277 -0.0090  0.3381 -0.2724
  354TIP3    H122553   4.427   5.395  15.303 -1.3344  1.4780  1.7413
  354TIP3    H222554   4.448   5.537  15.351  4.9069  1.2617  0.4765
  355TIP3   OH222555   5.885   6.501   2.672 -0.1728 -0.2660  0.1541
  355TIP3    H122556   5.879   6.463   2.760  0.3595 -0.6742  0.0171
  355TIP3    H222557   5.810   6.465   2.625 -0.2369 -0.3561  0.3244
  356TIP3   OH222558   2.785   1.846   3.180  0.4843  0.1649  0.4954
  356TIP3    H122559   2.710   1.847   3.121  0.6545 -1.9122  0.1540
  356TIP3    H222560   2.859   1.823   3.124  1.2741  1.4596  0.9585
  357TIP3   OH222561   1.340   1.850   0.134  0.0542 -1.0264 -0.3969
  357TIP3    H122562   1.267   1.799   0.168  1.1826 -0.2039  3.9241
  357TIP3    H222563   1.301   1.934   0.110 -0.5188 -0.3975  2.3541
  358TIP3   OH222564   0.533   5.647  14.595  0.5562 -0.0866 -0.6675
  358TIP3    H122565   0.513   5.664  14.687 -1.7281  0.0139 -1.1171
  358TIP3    H222566   0.575   5.726  14.564  1.2329 -0.0737  0.2489
  359TIP3   OH222567   6.011   4.122  12.891  0.4956  0.3842 -0.3021
  359TIP3    H122568   6.057   4.194  12.848 -0.0223  1.3702  0.7389
  359TIP3    H222569   6.079   4.057  12.908  0.8283  0.2550 -1.9675
  360TIP3   OH222570   2.398   5.149  13.219  0.4119  0.1436  0.4290
  360TIP3    H122571   2.342   5.106  13.154  1.3115  0.5233 -0.6102
  360TIP3    H222572   2.399   5.088  13.293 -0.8506 -0.1659  0.2145
  361TIP3   OH222573   0.775   4.984   3.165  0.8500  0.3906  0.0630
  361TIP3    H122574   0.770   4.926   3.240  0.8694  0.3825  0.0579
  361TIP3    H222575   0.863   5.022   3.170  0.7334  0.6430  0.2323
  362TIP3   OH222576   5.153   2.625   4.552 -0.2181 -0.0548 -0.2923
  362TIP3    H122577   5.125   2.617   4.644 -0.7487  0.5396 -0.3937
  362TIP3    H222578   5.244   2.655   4.558  0.6290 -2.4668  0.0458
  363TIP3   OH222579   4.303   3.679  11.422  0.2830 -0.1882  0.3393
  363TIP3    H122580   4.378   3.736  11.439  0.4591 -0.3635  0.1585
  363TIP3    H222581   4.307   3.612  11.491  1.0068 -0.9097 -0.3752
  364TIP3   OH222582   5.269   6.649  13.701  0.0843 -0.2643  0.3835
  364TIP3    H122583   5.335   6.601  13.651  0.3314 -0.3801  0.8180
  364TIP3    H222584   5.185   6.614  13.671  0.2803 -3.0855  2.7428
  365TIP3   OH222585   3.139   3.087   0.894 -0.4855  0.0974  0.3439
  365TIP3    H122586   3.117   3.174   0.926  0.8516  0.2768  0.8472
  365TIP3    H222587   3.229   3.096   0.860 -0.5589 -0.9393 -0.1548
  366TIP3   OH222588   0.886   2.281   6.046  0.4878  0.3309  0.4663
  366TIP3    H122589   0.943   2.353   6.072 -0.0139  1.2632 -0.8609
  366TIP3    H222590   0.814   2.283   6.108  0.8271  0.5266  0.8555
  367TIP3   OH222591   2.185   4.574  13.797  0.4148 -0.3443 -0.0735
  367TIP3    H122592   2.180   4.492  13.749 -0.1924  1.1394 -2.7505
  367TIP3    H222593   2.130   4.635  13.746  0.0423  1.4859  2.3251
  368TIP3   OH222594   3.240   3.304  14.769 -0.4105 -0.4903 -0.2444
  368TIP3    H122595   3.232   3.379  14.827 -0.2592 -1.5872  1.2582
  368TIP3    H222596   3.185   3.326  14.693 -1.9569  0.3286  1.0490
  369TIP3   OH222597   5.397   4.950  11.784  0.2126  0.5380 -0.5554
  369TIP3    H122598   5.439   5.024  11.741  1.5884  1.6696  2.4582
  369TIP3    H222599   5.308   4.981  11.804  0.7477  1.3975  0.5990
  370TIP3   OH222600   2.691   1.140   2.934 -0.2752 -0.7414  0.5245
  370TIP3    H122601   2.786   1.131   2.930 -0.1979 -0.1803  0.9583
  370TIP3    H222602   2.660   1.109   2.848  0.3848  0.1372 -0.0471
  371TIP3   OH222603   1.631   2.104   2.689  0.2665  0.1847 -0.3150
  371TIP3    H122604   1.556   2.065   2.645 -0.5182  0.5148  0.7152
  371TIP3    H222605   1.707   2.061   2.649 -0.5367 -2.1496  0.5043
  372TIP3   OH222606   0.934   0.630   0.436 -0.0166 -0.0819  0.3874
  372TIP3    H122607   0.840   0.645   0.428 -0.6336 -3.2594  0.1084
  372TIP3    H222608   0.944   0.572   0.512  1.6795  0.0200  0.2971
  373TIP3   OH222609   3.786   6.676  12.294 -0.2370 -0.7008  0.1416
  373TIP3    H122610   3.716   6.617  12.265  0.3278 -0.2906 -2.3513
  373TIP3    H222611   3.858   6.658  12.233  0.1221  2.2120 -0.4519
  374TIP3   OH222612   5.376   5.015   2.372  0.1498 -0.3998  0.7082
  374TIP3    H122613   5.470   5.019   2.356  0.2587 -1.4070  1.0464
  374TIP3    H222614   5.337   5.011   2.284  0.2826  1.8346  0.4771
  375TIP3   OH222615   6.691   4.947  15.289 -0.5826 -0.0016 -0.4856
  375TIP3    H122616   6.668   4.945  15.196  1.7694 -0.9106 -1.1280
  375TIP3    H222617   6.770   4.892  15.295 -2.6437 -3.0129  2.6631
  376TIP3   OH222618   0.135   6.290   2.024  0.3355  0.1444  0.2965
  376TIP3    H122619   0.125   6.370   2.075  1.5732  0.0355  0.7358
  376TIP3    H222620   0.141   6.321   1.933  1.7353  0.6548  0.5349
  377TIP3   OH222621   4.990   6.186  14.368  0.2464 -0.3226 -0.3368
  377TIP3    H122622   4.974   6.112  14.426  3.9546 -0.3282  0.9288
  377TIP3    H222623   4.934   6.256  14.403 -1.2128 -1.6714  0.1648
  378TIP3   OH222624   3.605   0.035   0.809  0.9688 -0.0601 -0.6017
  378TIP3    H122625   3.528   0.065   0.858  1.2805  0.5117 -0.4564
  378TIP3    H222626   3.655  -0.017   0.872  0.5678 -0.6713 -0.7757
  379TIP3   OH222627   4.949   5.873  12.270 -0.4185  0.4944  0.2443
  379TIP3    H122628   4.958   5.937  12.200 -0.0940 -0.7194 -0.8589
  379TIP3    H222629   5.031   5.881  12.320 -0.0167  0.3922 -0.3806
  380TIP3   OH222630   4.397   4.364   5.754  0.3559  0.2791 -0.4743
  380TIP3    H122631   4.389   4.288   5.811  1.3627  0.2079 -0.4071
  380TIP3    H222632   4.411   4.437   5.815 -1.1334  0.6186 -0.5078
  381TIP3   OH222633   0.508   4.029   0.407 -0.2746 -0.1966 -0.0451
  381TIP3    H122634   0.453   3.956   0.435 -0.1029 -0.0684  0.6402
  381TIP3    H222635   0.460   4.068   0.334 -0.6196 -0.6737 -0.0803
  382TIP3   OH222636   0.224   0.736   4.043 -0.2512 -0.2650 -0.3146
  382TIP3    H122637   0.156   0.675   4.014  0.0998 -0.5293 -0.5887
  382TIP3    H222638   0.304   0.705   4.000  0.8347 -2.1219  2.7616
  383TIP3   OH222639   0.229   5.803   0.798 -0.1949  0.3669 -0.0903
  383TIP3    H122640   0.155   5.743   0.809  0.3528 -0.5224 -1.0785
  383TIP3    H222641   0.242   5.842   0.884 -1.5846  0.2715  0.1806
  384TIP3   OH222642   2.126   1.051   0.112  0.1350  0.2339 -0.4619
  384TIP3    H122643   2.214   1.066   0.146  0.4690  0.6044 -1.4503
  384TIP3    H222644   2.122   0.957   0.093 -0.7741 -0.4255  2.4919
  385TIP3   OH222645   1.113   3.020  15.156  0.4688 -0.4045  0.7455
  385TIP3    H122646   1.190   3.067  15.126 -0.0377  0.0862  0.1714
  385TIP3    H222647   1.103   2.948  15.093 -0.6693  0.7000 -0.4059
  386TIP3   OH222648   5.124   0.777   1.305 -0.5147  0.1670 -0.0573
  386TIP3    H122649   5.168   0.781   1.390  2.8559 -0.9243 -1.5828
  386TIP3    H222650   5.120   0.684   1.285  0.5140  0.4801 -1.8766
  387TIP3   OH222651   1.036   0.037  13.519  0.0719  0.4165  0.1793
  387TIP3    H122652   0.992   0.028  13.604  0.4736  0.6240  0.4116
  387TIP3    H222653   0.972   0.078  13.463 -0.0423  0.6931  0.5098
  388TIP3   OH222654   3.977   0.008  13.521  0.3933  0.4226  0.5574
  388TIP3    H122655   3.992   0.019  13.615  0.6261 -0.2448  0.6042
  388TIP3    H222656   4.047  -0.051  13.493 -1.1680 -1.4741  0.4659
  389TIP3   OH222657   0.039   6.341   3.766 -0.5545 -0.1862 -0.1577
  389TIP3    H122658   0.029   6.386   3.682 -0.2910  1.2364  0.5513
  389TIP3    H222659   0.107   6.390   3.812 -1.0343 -0.6426  1.0844
  390TIP3   OH222660   4.564   0.109   1.762  0.6042  0.0406  0.3585
  390TIP3    H122661   4.558   0.051   1.837 -1.6478  0.4526  0.5687
  390TIP3    H222662   4.615   0.060   1.697  0.4348 -1.3350  1.2261
  391TIP3   OH222663   5.340   3.176   1.813 -0.2796 -0.5379 -0.2793
  391TIP3    H122664   5.344   3.080   1.813  0.3993 -0.5552 -2.2085
  391TIP3    H222665   5.263   3.197   1.760 -0.2416 -0.0144 -0.1343
  392TIP3   OH222666   4.556   2.283  11.415 -0.1605  0.4621 -0.6698
  392TIP3    H122667   4.621   2.245  11.475 -0.5121  1.1193  0.1454
  392TIP3    H222668   4.604   2.296  11.333  0.1553 -1.0391 -0.7461
  393TIP3   OH222669   5.433   3.946   4.820  0.5783  0.3483  0.6779
  393TIP3    H122670   5.353   3.995   4.837 -0.0800 -0.6436  0.5309
  393TIP3    H222671   5.403   3.864   4.781  1.7496  0.4702 -0.5387
  394TIP3   OH222672   1.699   5.952  16.709  0.7018 -0.2996  0.4207
  394TIP3    H122673   1.759   6.024  16.726 -0.3553  0.7840 -0.2815
  394TIP3    H222674   1.706   5.896  16.787  2.4893 -0.1385  0.4075
  395TIP3   OH222675   2.540   2.394   4.644  0.0536  0.1108 -0.1340
  395TIP3    H122676   2.549   2.457   4.715 -1.0006  1.0488 -0.7993
  395TIP3    H222677   2.508   2.314   4.687 -0.1055  0.5144  0.5111
  396TIP3   OH222678   0.865   2.561   6.690 -0.1565 -0.0819  0.1631
  396TIP3    H122679   0.934   2.627   6.682  0.2264 -0.5156 -0.1364
  396TIP3    H222680   0.911   2.478   6.686 -0.9453 -0.4731 -2.9357
  397TIP3   OH222681   5.244   3.995   1.620 -0.5082  0.0217  0.0452
  397TIP3    H122682   5.259   3.915   1.568 -0.4041 -0.0973  0.2543
  397TIP3    H222683   5.179   3.969   1.685 -0.1959 -0.0039  0.3550
  398TIP3   OH222684   4.165   5.432   3.355 -0.0132 -0.1556 -0.0046
  398TIP3    H122685   4.118   5.516   3.352  0.0998 -0.0077  1.5867
  398TIP3    H222686   4.221   5.434   3.277 -1.0189  0.6285 -0.7379
  399TIP3   OH222687   3.883   5.274  16.850  0.1756 -0.4910  0.1953
  399TIP3    H122688   3.900   5.272  16.756 -0.4495 -0.3603  0.0748
  399TIP3    H222689   3.803   5.222  16.861  0.2754 -0.5506  0.6622
  400TIP3   OH222690   0.179   3.485   6.557 -0.6786  0.0082 -0.1654
  400TIP3    H122691   0.209   3.449   6.473  2.3404  2.6189 -0.4038
  400TIP3    H222692   0.122   3.558   6.533  0.9592  1.3738 -0.0709
  401TIP3   OH222693   1.221   2.805   1.969  0.7777  0.7815  0.1159
  401TIP3    H122694   1.150   2.759   1.924  2.6850  0.1819 -2.5852
  401TIP3    H222695   1.183   2.890   1.993 -0.5177  1.0530 -2.5136
  402TIP3   OH222696   1.214   3.705   5.255 -0.3867 -0.7032  0.3387
  402TIP3    H122697   1.176   3.668   5.174 -0.2069 -0.6985  0.2516
  402TIP3    H222698   1.205   3.634   5.319 -0.7533 -0.6206  0.3822
  403TIP3   OH222699   4.980   2.193   4.276  0.3443 -0.2152 -1.1144
  403TIP3    H122700   4.956   2.144   4.355  3.4245 -1.5760 -0.8755
  403TIP3    H222701   5.045   2.138   4.232 -0.8135  0.7756 -4.3533
  404TIP3   OH222702   1.680   4.815   3.826  0.0380  0.0751  0.0303
  404TIP3    H122703   1.699   4.894   3.876  1.5792  0.2185 -0.7174
  404TIP3    H222704   1.759   4.761   3.834 -0.5100 -0.8471 -0.4870
  405TIP3   OH222705   2.942   5.623  15.351  0.5348  0.7890  0.7818
  405TIP3    H122706   3.035   5.638  15.369  0.9839 -0.6328 -0.2081
  405TIP3    H222707   2.927   5.532  15.376 -0.8358  1.2597  1.7877
  406TIP3   OH222708   1.316   2.961   4.118  0.5855 -0.1780  0.1814
  406TIP3    H122709   1.403   2.923   4.130  1.0328  0.7926  0.1493
  406TIP3    H222710   1.331   3.034   4.057 -0.7273 -1.7792 -2.2246
  407TIP3   OH222711   0.145   6.603  13.205 -0.2536 -0.1581 -0.4005
  407TIP3    H122712   0.067   6.650  13.234  0.5603  0.3181  1.1263
  407TIP3    H222713   0.205   6.671  13.176 -0.1584 -0.4851 -1.0022
  408TIP3   OH222714   6.252   0.535  15.130  0.7960  0.5049 -0.8016
  408TIP3    H122715   6.232   0.520  15.038  1.1404  0.2901 -0.8413
  408TIP3    H222716   6.258   0.631  15.138 -1.0991  0.6434 -0.6051
  409TIP3   OH222717   1.394   6.793   2.717  0.1306 -0.6099 -0.1494
  409TIP3    H122718   1.349   6.836   2.644  0.5286 -0.7712 -0.4872
  409TIP3    H222719   1.403   6.862   2.783 -1.1920 -0.7266  0.1952
  410TIP3   OH222720   5.940   1.749  15.515 -0.0316  0.4914 -1.0132
  410TIP3    H122721   6.001   1.821  15.497  2.6057 -1.3577 -0.1267
  410TIP3    H222722   5.929   1.704  15.432  2.2036 -0.8007 -0.6900
  411TIP3   OH222723   0.167   4.523  11.724  0.0621  0.2488 -0.4064
  411TIP3    H122724   0.196   4.566  11.644  0.6797  0.3309 -0.1480
  411TIP3    H222725   0.179   4.430  11.706 -0.2440  0.2390 -0.5735
  412TIP3   OH222726   3.907   5.183  14.574  0.0849 -0.0437 -0.4663
  412TIP3    H122727   3.854   5.110  14.606 -0.8102  0.5595 -0.5243
  412TIP3    H222728   3.933   5.230  14.653  0.8154 -0.5108 -0.4165
  413TIP3   OH222729   5.842   1.854  15.786 -0.4244  0.3145  0.3593
  413TIP3    H122730   5.751   1.883  15.783 -0.7433 -0.6952 -0.1523
  413TIP3    H222731   5.889   1.914  15.727 -0.8323  0.5742  0.2983
  414TIP3   OH222732   5.716   0.994   0.425 -0.0143  0.2873  0.0048
  414TIP3    H122733   5.739   1.086   0.411  2.3586 -0.1273  0.7591
  414TIP3    H222734   5.714   0.956   0.337 -0.0597  0.8348 -0.2333
  415TIP3   OH222735   0.929   0.201  15.174 -0.2046 -0.4574 -0.3769
  415TIP3    H122736   0.908   0.290  15.204 -1.8648 -1.0295  0.2449
  415TIP3    H222737   1.023   0.192  15.191  0.0482  1.2582 -0.6882
  416TIP3   OH222738   2.503   2.029  14.423  0.4489  0.3311 -0.0548
  416TIP3    H122739   2.492   2.029  14.518  1.6268  1.8748  0.1252
  416TIP3    H222740   2.437   1.968  14.391  0.1170 -0.3280  1.7605
  417TIP3   OH222741   2.772   6.092   3.052 -0.5561 -0.2137  0.4040
  417TIP3    H122742   2.766   6.028   2.980 -1.3282  0.8141 -0.4740
  417TIP3    H222743   2.798   6.173   3.009  1.1750 -0.0775  1.6107
  418TIP3   OH222744   3.674   1.107   5.598  0.2543 -0.1443  0.4395
  418TIP3    H122745   3.685   1.015   5.621 -1.2907 -0.3552  0.4221
  418TIP3    H222746   3.600   1.137   5.652  0.4540  0.9623  0.1221
  419TIP3   OH222747   3.814   4.886   4.126  0.2133  0.3863 -0.2279
  419TIP3    H122748   3.806   4.972   4.084  0.1657 -0.5354 -2.2607
  419TIP3    H222749   3.839   4.828   4.054  0.5068 -1.2534  1.1582
  420TIP3   OH222750   3.524   2.689  14.344  0.1573 -0.0063  1.0854
  420TIP3    H122751   3.514   2.779  14.375  1.2663 -0.3848  2.6447
  420TIP3    H222752   3.556   2.699  14.254 -0.3991  1.1336  0.9882
  421TIP3   OH222753   6.388   2.972   3.043 -0.0401 -0.0913  0.0026
  421TIP3    H122754   6.387   2.898   3.103  0.4752 -0.4843 -0.4608
  421TIP3    H222755   6.357   2.936   2.960  0.2313  0.2017 -0.2307
  422TIP3   OH222756   3.035   1.168   5.566  0.0806  0.1128 -0.7344
  422TIP3    H122757   3.035   1.082   5.608  0.5537  0.4341 -0.0749
  422TIP3    H222758   3.002   1.228   5.633 -1.9836  0.1950 -1.7383
  423TIP3   OH222759   4.459   2.084  13.297  0.5153 -0.8032  0.1654
  423TIP3    H122760   4.538   2.037  13.271  0.5998 -0.2828 -0.5719
  423TIP3    H222761   4.428   2.125  13.216  0.1217 -0.0777  0.6672
  424TIP3   OH222762   3.319   0.937   4.495  0.0945 -0.1056  0.4418
  424TIP3    H122763   3.280   1.013   4.451 -0.8214 -0.9171 -0.1818
  424TIP3    H222764   3.378   0.899   4.429  0.9927  0.3623  0.9446
  425TIP3   OH222765   2.418   2.093  11.787  0.3774  0.1055 -0.2950
  425TIP3    H122766   2.431   2.183  11.754  1.5890 -0.3054 -0.9808
  425TIP3    H222767   2.465   2.091  11.870  0.4471  0.0613 -0.3363
  426TIP3   OH222768   2.171   6.099  12.385  0.1867  0.2323  0.6059
  426TIP3    H122769   2.126   6.171  12.341  0.0742  1.6709  2.8839
  426TIP3    H222770   2.130   6.020  12.351  0.2948  1.1973 -1.9629
  427TIP3   OH222771   3.456   3.043   3.611  0.2983 -0.2585  0.6577
  427TIP3    H122772   3.453   3.121   3.555 -1.6198 -1.0242 -0.4165
  427TIP3    H222773   3.523   3.062   3.676  0.2173  2.0885  0.1326
  428TIP3   OH222774   6.607   0.361   0.606 -0.5578 -0.3334  0.5269
  428TIP3    H122775   6.544   0.349   0.677 -2.2031  1.9245 -0.4561
  428TIP3    H222776   6.579   0.299   0.539 -0.7832 -0.4000  0.6803
  429TIP3   OH222777   5.396   1.786   3.353  0.1591 -0.1474 -0.5647
  429TIP3    H122778   5.303   1.794   3.371  0.1677 -2.1960  0.7423
  429TIP3    H222779   5.423   1.706   3.398  2.7080  0.7589 -0.2696
  430TIP3   OH222780   5.146   6.079  15.726  0.2546 -0.3496 -0.3801
  430TIP3    H122781   5.227   6.075  15.674  0.5001 -0.2561 -0.0079
  430TIP3    H222782   5.126   5.988  15.747  0.7381 -0.3184  0.2495
  431TIP3   OH222783   6.260   2.986   4.886  0.3076  0.0744 -0.0720
  431TIP3    H122784   6.211   2.987   4.804  1.1061  1.0712 -0.5696
  431TIP3    H222785   6.268   2.893   4.908 -3.0620 -0.1136  0.8645
  432TIP3   OH222786   3.685   3.427   6.499 -0.2693  0.2342 -0.3211
  432TIP3    H122787   3.639   3.499   6.457 -0.2718  2.1800  2.7017
  432TIP3    H222788   3.774   3.431   6.465 -0.6334  0.7456 -1.2236
  433TIP3   OH222789   4.197   0.206  11.213  0.7987  0.2966  0.8448
  433TIP3    H122790   4.239   0.217  11.128  0.0075  0.8659  0.5106
  433TIP3    H222791   4.261   0.238  11.277  0.6077  1.8416  0.2937
  434TIP3   OH222792   2.081   0.407   5.015 -0.0631 -0.1022 -0.8296
  434TIP3    H122793   2.048   0.324   4.979 -0.3549 -0.0164 -0.7597
  434TIP3    H222794   2.121   0.382   5.099 -2.7109  0.2065  0.6339
  435TIP3   OH222795   1.148   6.410   1.105 -0.2912  0.2284 -0.3248
  435TIP3    H122796   1.123   6.377   1.191 -0.8433  0.6201 -0.3316
  435TIP3    H222797   1.119   6.341   1.044 -1.4409  0.6973 -0.3388
  436TIP3   OH222798   5.469   5.584  13.563  0.4364 -0.3912 -0.2931
  436TIP3    H122799   5.517   5.616  13.640 -1.3758 -3.2484  2.2577
  436TIP3    H222800   5.391   5.639  13.559 -0.5321 -1.5344  1.3840
  437TIP3   OH222801   2.751   5.350   3.082  0.6262 -0.3117  0.1321
  437TIP3    H122802   2.665   5.351   3.040  1.8999 -1.9747 -2.8429
  437TIP3    H222803   2.793   5.431   3.053  0.2650  0.2765  1.2061
  438TIP3   OH222804   2.584   5.600   2.345  0.4716 -0.2513 -0.0160
  438TIP3    H122805   2.527   5.671   2.374 -0.4745 -0.1727 -1.8940
  438TIP3    H222806   2.566   5.592   2.251  1.5290 -2.1005 -0.1080
  439TIP3   OH222807   1.273   4.071   0.187 -0.2020 -0.3908  0.1891
  439TIP3    H122808   1.233   4.086   0.272 -0.3813 -4.8023  1.0831
  439TIP3    H222809   1.212   4.012   0.141  1.0611 -0.0976 -2.0277
  440TIP3   OH222810   4.434   2.673  15.882 -0.6141  0.2822  0.2485
  440TIP3    H122811   4.528   2.658  15.891 -0.5273  1.1244  0.8299
  440TIP3    H222812   4.417   2.665  15.788  0.0084 -0.0202  0.1607
  441TIP3   OH222813   0.336   2.754   4.999 -0.4473 -0.1519  0.2805
  441TIP3    H122814   0.368   2.701   4.927 -1.7387 -1.6111  0.7135
  441TIP3    H222815   0.278   2.819   4.958 -0.5095 -0.4341 -0.0760
  442TIP3   OH222816   6.462   3.646  12.230  0.1562 -0.1348 -0.3259
  442TIP3    H122817   6.550   3.663  12.197 -0.1364  0.8512 -0.6414
  442TIP3    H222818   6.405   3.701  12.176 -0.5770 -0.2165  0.3420
  443TIP3   OH222819   6.210   1.344   4.955 -0.1399 -0.1527 -0.8667
  443TIP3    H122820   6.210   1.412   5.022  1.6917  0.5461 -1.4936
  443TIP3    H222821   6.209   1.393   4.872  0.4673 -0.8837 -1.3211
  444TIP3   OH222822   6.715   6.405  11.921  0.4872 -0.1556  0.2934
  444TIP3    H122823   6.729   6.492  11.883 -0.3133  0.5088  1.4525
  444TIP3    H222824   6.674   6.355  11.850  0.2119  0.6605 -0.1419
  445TIP3   OH222825   1.545   3.368   0.112 -0.3068 -0.5500 -0.4397
  445TIP3    H122826   1.463   3.383   0.064 -1.7692 -0.8506  1.7857
  445TIP3    H222827   1.549   3.440   0.175 -0.0102 -1.7042  0.9108
  446TIP3   OH222828   4.583   1.988   6.269 -0.0109  0.2674  0.2306
  446TIP3    H122829   4.676   1.991   6.291  0.5430 -0.1333 -1.8200
  446TIP3    H222830   4.552   2.078   6.279  0.3361  0.2413  1.7985
  447TIP3   OH222831   1.333   6.541   0.176  0.1181 -0.0721  0.5250
  447TIP3    H122832   1.392   6.592   0.232  0.4666 -0.3943  0.4485
  447TIP3    H222833   1.373   6.454   0.172  0.1196 -0.0344 -0.2757
  448TIP3   OH222834   1.640   5.675  11.819  0.5075 -0.1911 -0.5192
  448TIP3    H122835   1.580   5.748  11.830 -2.1372 -2.3125 -0.0142
  448TIP3    H222836   1.715   5.697  11.874 -0.5343  1.7640  0.2132
  449TIP3   OH222837   0.004   4.774   3.975 -0.2018  0.4194 -0.0229
  449TIP3    H122838  -0.002   4.864   4.008  1.2106  0.2088  0.8773
  449TIP3    H222839  -0.003   4.719   4.053  0.7994 -0.1726 -0.3329
  450TIP3   OH222840   2.239   5.575   2.350  0.4223 -0.7303 -0.4305
  450TIP3    H122841   2.270   5.532   2.271  1.2380 -0.3611 -0.3252
  450TIP3    H222842   2.284   5.659   2.351 -0.8539 -0.0199 -0.4385
  451TIP3   OH222843   5.493   3.187   0.537  0.3764 -0.2230 -0.2855
  451TIP3    H122844   5.513   3.266   0.488  0.4321 -1.0280 -1.5870
  451TIP3    H222845   5.458   3.219   0.621  2.3899  1.1759  0.0893
  452TIP3   OH222846   3.554   3.000  13.616 -0.1529  0.4111  0.0516
  452TIP3    H122847   3.525   2.910  13.603 -0.9118  0.4678  1.1714
  452TIP3    H222848   3.647   2.999  13.593 -0.2246 -0.5814 -0.2387
  453TIP3   OH222849   5.888   2.135  11.068 -0.1680  0.4305  0.2285
  453TIP3    H122850   5.866   2.221  11.105 -0.5603 -0.5328  2.4004
  453TIP3    H222851   5.984   2.132  11.070 -0.0776  1.3589 -1.2808
  454TIP3   OH222852   3.758   1.480  14.747  0.2852 -0.0368  0.4567
  454TIP3    H122853   3.835   1.442  14.790  0.3957  1.0162  1.2382
  454TIP3    H222854   3.726   1.410  14.690  0.7124 -1.1530  1.5295
  455TIP3   OH222855   2.526   5.125  10.363  0.1690  0.3165 -0.4535
  455TIP3    H122856   2.610   5.154  10.328  1.9061 -2.5458  0.9779
  455TIP3    H222857   2.510   5.182  10.438  1.0621  0.6355 -0.4883
  456TIP3   OH222858   0.547   3.885  16.159 -0.1814  0.3635 -0.3804
  456TIP3    H122859   0.594   3.872  16.077 -0.1549  1.5376 -0.5681
  456TIP3    H222860   0.501   3.968  16.147  0.0412  0.6830  0.8926
  457TIP3   OH222861   4.161   3.867   2.982 -0.3272 -0.0297 -0.0543
  457TIP3    H122862   4.066   3.858   2.981 -0.6100  2.4599 -0.6335
  457TIP3    H222863   4.184   3.865   3.075 -0.8330 -1.3031  0.0653
  458TIP3   OH222864   6.102   6.623   4.147 -0.0022  0.9014  0.2660
  458TIP3    H122865   6.046   6.585   4.079 -0.2431  1.7243 -0.0045
  458TIP3    H222866   6.188   6.583   4.133 -0.6731 -1.0419  1.2130
  459TIP3   OH222867   0.137   0.510   5.188  0.2769  0.2469  0.3488
  459TIP3    H122868   0.123   0.492   5.281 -2.6206  0.7863  0.1411
  459TIP3    H222869   0.194   0.587   5.187 -1.5185  1.7078  1.8519
  460TIP3   OH222870   5.652   2.135  12.940 -0.6937 -0.7074  0.1990
  460TIP3    H122871   5.722   2.078  12.908 -0.4657 -0.0749 -0.4484
  460TIP3    H222872   5.695   2.219  12.958 -1.6188  0.4456 -2.4113
  461TIP3   OH222873   5.875   2.078   6.329  0.6102  0.2759  0.5344
  461TIP3    H122874   5.789   2.109   6.300  0.9428  0.9202  0.2023
  461TIP3    H222875   5.868   1.983   6.328  0.0853  0.3150 -0.0604
  462TIP3   OH222876   2.404   4.388  14.542 -0.4231 -0.0408  0.5696
  462TIP3    H122877   2.412   4.404  14.448  0.2276 -0.0082  0.6205
  462TIP3    H222878   2.314   4.359  14.555 -0.5643  0.1186 -0.0400
  463TIP3   OH222879   3.455   4.685  12.893  0.2273  0.4596 -0.5511
  463TIP3    H122880   3.423   4.733  12.817 -0.6242  1.6736  0.5246
  463TIP3    H222881   3.394   4.613  12.903 -0.6241  1.2229 -0.0979
  464TIP3   OH222882   2.921   4.810   2.666 -0.6042  0.5569 -0.0496
  464TIP3    H122883   2.894   4.730   2.619 -0.6117  0.3556  0.2938
  464TIP3    H222884   2.841   4.862   2.672 -0.5139  0.7682 -0.6198
  465TIP3   OH222885   4.864   1.293   4.620  0.1233  0.2169  0.2171
  465TIP3    H122886   4.917   1.343   4.682 -1.1094  1.1742  0.5624
  465TIP3    H222887   4.774   1.315   4.643 -0.4100  1.6227 -2.6660
  466TIP3   OH222888   3.197   2.383  12.829 -0.7403 -0.3647 -0.0268
  466TIP3    H122889   3.145   2.305  12.847  0.0361 -0.7786  0.5319
  466TIP3    H222890   3.162   2.418  12.748 -2.2631 -0.2929  0.6370
  467TIP3   OH222891   3.980   5.957   5.746  0.1354  0.5384  0.4053
  467TIP3    H122892   3.955   5.962   5.838 -1.6259 -3.6929  0.4115
  467TIP3    H222893   3.935   6.030   5.705 -1.6788  0.6851  2.4597
  468TIP3   OH222894   2.790   2.338   3.897  0.0343 -0.2927 -0.2598
  468TIP3    H122895   2.805   2.317   3.804 -0.0552 -1.9090  0.0532
  468TIP3    H222896   2.782   2.433   3.899  1.0483 -0.1283 -1.7704
  469TIP3   OH222897   0.543   3.297   3.883  0.6033  0.2069  1.0851
  469TIP3    H122898   0.586   3.225   3.929  1.3035  1.3751  2.3484
  469TIP3    H222899   0.485   3.255   3.820  1.5662 -1.4435  1.2534
  470TIP3   OH222900   3.351   1.453   2.340  0.3622  0.4064 -0.1293
  470TIP3    H122901   3.307   1.533   2.313 -0.5136 -0.5762 -1.7496
  470TIP3    H222902   3.373   1.409   2.258 -0.9075 -1.9331  0.7080
  471TIP3   OH222903   1.051   2.165   2.053  0.7440 -0.2229  0.2541
  471TIP3    H122904   1.088   2.246   2.089 -1.6921 -0.5635  4.0832
  471TIP3    H222905   1.022   2.188   1.965 -0.4572  3.3361  1.4315
  472TIP3   OH222906   6.549   0.673   2.339  0.9765  0.8428  0.0204
  472TIP3    H122907   6.545   0.623   2.258  0.3049  2.6135 -1.1248
  472TIP3    H222908   6.639   0.707   2.342  1.8493 -1.3955  1.4888
  473TIP3   OH222909   3.288   0.164   5.038  0.0603 -0.4005 -0.8590
  473TIP3    H122910   3.321   0.193   5.123 -1.3923  0.1614 -0.4622
  473TIP3    H222911   3.244   0.241   5.001  1.9323 -0.1763 -2.8237
  474TIP3   OH222912   5.574   5.572   6.068  0.2647 -0.4855 -0.6153
  474TIP3    H122913   5.599   5.515   6.140 -0.8846 -0.5169 -0.2225
  474TIP3    H222914   5.617   5.656   6.087  1.3876 -0.9854 -0.8311
  475TIP3   OH222915   0.602   5.804  13.596 -0.3155  0.1536 -0.4134
  475TIP3    H122916   0.689   5.767  13.608  0.1413  1.1846 -0.4646
  475TIP3    H222917   0.605   5.846  13.510 -1.2335 -0.7790 -0.9299
  476TIP3   OH222918   5.611   5.735   2.841 -0.0207  0.3082  0.5161
  476TIP3    H122919   5.613   5.826   2.870 -0.1200  0.2849  0.5974
  476TIP3    H222920   5.534   5.697   2.885 -0.8365  0.5699 -0.6394
  477TIP3   OH222921   4.862   5.926  13.335  0.6997  0.0859 -0.7143
  477TIP3    H122922   4.807   5.851  13.310 -1.2367  1.7731 -1.7963
  477TIP3    H222923   4.947   5.908  13.294  0.3764 -1.6251 -0.7106
  478TIP3   OH222924   5.961   0.473  14.103  0.5061  0.5370  0.4769
  478TIP3    H122925   5.874   0.435  14.113 -0.1927  1.1522 -2.4310
  478TIP3    H222926   5.969   0.491  14.009  3.2937  1.6447  0.8339
  479TIP3   OH222927   0.147   4.651   1.703 -0.3523 -0.0689  0.1125
  479TIP3    H122928   0.174   4.743   1.700 -1.9233  0.4394  0.1674
  479TIP3    H222929   0.217   4.603   1.659 -0.3694  1.3932 -1.6499
  480TIP3   OH222930   1.119   1.853  14.099  0.3382  0.4891  0.0468
  480TIP3    H122931   1.097   1.889  14.013  0.6935 -0.5089 -0.4800
  480TIP3    H222932   1.086   1.764  14.097 -0.1653  0.6253  1.1776
  481TIP3   OH222933   5.369   0.976  16.668  0.0122  0.0778 -0.0985
  481TIP3    H122934   5.437   1.039  16.694 -0.3118  0.8289 -1.0172
  481TIP3    H222935   5.345   1.003  16.580 -2.5395  0.7627  0.7273
  482TIP3   OH222936   5.354   1.349   6.072  1.1178  0.3737 -0.5707
  482TIP3    H122937   5.277   1.347   6.128  0.7955  1.6815 -0.9264
  482TIP3    H222938   5.409   1.278   6.104  0.2827  0.1523  0.4279
  483TIP3   OH222939   0.585   0.379   0.676 -0.1472 -0.5150  0.4412
  483TIP3    H122940   0.524   0.452   0.687 -0.0907 -0.4132  0.0826
  483TIP3    H222941   0.532   0.301   0.689 -0.2181 -0.4149  0.7800
  484TIP3   OH222942   3.971   2.314   1.720  0.3262  0.4647  0.2342
  484TIP3    H122943   4.018   2.360   1.651  0.3684 -0.0160 -0.0550
  484TIP3    H222944   3.915   2.252   1.675  0.1751  0.3148  0.6215
  485TIP3   OH222945   4.183   6.069   1.796 -0.0185  0.2452 -0.0631
  485TIP3    H122946   4.261   6.081   1.850 -0.6528 -1.1052  1.2354
  485TIP3    H222947   4.124   6.016   1.850 -0.8091 -0.9486 -1.9607
  486TIP3   OH222948   5.882   4.467   4.961  0.0580 -0.2481 -0.5546
  486TIP3    H122949   5.809   4.405   4.964 -0.5835  0.5408  0.3206
  486TIP3    H222950   5.937   4.443   5.036  0.8009 -0.9465 -1.3066
  487TIP3   OH222951   1.334   6.812   2.247  0.3056  0.1905 -0.1293
  487TIP3    H122952   1.320   6.899   2.285 -1.1831 -0.8439  1.9377
  487TIP3    H222953   1.254   6.795   2.196  0.8356  0.2330 -0.9951
  488TIP3   OH222954   0.950   3.469   2.076  0.7448  0.3583  0.1138
  488TIP3    H122955   0.971   3.518   1.996  2.3452 -0.4196  0.0157
  488TIP3    H222956   1.032   3.469   2.126 -0.4541  1.5636  2.1913
  489TIP3   OH222957   4.021   0.116   3.662 -0.4471 -0.1854 -0.0930
  489TIP3    H122958   3.970   0.099   3.741  0.0974 -1.3406  0.0364
  489TIP3    H222959   3.957   0.150   3.599 -1.4693 -1.8824 -0.0423
  490TIP3   OH222960   1.086   6.841  14.457  0.0722  0.1045  0.5094
  490TIP3    H122961   1.127   6.764  14.496  2.0764  0.8036 -0.1089
  490TIP3    H222962   1.093   6.909  14.524  0.3945  0.3583  0.2263
  491TIP3   OH222963   5.967   4.678  12.143 -0.7681  0.2717 -0.2684
  491TIP3    H122964   6.022   4.616  12.191 -1.9877 -0.7683 -0.1474
  491TIP3    H222965   5.954   4.638  12.057 -2.4212 -0.2203  0.1583
  492TIP3   OH222966   3.142   3.672  11.033  0.3803 -0.1211 -0.4016
  492TIP3    H122967   3.157   3.675  10.939  0.1067 -1.0144 -0.4829
  492TIP3    H222968   3.204   3.607  11.066 -0.9812 -1.4155 -0.2904
  493TIP3   OH222969   2.959   4.546  16.993  0.0650 -0.3325  0.1895
  493TIP3    H122970   2.936   4.510  17.078 -1.8437  2.2467  0.9149
  493TIP3    H222971   3.019   4.617  17.012 -1.0997  0.8783 -0.4338
  494TIP3   OH222972   1.918   5.941   1.413  0.0485 -0.0803 -0.2079
  494TIP3    H122973   1.871   5.951   1.330  0.7238  1.7563 -0.4170
  494TIP3    H222974   1.965   5.858   1.404 -1.3633 -0.8319 -0.8879
  495TIP3   OH222975   3.259   2.433   0.346 -0.7012  0.4802  0.6024
  495TIP3    H122976   3.176   2.481   0.343 -0.4510  0.8526 -1.3035
  495TIP3    H222977   3.323   2.491   0.306  0.4195  0.0208  1.6649
  496TIP3   OH222978   6.076   6.046   6.133  0.0279  0.0087 -0.0214
  496TIP3    H122979   6.131   6.098   6.191  0.6122  0.0268 -0.5814
  496TIP3    H222980   6.087   5.956   6.163  0.5088 -0.0090 -0.2423
  497TIP3   OH222981   0.224   5.582  10.433  0.7111  0.3656  0.4188
  497TIP3    H122982   0.196   5.607  10.345 -2.0105  0.6516  1.2528
  497TIP3    H222983   0.309   5.540  10.420 -0.2561 -1.0078 -2.5490
  498TIP3   OH222984   3.499   0.796   3.819  0.5801 -0.4042 -0.3191
  498TIP3    H122985   3.485   0.728   3.753  0.5846 -0.2674 -0.4608
  498TIP3    H222986   3.442   0.771   3.891  1.4412 -1.2088  0.1093
  499TIP3   OH222987   2.379   0.428  13.460  0.5636 -0.0090  0.5469
  499TIP3    H122988   2.355   0.342  13.495  0.5289 -0.0279  0.4791
  499TIP3    H222989   2.359   0.490  13.530 -1.0524  0.1375  0.0001
  500TIP3   OH222990   6.838   6.458  10.862  0.5505 -0.5964 -0.1773
  500TIP3    H122991   6.835   6.551  10.884  1.6181 -0.5220 -0.2947
  500TIP3    H222992   6.927   6.444  10.831  0.0443 -1.4106 -1.3068
  501TIP3   OH222993   5.368   6.312   0.815 -0.0649  0.1548  0.0379
  501TIP3    H122994   5.446   6.264   0.786 -0.5238 -0.9816  0.6613
  501TIP3    H222995   5.402   6.373   0.881  1.0653  3.0201 -2.8660
  502TIP3   OH222996   4.224   4.004  13.746 -0.3923 -0.2321  0.4398
  502TIP3    H122997   4.149   3.956  13.712 -0.2620  0.9736 -1.7189
  502TIP3    H222998   4.201   4.097  13.735  1.2975  0.1681 -0.1055
  503TIP3   OH222999   2.649   3.485  14.597 -1.2842  0.8080 -0.2728
  503TIP3    H123000   2.578   3.440  14.550 -0.5154 -0.9855  0.1976
  503TIP3    H223001   2.645   3.448  14.686  0.0411  0.9220 -0.1576
  504TIP3   OH223002   3.937   1.790  11.620 -0.1936 -0.6002  0.1196
  504TIP3    H123003   3.880   1.808  11.545  0.6071  0.2461 -0.3030
  504TIP3    H223004   3.978   1.874  11.640  1.1612 -1.2507  0.1912
  505TIP3   OH223005   4.951   6.154   0.728 -0.2433  0.0120 -0.4657
  505TIP3    H123006   5.013   6.162   0.801 -1.6698 -0.2989  0.8392
  505TIP3    H223007   4.965   6.066   0.695 -0.1956 -0.1728  0.0302
  506TIP3   OH223008   2.869   2.309  12.734 -0.2077  0.2015  0.0947
  506TIP3    H123009   2.899   2.399  12.743 -0.2732  0.0570  2.3375
  506TIP3    H223010   2.856   2.297  12.640  0.0133  2.4494 -0.2735
  507TIP3   OH223011   2.788   3.527   1.788 -0.4209  0.5494  0.4514
  507TIP3    H123012   2.772   3.600   1.727 -1.4859  0.2654  0.3557
  507TIP3    H223013   2.870   3.489   1.759  1.0417  2.6940  1.5109
  508TIP3   OH223014   2.477   0.530   6.168  0.8336 -0.2233  0.3100
  508TIP3    H123015   2.491   0.541   6.074  4.0372 -0.4472  0.6590
  508TIP3    H223016   2.483   0.436   6.182  0.4799 -0.1792  0.7606
  509TIP3   OH223017   4.509   3.126  12.538  0.5085 -0.6201 -0.2122
  509TIP3    H123018   4.437   3.063  12.544 -0.4409  0.2513 -1.6210
  509TIP3    H223019   4.583   3.083  12.581 -1.3724 -0.6894  3.3454
  510TIP3   OH223020   6.722   6.141  11.074 -0.0113  0.3141  0.3939
  510TIP3    H123021   6.769   6.217  11.109 -0.2605  0.0939  1.2308
  510TIP3    H223022   6.721   6.155  10.979  2.8332 -0.2640  0.1913
  511TIP3   OH223023   5.537   3.056  11.978  0.6522  0.1413 -0.7985
  511TIP3    H123024   5.534   2.972  12.024  0.1306  0.9284  0.6532
  511TIP3    H223025   5.446   3.073  11.953  0.5749  0.8234 -0.0613
  512TIP3   OH223026   5.081   1.206  13.280  0.4994 -0.4694  0.4417
  512TIP3    H123027   5.061   1.179  13.190 -1.3502 -1.4355  1.1031
  512TIP3    H223028   5.122   1.130  13.320 -0.8659 -0.8880  1.0875
  513TIP3   OH223029   3.107   1.964   4.318 -0.2228 -0.1980 -0.4781
  513TIP3    H123030   3.145   1.906   4.252  0.3649 -1.1014  0.6330
  513TIP3    H223031   3.182   1.999   4.366 -0.6813 -0.1511  0.2199
  514TIP3   OH223032   3.901   6.269  13.348  0.1957  0.1227  0.0226
  514TIP3    H123033   3.922   6.191  13.297 -0.9701  0.9350 -1.7768
  514TIP3    H223034   3.858   6.235  13.427  0.5716 -1.0811 -0.2698
  515TIP3   OH223035   3.277   6.361   0.237 -0.5155 -0.2677  0.4393
  515TIP3    H123036   3.246   6.448   0.263  0.8393  0.4278 -0.1764
  515TIP3    H223037   3.277   6.364   0.141  0.4197 -0.6214  0.4261
  516TIP3   OH223038   2.503   1.784  13.837  0.8928 -0.0278  0.0480
  516TIP3    H123039   2.542   1.713  13.889  0.4629  0.6486  1.3490
  516TIP3    H223040   2.517   1.862  13.890 -1.1462  0.4249 -0.0019
  517TIP3   OH223041   6.453   4.708  13.026 -0.0113 -0.5644 -0.4044
  517TIP3    H123042   6.381   4.669  12.977  0.7771 -1.9022 -0.5381
  517TIP3    H223043   6.522   4.722  12.961 -0.2387  1.0658 -0.3597
  518TIP3   OH223044   3.518   1.561  15.423  0.2389 -0.5677 -0.6106
  518TIP3    H123045   3.582   1.623  15.457  1.5151 -0.9785 -2.1493
  518TIP3    H223046   3.487   1.514  15.501  1.2525  0.1342  0.2472
  519TIP3   OH223047   5.217   3.398  12.071 -0.0472  0.2739 -0.0999
  519TIP3    H123048   5.273   3.321  12.064  0.7779  0.8857 -0.3410
  519TIP3    H223049   5.209   3.413  12.165  0.0195  0.0691 -0.0595
  520TIP3   OH223050   2.823   0.282   2.984 -0.5783  0.3949  0.5004
  520TIP3    H123051   2.802   0.255   3.074  0.2905 -2.6404 -0.0935
  520TIP3    H223052   2.919   0.286   2.983 -0.6330  2.1368  0.1132
  521TIP3   OH223053   5.770   3.718  11.486 -0.1544 -0.2927  0.9035
  521TIP3    H123054   5.725   3.689  11.565  0.6927 -0.8838  1.1746
  521TIP3    H223055   5.710   3.694  11.415  0.1224 -1.9285  1.1853
  522TIP3   OH223056   0.861   2.650  12.383 -0.0411  0.1239 -0.9992
  522TIP3    H123057   0.873   2.745  12.374  0.9079  0.2739  1.0605
  522TIP3    H223058   0.931   2.612  12.330  0.5931  0.6410 -0.5468
  523TIP3   OH223059   4.488   1.639  10.466  0.0190  0.5394  0.6505
  523TIP3    H123060   4.427   1.586  10.518 -0.0482 -0.7851 -0.7126
  523TIP3    H223061   4.569   1.588  10.465  0.4241  1.1728  0.5269
  524TIP3   OH223062   6.228   2.669   5.851 -0.4419 -0.0861 -0.0395
  524TIP3    H123063   6.163   2.635   5.913  0.2571 -1.7169 -0.1518
  524TIP3    H223064   6.194   2.644   5.765 -0.2508  0.1100 -0.1726
  525TIP3   OH223065   6.350   1.654  16.479 -0.2410 -0.5189 -0.1176
  525TIP3    H123066   6.364   1.619  16.567  0.6788  1.2394  0.4816
  525TIP3    H223067   6.432   1.640  16.433 -0.9152 -1.9916 -0.9467
  526TIP3   OH223068   6.572   2.536  12.664  0.0730  0.0635  0.2165
  526TIP3    H123069   6.664   2.513  12.678  1.5654 -0.0156 -6.4439
  526TIP3    H223070   6.526   2.452  12.664  0.8608 -0.3831 -0.4337
  527TIP3   OH223071   6.291   5.830  13.280 -0.1403  0.3249 -0.2837
  527TIP3    H123072   6.224   5.831  13.349  0.6750  0.2161  0.5302
  527TIP3    H223073   6.355   5.766  13.310  0.1519  0.1603 -1.2366
  528TIP3   OH223074   4.618   3.508   1.366  0.4709 -0.6362  0.4093
  528TIP3    H123075   4.530   3.478   1.389 -0.6237  1.6543 -0.5405
  528TIP3    H223076   4.668   3.427   1.355 -1.7473 -2.0418  0.0153
  529TIP3   OH223077   2.355   4.043   1.942  0.2705 -0.8065 -0.3609
  529TIP3    H123078   2.439   4.079   1.970 -1.2108  1.1788  1.8871
  529TIP3    H223079   2.378   3.967   1.889  3.4709 -0.6587  0.6319
  530TIP3   OH223080   2.409   3.022   2.180  0.2172  0.3261  0.3328
  530TIP3    H123081   2.489   3.055   2.140  0.6866  1.4752  2.1156
  530TIP3    H223082   2.386   3.088   2.246 -2.9996  0.7775 -1.0555
  531TIP3   OH223083   0.763   0.200   4.987  0.3444 -0.4107 -0.5612
  531TIP3    H123084   0.816   0.192   4.908 -0.4765  1.0791 -1.3049
  531TIP3    H223085   0.767   0.293   5.009  1.3005 -0.9219  1.7164
  532TIP3   OH223086   0.623   3.008   3.874 -0.0886  0.2948 -0.3708
  532TIP3    H123087   0.553   2.969   3.821 -0.6781  2.2904 -1.1387
  532TIP3    H223088   0.703   2.991   3.823 -0.1601 -0.8170 -0.1479
  533TIP3   OH223089   1.823   6.334  13.917 -0.5263  0.2467  0.2021
  533TIP3    H123090   1.800   6.398  13.849  0.2657  0.3201 -0.0019
  533TIP3    H223091   1.793   6.374  13.999 -2.0547 -0.1082 -0.1372
  534TIP3   OH223092   1.044   2.651  11.015 -0.0638 -0.1314  0.0695
  534TIP3    H123093   0.949   2.648  11.010 -0.0177  0.2062 -2.2404
  534TIP3    H223094   1.068   2.732  10.969  1.3324  0.1874  1.2711
  535TIP3   OH223095   3.802   3.204  12.737 -0.5314 -0.1929 -0.6577
  535TIP3    H123096   3.728   3.256  12.769 -0.9043 -0.0213 -1.7571
  535TIP3    H223097   3.762   3.136  12.683  0.0111 -1.1820  0.1371
  536TIP3   OH223098   3.254   2.645  10.329 -0.6228 -0.7125 -0.1889
  536TIP3    H123099   3.193   2.646  10.256 -1.0769  0.1591  0.1903
  536TIP3    H223100   3.206   2.686  10.401  0.0367 -0.9846  0.4215
  537TIP3   OH223101   4.860   4.670  12.922 -0.0318  0.0546  0.2333
  537TIP3    H123102   4.787   4.731  12.922 -0.8331 -0.8506  1.1538
  537TIP3    H223103   4.826   4.593  12.876  1.3296  0.6630 -1.9158
  538TIP3   OH223104   2.468   5.245   1.503 -0.5096 -0.0818 -0.3665
  538TIP3    H123105   2.519   5.173   1.540 -1.4039 -0.3553  0.3663
  538TIP3    H223106   2.387   5.205   1.473 -0.6702  0.4898 -0.7208
  539TIP3   OH223107   6.739   1.925   4.151  0.2705 -0.2458 -0.0642
  539TIP3    H123108   6.684   1.913   4.074  1.4694 -1.8033 -0.7521
  539TIP3    H223109   6.807   1.986   4.123  1.0802 -1.3091 -0.4945
  540TIP3   OH223110   4.336   6.344   4.107 -0.3043 -0.1073 -0.1937
  540TIP3    H123111   4.416   6.299   4.134  1.0289  1.9703 -0.4817
  540TIP3    H223112   4.343   6.349   4.012  0.1799  1.6920 -0.0937
  541TIP3   OH223113   4.722   5.983   1.513  0.2716  0.6436  0.7791
  541TIP3    H123114   4.663   5.939   1.451  1.3028  0.3539 -0.0471
  541TIP3    H223115   4.665   6.038   1.566 -0.6967  0.6701 -0.2395
  542TIP3   OH223116   0.890   4.888   2.926  0.0953 -0.2216 -0.0442
  542TIP3    H123117   0.837   4.939   2.987  0.8982  0.1459  0.3544
  542TIP3    H223118   0.863   4.797   2.942  0.4936 -0.1628  1.0609
  543TIP3   OH223119   5.100   3.498   2.112  0.2719  0.4757  0.1519
  543TIP3    H123120   5.094   3.458   2.199  0.1117 -1.5530 -0.7459
  543TIP3    H223121   5.170   3.451   2.068 -0.9962  0.0399 -1.5083
  544TIP3   OH223122   4.177   1.929  11.400 -0.4870 -0.0106  0.3339
  544TIP3    H123123   4.082   1.915  11.391 -0.4348 -0.4808  0.4869
  544TIP3    H223124   4.189   2.022  11.381 -0.8041 -0.2424 -1.1159
  545TIP3   OH223125   3.664   3.709  11.868 -0.2623  0.2265  0.2128
  545TIP3    H123126   3.735   3.773  11.874  0.2800 -0.2315 -1.0188
  545TIP3    H223127   3.696   3.634  11.919  1.1128 -0.8005 -2.0055
  546TIP3   OH223128   2.480   3.317  15.012 -0.1798 -0.3405  0.1235
  546TIP3    H123129   2.546   3.386  15.005  0.9962 -1.1251  2.5941
  546TIP3    H223130   2.521   3.241  14.972  0.4453 -0.7997  1.5669
  547TIP3   OH223131   1.241   0.308  10.880 -0.0103  0.2168  0.1538
  547TIP3    H123132   1.277   0.227  10.916  0.4392  0.8421  1.1959
  547TIP3    H223133   1.305   0.375  10.905 -1.2176  1.1551  0.8534
  548TIP3   OH223134   1.489   3.564  12.224 -0.1747 -0.0045 -0.0932
  548TIP3    H123135   1.474   3.633  12.159 -0.1969 -0.8383 -0.9989
  548TIP3    H223136   1.575   3.583  12.260 -1.0938  1.7960  1.3453
  549TIP3   OH223137   0.034   4.775   3.654 -0.5317  0.2883 -0.2552
  549TIP3    H123138   0.008   4.836   3.723 -0.8468  0.2131 -0.3087
  549TIP3    H223139   0.008   4.819   3.573 -1.5094 -0.2872 -0.2569
  550TIP3   OH223140   3.956   1.744   4.199  0.1594 -0.0808  0.3128
  550TIP3    H123141   3.928   1.652   4.199 -0.2610 -0.0135 -2.0045
  550TIP3    H223142   3.875   1.794   4.201  0.3695  0.2504  0.8423
  551TIP3   OH223143   2.344   6.519   6.063 -0.2455 -0.1261 -0.0970
  551TIP3    H123144   2.284   6.492   5.992 -1.0704 -2.0350  1.2348
  551TIP3    H223145   2.367   6.609   6.041  0.6119 -1.0048 -3.5183
  552TIP3   OH223146   2.785   3.926  16.110  0.7254  0.0173  0.5970
  552TIP3    H123147   2.798   3.955  16.020  1.7849 -1.6982  0.1292
  552TIP3    H223148   2.697   3.955  16.133 -0.8840 -2.1869 -2.1349
  553TIP3   OH223149   6.135   5.301  10.639  0.3067  0.1123  0.1165
  553TIP3    H123150   6.141   5.379  10.584  0.0771  1.4000  1.8408
  553TIP3    H223151   6.199   5.316  10.709  0.4928 -1.4185  0.3138
  554TIP3   OH223152   3.768   5.953  16.530 -0.0830 -0.7252 -0.6788
  554TIP3    H123153   3.860   5.969  16.551 -0.5725  0.8227  0.4716
  554TIP3    H223154   3.767   5.948  16.434  1.0278  0.5452 -0.7938
  555TIP3   OH223155   5.667   0.634   5.259 -0.1286 -0.0521 -0.2075
  555TIP3    H123156   5.724   0.668   5.327 -0.5467 -3.4572  2.1387
  555TIP3    H223157   5.593   0.695   5.256 -0.0623  0.2450  2.4198
  556TIP3   OH223158   3.613   4.404  16.858  0.1468  0.4445  0.1293
  556TIP3    H123159   3.608   4.318  16.816  1.3309 -1.3814  3.3442
  556TIP3    H223160   3.523   4.433  16.864 -0.3568 -0.9470 -0.3283
  557TIP3   OH223161   3.200   4.752   3.125 -0.4384  0.1269  0.0043
  557TIP3    H123162   3.255   4.704   3.186  1.1480 -0.6721 -1.9288
  557TIP3    H223163   3.225   4.844   3.138  0.5084 -0.1141 -0.0048
  558TIP3   OH223164   6.298   1.620   0.252 -0.2089  0.2536 -0.2551
  558TIP3    H123165   6.390   1.601   0.268 -0.2515 -0.5321 -0.8896
  558TIP3    H223166   6.253   1.539   0.276 -0.6987  0.5058 -0.3218
  559TIP3   OH223167   1.126   1.596   5.508  0.5374 -0.1074  0.0226
  559TIP3    H123168   1.140   1.504   5.484 -2.7323 -0.5170 -0.8782
  559TIP3    H223169   1.096   1.637   5.427 -1.3348  0.8699  1.1340
  560TIP3   OH223170   4.953   4.355  12.872  0.7030  0.3893  0.0139
  560TIP3    H123171   4.918   4.293  12.807 -1.2396 -0.6993  1.9549
  560TIP3    H223172   5.044   4.368  12.846 -0.0673  0.3651 -3.1447
  561TIP3   OH223173   0.674   2.625   5.293 -0.0224 -0.0238 -0.3239
  561TIP3    H123174   0.623   2.601   5.370 -0.6741 -0.8659 -1.0062
  561TIP3    H223175   0.764   2.597   5.314 -0.6809 -2.9035 -0.9703
  562TIP3   OH223176   4.012   3.348  10.743 -0.2321  0.0614 -0.0118
  562TIP3    H123177   3.938   3.408  10.741  0.2593  0.6890 -2.4975
  562TIP3    H223178   3.973   3.260  10.742 -0.9253  0.2425  2.5618
  563TIP3   OH223179   1.540   0.140  10.617  0.0038 -0.0363 -0.2828
  563TIP3    H123180   1.498   0.225  10.631  3.8516  2.1181 -0.4924
  563TIP3    H223181   1.522   0.091  10.698 -0.0040  2.0634  1.0710
  564TIP3   OH223182   5.592   6.832   6.393 -0.9349  0.3179 -0.6929
  564TIP3    H123183   5.577   6.739   6.410 -0.9441  0.5365  0.6074
  564TIP3    H223184   5.555   6.877   6.470  1.3728  1.2212 -0.0285
  565TIP3   OH223185   4.117   6.007   3.098  0.0800 -0.1054 -0.4649
  565TIP3    H123186   4.073   5.934   3.142  1.2929  0.0263  1.0544
  565TIP3    H223187   4.051   6.076   3.095  0.2154  0.2789  2.2684
  566TIP3   OH223188   5.678   0.788  13.423 -0.3564 -0.6136 -0.8982
  566TIP3    H123189   5.719   0.826  13.345  0.2046 -0.1518 -0.3979
  566TIP3    H223190   5.725   0.829  13.496 -0.0132 -1.9724 -0.3224
  567TIP3   OH223191   5.830   2.794   3.799 -0.0446  0.4217  0.0291
  567TIP3    H123192   5.813   2.791   3.705 -0.7775 -1.1854  0.1761
  567TIP3    H223193   5.789   2.715   3.834  2.5825 -0.5030  1.3170
  568TIP3   OH223194   5.259   1.776   2.851  0.3500  0.2558  0.0838
  568TIP3    H123195   5.250   1.682   2.863 -2.0022  0.3752 -0.3762
  568TIP3    H223196   5.214   1.814   2.926 -0.1008  1.0052 -0.5522
  569TIP3   OH223197   2.618   4.546   1.870 -0.1296  0.0010 -0.2574
  569TIP3    H123198   2.540   4.558   1.817 -0.0516  1.1092 -0.1417
  569TIP3    H223199   2.639   4.633   1.903  1.6887 -0.0988 -1.0214
  570TIP3   OH223200   4.530   1.224   2.646 -0.0589 -0.7189 -0.6068
  570TIP3    H123201   4.435   1.236   2.648  0.0367  0.0951  0.5419
  570TIP3    H223202   4.545   1.148   2.703  0.1008  0.4258  0.9399
  571TIP3   OH223203   5.870   6.329  12.549  0.1723  0.0849  0.0656
  571TIP3    H123204   5.803   6.380  12.594  1.0260  1.0355  0.3114
  571TIP3    H223205   5.848   6.337  12.456 -2.3827 -3.0014  0.2610
  572TIP3   OH223206   0.775   0.866   1.316 -0.3853  0.1786 -0.4359
  572TIP3    H123207   0.795   0.774   1.296 -0.1483  0.2315 -0.4435
  572TIP3    H223208   0.823   0.916   1.251  0.6850  0.3686  0.4661
  573TIP3   OH223209   0.942   3.075  12.577 -0.1566  0.0395  0.2312
  573TIP3    H123210   0.981   3.038  12.657 -0.4692 -1.4723 -0.2778
  573TIP3    H223211   0.954   3.169  12.586  0.6881 -0.1660  1.6111
  574TIP3   OH223212   4.109   5.185   3.070  0.0140 -0.1656 -0.4311
  574TIP3    H123213   4.071   5.155   2.987 -1.4283  0.2814  0.0359
  574TIP3    H223214   4.037   5.229   3.115  0.3274 -1.7242  1.7554
  575TIP3   OH223215   1.322   4.114   4.328  0.0459  0.1320 -0.4588
  575TIP3    H123216   1.375   4.145   4.254  1.1081 -1.2368 -0.3219
  575TIP3    H223217   1.281   4.034   4.296  0.4544 -0.4343  0.4029
  576TIP3   OH223218   4.239   0.521   2.193 -0.2323 -0.2853 -0.2531
  576TIP3    H123219   4.327   0.523   2.154  0.3654 -1.8379  0.9073
  576TIP3    H223220   4.233   0.435   2.234 -2.6746 -0.5961 -1.0877
  577TIP3   OH223221   5.386   6.184  10.913  0.2732  0.1452 -0.5599
  577TIP3    H123222   5.466   6.234  10.896 -0.6338  1.4738 -1.1150
  577TIP3    H223223   5.405   6.135  10.993  1.5895  0.5478 -0.5992
  578TIP3   OH223224   4.236   4.618   5.773  0.0742  0.2661 -0.4088
  578TIP3    H123225   4.292   4.684   5.732  0.8378 -0.0701  0.0762
  578TIP3    H223226   4.182   4.668   5.835 -0.2753  0.6080 -0.9690
  579TIP3   OH223227   3.245   0.657  17.086 -0.1423 -0.1290  0.6349
  579TIP3    H123228   3.259   0.697  17.172 -1.3564 -0.2620  0.9228
  579TIP3    H223229   3.327   0.613  17.066  0.6892  1.1897  1.0148
  580TIP3   OH223230   4.021   0.521   1.660 -0.5728  0.7387 -0.2535
  580TIP3    H123231   4.031   0.436   1.617 -0.9610 -0.0377  1.1323
  580TIP3    H223232   3.978   0.501   1.743 -3.6899  2.6751 -1.2391
  581TIP3   OH223233   3.192   2.043   4.930 -0.3619  0.6089  0.3090
  581TIP3    H123234   3.109   1.999   4.944 -0.3537  0.5769  0.2573
  581TIP3    H223235   3.170   2.136   4.933 -0.4547  0.6010 -0.0218
  582TIP3   OH223236   5.898   2.655  11.930  0.4295  0.2484  0.8609
  582TIP3    H123237   5.871   2.584  11.873  1.8216  1.6470 -1.7401
  582TIP3    H223238   5.823   2.715  11.932  0.4066  0.2414  0.3721
  583TIP3   OH223239   0.565   4.337  16.251 -0.1238  0.2119 -0.1364
  583TIP3    H123240   0.636   4.359  16.312  0.0376 -1.7336  0.4616
  583TIP3    H223241   0.605   4.275  16.190 -1.2909 -0.9431  0.2311
  584TIP3   OH223242   4.864   5.648   5.346 -0.0247  0.3133 -0.2350
  584TIP3    H123243   4.926   5.715   5.315 -1.5295  1.8173 -0.1018
  584TIP3    H223244   4.835   5.604   5.266 -0.7177  1.3615 -0.5852
  585TIP3   OH223245   6.624   2.912  16.830 -0.3803 -0.9732 -0.3361
  585TIP3    H123246   6.567   2.882  16.760 -1.1779 -0.1438 -0.0557
  585TIP3    H223247   6.696   2.957  16.786 -0.7493 -0.6736 -0.6305
  586TIP3   OH223248   5.668   6.643   1.019 -0.0038 -0.2009  0.6192
  586TIP3    H123249   5.682   6.561   1.066  0.4292 -0.8501 -0.6082
  586TIP3    H223250   5.653   6.617   0.928 -0.5160  1.0447  0.3200
  587TIP3   OH223251   4.658   3.337   5.603 -0.9176  0.3529  0.0482
  587TIP3    H123252   4.652   3.301   5.691  0.0709 -0.9176 -0.3702
  587TIP3    H223253   4.744   3.380   5.600 -1.7283  2.0703  0.2709
  588TIP3   OH223254   0.571   3.519   6.539  0.2910  0.0709 -0.1609
  588TIP3    H123255   0.569   3.537   6.445  0.1398  0.4571 -0.0870
  588TIP3    H223256   0.664   3.514   6.561  0.3629  1.4872 -0.0592
  589TIP3   OH223257   5.734   1.703   1.964 -0.0168  0.5005 -0.6318
  589TIP3    H123258   5.739   1.753   2.046 -1.2279  2.0770 -1.4720
  589TIP3    H223259   5.786   1.755   1.902  1.7477 -1.2048 -0.6610
  590TIP3   OH223260   4.155   1.837  12.120 -0.0902 -0.4172 -0.1651
  590TIP3    H123261   4.171   1.771  12.053  1.9757 -2.0171  1.7520
  590TIP3    H223262   4.121   1.788  12.195 -4.1621  1.5541 -0.4904
  591TIP3   OH223263   4.089   2.097  14.475  0.6022 -0.0833 -0.2702
  591TIP3    H123264   4.073   2.177  14.526 -0.2792 -0.5979  0.2891
  591TIP3    H223265   4.023   2.098  14.407  0.7552 -0.2084 -0.4207
  592TIP3   OH223266   3.919   6.563   5.893 -0.1364  0.0801  0.8579
  592TIP3    H123267   3.947   6.472   5.904  0.8542  0.4310  1.4447
  592TIP3    H223268   3.997   6.607   5.859 -0.0834  1.0047  2.0847
  593TIP3   OH223269   6.191   0.231   5.839 -0.4391 -0.0467  0.8178
  593TIP3    H123270   6.133   0.275   5.778 -0.8403 -0.0626  1.1799
  593TIP3    H223271   6.274   0.279   5.833  0.2480 -1.3914 -1.3445
  594TIP3   OH223272   5.869   6.286  11.545  0.6103 -0.6250  0.1029
  594TIP3    H123273   5.880   6.192  11.558 -0.6107 -0.8073 -0.0601
  594TIP3    H223274   5.876   6.298  11.450  0.4339 -0.6021  0.0926
  595TIP3   OH223275   3.780   4.350   0.032  0.0311 -0.4796  0.3488
  595TIP3    H123276   3.817   4.381  -0.050 -1.2501 -0.4544 -0.2401
  595TIP3    H223277   3.707   4.410   0.050  0.9220  0.1757  2.0623
  596TIP3   OH223278   5.041   4.432   3.183 -0.0762  0.0177 -0.3793
  596TIP3    H123279   5.045   4.344   3.144 -3.1092  0.3726 -1.8506
  596TIP3    H223280   5.069   4.490   3.112 -0.8367  0.3645 -0.4103
  597TIP3   OH223281   1.793   2.927  12.535  0.0105 -0.0081  0.3373
  597TIP3    H123282   1.857   2.872  12.491 -2.0409 -1.5367 -0.8969
  597TIP3    H223283   1.714   2.922  12.480 -0.8557  2.7491  1.1278
  598TIP3   OH223284   2.129   5.013  11.278  0.1048 -0.4892  0.1060
  598TIP3    H123285   2.126   5.031  11.184  2.9173 -2.3925 -0.4936
  598TIP3    H223286   2.120   4.918  11.284  0.4010 -0.4366  1.7137
  599TIP3   OH223287   1.746   0.062  13.789  0.2097 -0.2185 -0.8777
  599TIP3    H123288   1.814   0.119  13.755  1.3196 -1.0262 -0.0976
  599TIP3    H223289   1.712   0.016  13.712  0.0775  0.6565 -1.3538
  600TIP3   OH223290   5.559   3.287  15.316  0.0734  0.1481  0.3071
  600TIP3    H123291   5.627   3.351  15.337 -2.1538  1.8730  3.0392
  600TIP3    H223292   5.560   3.226  15.390 -0.6784 -0.4098 -0.1269
  601TIP3   OH223293   2.543   1.059  13.552  0.3218  0.1977 -0.2959
  601TIP3    H123294   2.556   1.014  13.468  0.7144 -0.0319 -0.1158
  601TIP3    H223295   2.631   1.087  13.577  0.5930 -1.8059  1.1963
  602TIP3   OH223296   2.758   6.588   3.563 -0.0661  0.2766 -0.8849
  602TIP3    H123297   2.698   6.551   3.628 -0.4950  1.3210 -0.6603
  602TIP3    H223298   2.738   6.541   3.482 -1.8927  1.2279 -1.0520
  603TIP3   OH223299   4.692   5.508   5.157 -0.0494  0.1014  0.1994
  603TIP3    H123300   4.677   5.433   5.214 -0.6960  0.7336  0.8934
  603TIP3    H223301   4.676   5.475   5.069  0.0478 -0.6693  0.4646
  604TIP3   OH223302   1.032   5.612  12.392  0.2247  0.6506  0.6294
  604TIP3    H123303   1.082   5.546  12.441  0.2711 -0.6579 -1.0979
  604TIP3    H223304   0.963   5.640  12.453  0.9288 -0.1163  1.8088
  605TIP3   OH223305   4.597   0.665   4.557 -0.2235  0.2134  0.4602
  605TIP3    H123306   4.563   0.743   4.513  1.5096  1.6106  1.4586
  605TIP3    H223307   4.607   0.601   4.487 -2.3410  0.6028 -0.2685
  606TIP3   OH223308   2.744   0.802   0.612  0.6994 -0.0654 -0.0518
  606TIP3    H123309   2.795   0.737   0.660  0.2555  0.0711  0.6194
  606TIP3    H223310   2.719   0.758   0.531  1.4419 -0.3067 -0.1598
  607TIP3   OH223311   6.391   6.631  12.549  0.4172 -0.2697  0.0204
  607TIP3    H123312   6.399   6.597  12.638 -0.5002 -0.4351  0.0473
  607TIP3    H223313   6.299   6.620  12.527  0.6274 -0.1918 -0.9415
  608TIP3   OH223314   0.435   1.246  13.735  0.0994  0.0877  0.4183
  608TIP3    H123315   0.385   1.180  13.782  0.6800  0.9676  2.3931
  608TIP3    H223316   0.369   1.301  13.693 -0.5051 -0.2148  0.9490
  609TIP3   OH223317   2.246   1.826   1.893 -0.4246  0.4272 -0.0347
  609TIP3    H123318   2.339   1.822   1.913 -0.3323  0.0685 -0.5202
  609TIP3    H223319   2.220   1.734   1.881 -0.3791  0.6092 -1.9388
  610TIP3   OH223320   0.349   0.136   1.736 -0.4619  0.2483  0.5264
  610TIP3    H123321   0.316   0.195   1.669 -0.3996  0.4040  0.6330
  610TIP3    H223322   0.441   0.160   1.746  0.2120 -1.3871 -1.0864
  611TIP3   OH223323   1.700   0.504   4.274 -0.1408  0.3673  0.0099
  611TIP3    H123324   1.720   0.439   4.206 -0.0928  1.7628 -1.3883
  611TIP3    H223325   1.764   0.488   4.342  0.9183 -0.0277 -1.0404
  612TIP3   OH223326   4.777   2.598   4.065  0.3384 -0.2380 -0.2109
  612TIP3    H123327   4.781   2.569   3.974 -0.7210 -1.4775  0.0977
  612TIP3    H223328   4.798   2.691   4.062 -0.6907 -0.0169 -1.8460
  613TIP3   OH223329   0.035   0.862   1.895 -0.4702  0.1010  0.0666
  613TIP3    H123330  -0.000   0.930   1.836 -0.1631  0.1280 -0.0890
  613TIP3    H223331  -0.033   0.849   1.960 -1.2149 -0.5844 -0.8165
  614TIP3   OH223332   2.914   1.325  15.495 -0.1885  0.2096 -0.0686
  614TIP3    H123333   2.925   1.242  15.450  1.0481 -0.3764  1.2458
  614TIP3    H223334   2.948   1.390  15.434  0.8171 -0.4939 -0.2667
  615TIP3   OH223335   5.965   1.997  14.547  0.1229  0.2446  0.5297
  615TIP3    H123336   5.870   2.005  14.557 -0.0590 -0.4084 -0.5296
  615TIP3    H223337   5.983   2.027  14.458  0.5405 -2.0826 -0.2419
  616TIP3   OH223338   1.138   1.571  13.284 -0.4110 -0.0483 -0.4961
  616TIP3    H123339   1.216   1.626  13.294 -1.1088  0.8639  0.1868
  616TIP3    H223340   1.080   1.623  13.229 -0.5741 -0.6900 -0.9339
  617TIP3   OH223341   3.137   0.361  12.339 -0.1904 -0.1670  0.7098
  617TIP3    H123342   3.112   0.453  12.345 -0.5645 -0.2906  1.0569
  617TIP3    H223343   3.189   0.345  12.417 -1.4058 -0.6412  1.4401
  618TIP3   OH223344   0.454   0.720  11.279 -0.1053 -0.0404 -0.1105
  618TIP3    H123345   0.500   0.642  11.310  0.0414  0.8517  2.1310
  618TIP3    H223346   0.387   0.686  11.220 -0.0682 -1.8769  0.8285
  619TIP3   OH223347   6.143   1.317  12.956 -0.0734 -0.3408 -0.0263
  619TIP3    H123348   6.134   1.281  12.867  0.5360  0.1857 -0.3051
  619TIP3    H223349   6.108   1.406  12.949  0.3676 -0.1518  0.1595
  620TIP3   OH223350   0.700   0.121   2.432 -0.3896  0.5381 -0.4677
  620TIP3    H123351   0.637   0.190   2.411  0.0004  1.7437  1.9215
  620TIP3    H223352   0.665   0.043   2.389 -2.2565  1.6657 -1.1242
  621TIP3   OH223353   3.477   6.035  12.956 -0.0107  0.4511  0.3068
  621TIP3    H123354   3.441   5.953  12.923  0.6012 -0.8521  2.6685
  621TIP3    H223355   3.401   6.093  12.963 -0.7039 -0.4064  0.0472
  622TIP3   OH223356   4.762   1.386  13.522  0.3642  0.6180 -0.0695
  622TIP3    H123357   4.798   1.323  13.585 -1.1364 -1.0375 -0.7882
  622TIP3    H223358   4.668   1.385  13.539  0.3416  3.6044  0.6682
  623TIP3   OH223359   4.148   2.739   0.011 -0.5602  0.8331 -0.1537
  623TIP3    H123360   4.059   2.718  -0.019 -1.4122  1.7347  1.5409
  623TIP3    H223361   4.142   2.733   0.107  1.3674  0.3859 -0.0253
  624TIP3   OH223362   4.571   4.194  15.120 -0.3808  0.3437 -0.4723
  624TIP3    H123363   4.504   4.262  15.111 -2.3051 -1.3673  0.1798
  624TIP3    H223364   4.630   4.208  15.046 -1.8261  1.5320 -1.4446
  625TIP3   OH223365   2.397   0.423   5.156  0.3538  0.1142  0.1929
  625TIP3    H123366   2.434   0.510   5.169  2.9368 -0.5613 -1.6883
  625TIP3    H223367   2.407   0.379   5.241  3.3459  0.2414 -0.0102
  626TIP3   OH223368   5.451   1.752   4.944  0.0888  0.7206  0.5204
  626TIP3    H123369   5.535   1.760   4.988  1.0335  0.2665 -1.1223
  626TIP3    H223370   5.473   1.728   4.854 -1.8277 -0.2796  0.2611
  627TIP3   OH223371   4.587   3.897  12.339  0.0916  0.3392  0.0661
  627TIP3    H123372   4.535   3.897  12.259 -0.3014 -1.7247  0.2658
  627TIP3    H223373   4.539   3.839  12.399  1.6426 -0.1222  0.9236
  628TIP3   OH223374   5.296   1.457  15.676  0.7250  0.3849 -0.0458
  628TIP3    H123375   5.348   1.396  15.729  0.1304  0.9566  1.2137
  628TIP3    H223376   5.361   1.506  15.625  1.3015 -0.1473  0.1632
  629TIP3   OH223377   2.362   4.318  13.032  0.0281  0.5704 -0.2476
  629TIP3    H123378   2.270   4.342  13.022 -0.1729  1.2832  2.3533
  629TIP3    H223379   2.362   4.250  13.099  1.3278 -0.1782 -0.9757
  630TIP3   OH223380   2.502   1.527  14.313  0.0760  0.2289 -0.0342
  630TIP3    H123381   2.455   1.532  14.230 -1.1441  1.5942  0.6792
  630TIP3    H223382   2.450   1.469  14.367  0.8312 -0.6011 -0.1745
  631TIP3   OH223383   4.356   0.629   0.886 -0.1071 -0.6615  0.6577
  631TIP3    H123384   4.358   0.591   0.973 -0.7757 -0.5262  0.7360
  631TIP3    H223385   4.265   0.620   0.858  0.0034 -0.2763  0.1675
  632TIP3   OH223386   5.521   3.688   1.484  0.1935 -0.3019 -0.6327
  632TIP3    H123387   5.447   3.690   1.545  2.2542  0.8807  2.0418
  632TIP3    H223388   5.496   3.623   1.418 -2.4343 -1.2611  1.1397
  633TIP3   OH223389   5.012   0.602   0.519  0.5163 -0.1266  0.1890
  633TIP3    H123390   5.020   0.534   0.451  1.7272 -0.9351  1.0883
  633TIP3    H223391   4.934   0.652   0.495 -0.6880 -2.1283 -0.2538
  634TIP3   OH223392   0.266   6.114   4.266 -0.0950 -0.6353 -0.5669
  634TIP3    H123393   0.266   6.130   4.172 -0.3865 -0.5105 -0.5470
  634TIP3    H223394   0.268   6.201   4.305  1.2734 -0.6983 -0.4504
  635TIP3   OH223395   6.595   5.408   0.535 -0.4413  0.1087  0.2454
  635TIP3    H123396   6.659   5.363   0.589 -2.3242 -0.2146  2.3701
  635TIP3    H223397   6.616   5.501   0.546  0.9375 -0.0474 -0.8353
  636TIP3   OH223398   4.676   1.513  15.912 -0.1686 -0.1167 -0.2794
  636TIP3    H123399   4.653   1.589  15.966  0.3958 -0.4549  0.4543
  636TIP3    H223400   4.717   1.452  15.973 -0.0765 -0.7688 -0.9801
  637TIP3   OH223401   4.705   2.909   4.206 -0.6195 -0.0814 -0.2946
  637TIP3    H123402   4.770   2.902   4.137 -0.2261  0.7435 -0.0179
  637TIP3    H223403   4.631   2.954   4.165 -0.6068 -0.1006 -0.3378
  638TIP3   OH223404   4.961   1.350  16.650 -0.0689  0.5499  0.2387
  638TIP3    H123405   4.892   1.388  16.705  1.0810  0.8376  1.5182
  638TIP3    H223406   4.992   1.424  16.597 -0.3316  0.5551  0.0900
  639TIP3   OH223407   4.940   3.020   1.558  0.2580  0.3347  0.0897
  639TIP3    H123408   4.888   2.980   1.627  1.7533 -0.5604  0.7563
  639TIP3    H223409   4.893   3.001   1.477 -1.1673  0.8131  0.7700
  640TIP3   OH223410   3.563   1.921   2.582 -0.2478 -0.3803 -0.1345
  640TIP3    H123411   3.563   2.016   2.572 -1.1250 -0.2299  0.9626
  640TIP3    H223412   3.633   1.903   2.645  0.3383 -0.5293 -0.8275
  641TIP3   OH223413   0.361   1.869   4.997 -0.1865 -0.5503 -0.2712
  641TIP3    H123414   0.290   1.808   5.021  1.0219 -1.8853  0.0558
  641TIP3    H223415   0.359   1.871   4.902 -0.2709 -1.0702 -0.2853
  642TIP3   OH223416   0.114   2.104  13.363  0.1003 -0.3335 -0.4640
  642TIP3    H123417   0.053   2.174  13.341  0.7416  0.9525  1.5488
  642TIP3    H223418   0.176   2.102  13.290 -0.3621  0.6815 -0.9050
  643TIP3   OH223419   5.546   6.626  12.851  0.3973 -0.3698 -0.2622
  643TIP3    H123420   5.534   6.583  12.935 -2.7506  0.9429  0.1057
  643TIP3    H223421   5.637   6.657  12.852  0.4245 -0.3115  2.6940
  644TIP3   OH223422   5.092   2.343   5.551 -0.0691 -0.0256 -1.1296
  644TIP3    H123423   5.072   2.250   5.561 -0.7388  0.3585  2.5438
  644TIP3    H223424   5.009   2.388   5.569  0.5626  1.3277 -1.4297
  645TIP3   OH223425   1.903   3.670  15.633  0.0779  0.0973  0.2142
  645TIP3    H123426   1.873   3.752  15.594  2.4397  0.4135 -1.0999
  645TIP3    H223427   1.883   3.603  15.568  1.4341  0.2069 -0.3500
  646TIP3   OH223428   5.763   5.426  14.199 -0.6801  0.1327 -0.2473
  646TIP3    H123429   5.702   5.500  14.194 -1.2336 -0.2918  0.0967
  646TIP3    H223430   5.712   5.350  14.171 -1.4551 -0.8604  3.2822
  647TIP3   OH223431   1.594   2.071  15.913 -0.1151  0.7604  0.2102
  647TIP3    H123432   1.667   2.128  15.892  0.1158  1.0474  1.6696
  647TIP3    H223433   1.518   2.130  15.918 -0.3196  0.5768 -0.5341
  648TIP3   OH223434   1.946   0.256   2.434 -0.3380 -0.2497 -0.2877
  648TIP3    H123435   1.981   0.170   2.413  0.1949 -0.2298  0.4758
  648TIP3    H223436   1.963   0.309   2.356 -0.6035 -0.8098 -0.7324
  649TIP3   OH223437   6.344   6.779   0.315  0.3414  0.2682 -0.2939
  649TIP3    H123438   6.368   6.706   0.258  0.8546 -0.0123  0.2664
  649TIP3    H223439   6.398   6.766   0.393 -2.3556 -1.0450  1.5233
  650TIP3   OH223440   6.349   4.314   5.159  0.4704 -0.2426  0.3650
  650TIP3    H123441   6.259   4.283   5.168  0.4444 -0.4748 -0.5855
  650TIP3    H223442   6.403   4.241   5.187  0.3797 -0.4207  0.0720
  651TIP3   OH223443   6.740   1.573   3.908 -0.3970 -0.4899  0.2599
  651TIP3    H123444   6.687   1.653   3.902 -0.3628 -0.5327 -1.0258
  651TIP3    H223445   6.681   1.504   3.876  0.1993 -0.6395 -0.5662
  652TIP3   OH223446   2.221   4.490   0.657 -0.0012  0.0455 -0.5754
  652TIP3    H123447   2.243   4.566   0.603 -0.4610 -0.4336 -1.4692
  652TIP3    H223448   2.305   4.448   0.675  0.1413  0.0970 -1.1045
  653TIP3   OH223449   6.765   1.718   0.125 -0.2027  0.1090  0.4023
  653TIP3    H123450   6.715   1.658   0.180  0.2419 -0.9741 -0.3406
  653TIP3    H223451   6.730   1.704   0.037  0.2315  0.6092  0.1468
  654TIP3   OH223452   2.245   4.773   4.079  0.0842 -0.0370 -0.2382
  654TIP3    H123453   2.265   4.863   4.104  1.0519 -0.4562  0.5848
  654TIP3    H223454   2.222   4.730   4.162  0.1246 -0.6713 -0.5533
  655TIP3   OH223455   3.804   3.717   1.594  0.0933 -0.1521 -0.3961
  655TIP3    H123456   3.899   3.714   1.580  0.7656 -2.0504  3.3873
  655TIP3    H223457   3.791   3.794   1.650 -0.4321 -0.5162 -0.0098
  656TIP3   OH223458   4.638   3.733   3.357  0.4057  0.0001  0.3374
  656TIP3    H123459   4.597   3.676   3.292  0.0084 -2.6364  2.7048
  656TIP3    H223460   4.564   3.780   3.397  0.5405  0.7828 -0.2957
  657TIP3   OH223461   3.840   4.198   1.628 -0.1603  0.7484  0.3393
  657TIP3    H123462   3.866   4.282   1.590 -0.4933  0.1835 -1.2340
  657TIP3    H223463   3.795   4.152   1.556 -1.4281 -0.1239  1.6284
  658TIP3   OH223464   1.609   2.665   2.212 -0.2160  0.5433 -0.2648
  658TIP3    H123465   1.572   2.751   2.193 -2.0117  0.0354  0.6950
  658TIP3    H223466   1.703   2.674   2.194 -0.1881  3.0037  0.8232
  659TIP3   OH223467   4.093   0.918  10.661 -0.5466 -0.3798 -0.2871
  659TIP3    H123468   4.120   0.827  10.668  0.9193  0.0796  0.4905
  659TIP3    H223469   4.144   0.953  10.588 -0.1494  0.1182  0.2170
  660TIP3   OH223470   1.643   4.749  12.992 -0.2070  0.5630 -0.5962
  660TIP3    H123471   1.677   4.670  12.952 -3.1591 -0.5917 -1.0522
  660TIP3    H223472   1.651   4.734  13.086 -2.2222 -1.0839 -0.6282
  661TIP3   OH223473   0.482   2.453   2.385 -0.3718 -0.3974 -0.4507
  661TIP3    H123474   0.549   2.442   2.453 -0.4590  0.1111 -0.2756
  661TIP3    H223475   0.445   2.366   2.374  0.2118 -0.6492 -0.4348
  662TIP3   OH223476   5.182   3.068   3.526  0.1333 -0.1535  0.0673
  662TIP3    H123477   5.200   3.102   3.439 -0.2744  1.2966  0.5117
  662TIP3    H223478   5.185   2.973   3.517  0.2868 -0.0175 -1.4722
  663TIP3   OH223479   3.570   3.044  11.650  0.1065  0.6613  0.1137
  663TIP3    H123480   3.609   2.975  11.595  0.7672  2.3574 -1.6674
  663TIP3    H223481   3.489   3.066  11.605 -0.1957  0.9199  0.7807
  664TIP3   OH223482   2.163   1.672   4.909 -0.0368  0.0515  0.0450
  664TIP3    H123483   2.124   1.686   4.823  1.8204  1.7036 -0.6113
  664TIP3    H223484   2.251   1.709   4.901 -0.5345  2.3754  3.2850
  665TIP3   OH223485   2.943   1.313   3.748 -0.2685  0.6243  0.5144
  665TIP3    H123486   2.930   1.239   3.689  0.4798  1.2932 -0.5158
  665TIP3    H223487   2.910   1.282   3.833  1.0890 -1.2865  0.3973
  666TIP3   OH223488   1.008   1.786   1.897 -0.1975  0.4450 -0.0645
  666TIP3    H123489   1.038   1.703   1.935  0.9443  0.3260 -1.1544
  666TIP3    H223490   1.088   1.834   1.877 -0.6774  0.3454 -2.6014
  667TIP3   OH223491   4.799   6.597   4.922 -0.3648  0.0056  0.0040
  667TIP3    H123492   4.766   6.514   4.957 -2.2492  0.9885  0.6817
  667TIP3    H223493   4.731   6.627   4.862 -0.4565  1.7673  0.9085
  668TIP3   OH223494   0.364   4.143   4.273  0.3375 -0.1605  0.1210
  668TIP3    H123495   0.450   4.173   4.242 -0.2135 -0.6611 -2.0702
  668TIP3    H223496   0.305   4.216   4.255 -0.4281 -1.2813 -2.3827
  669TIP3   OH223497   6.739   3.252   4.030  0.4522  0.3651 -0.3779
  669TIP3    H123498   6.819   3.290   3.993 -0.3261  1.7891 -0.6537
  669TIP3    H223499   6.686   3.229   3.954 -0.1933  1.1900 -0.1860
  670TIP3   OH223500   3.231   4.370  12.025 -0.3181  0.0335  0.1354
  670TIP3    H123501   3.172   4.387  12.099  0.3407 -0.4154  0.7852
  670TIP3    H223502   3.186   4.306  11.972 -1.9588  2.2193 -1.2839
  671TIP3   OH223503   3.517   5.467   2.521  0.0530 -0.0323 -0.0972
  671TIP3    H123504   3.581   5.425   2.579  0.4869 -2.0518 -1.8929
  671TIP3    H223505   3.565   5.540   2.482 -0.1733  1.2092  1.8074
  672TIP3   OH223506   4.176   1.954  12.503  0.5609  0.0376 -0.1794
  672TIP3    H123507   4.182   1.869  12.459  0.6769  0.0763 -0.2394
  672TIP3    H223508   4.265   1.988  12.500  0.3321  0.5833 -0.9928
  673TIP3   OH223509   5.393   1.885   6.440  0.8152  0.0956 -0.1476
  673TIP3    H123510   5.469   1.827   6.450 -0.9679 -2.8455 -2.0324
  673TIP3    H223511   5.406   1.926   6.354 -0.2240 -1.3605 -1.0390
  674TIP3   OH223512   3.923   3.091  10.751  0.4010  0.0662 -0.5049
  674TIP3    H123513   3.880   3.097  10.837 -1.2765  0.7340 -1.3407
  674TIP3    H223514   3.877   3.020  10.706  2.0212 -1.0467 -0.4961
  675TIP3   OH223515   2.218   2.960  11.285  0.1621  0.7360 -0.4674
  675TIP3    H123516   2.209   2.907  11.365  0.6872  0.2120 -0.7475
  675TIP3    H223517   2.300   3.007  11.296  0.1242  0.8333 -0.6020
  676TIP3   OH223518   5.328   5.832  13.578  0.3462 -0.3085 -0.7740
  676TIP3    H123519   5.365   5.837  13.666  0.4781 -2.0211 -0.6829
  676TIP3    H223520   5.345   5.917  13.539 -1.2130  1.0987  1.4131
  677TIP3   OH223521   6.267   6.293   3.627 -0.3754  0.1954 -0.0475
  677TIP3    H123522   6.315   6.253   3.699 -0.4236  0.3629  0.0772
  677TIP3    H223523   6.191   6.236   3.613 -1.5424  1.3197  1.4532
  678TIP3   OH223524   3.876   3.802   5.624  0.3705 -0.1831 -0.2537
  678TIP3    H123525   3.869   3.739   5.551 -2.0087  0.7105 -0.8992
  678TIP3    H223526   3.921   3.878   5.586 -0.7120  0.2135 -0.7873
  679TIP3   OH223527   1.048   0.336   2.694  0.1214  0.4482 -0.1378
  679TIP3    H123528   1.115   0.352   2.628 -1.6697  0.2294 -2.1162
  679TIP3    H223529   1.061   0.244   2.720  0.3059  0.2726 -0.8417
  680TIP3   OH223530   2.806   4.161  10.450 -0.3963 -0.6012  0.5009
  680TIP3    H123531   2.717   4.146  10.480 -0.7015  0.5052  0.1907
  680TIP3    H223532   2.809   4.121  10.363 -0.9433  0.3573  0.0298
  681TIP3   OH223533   4.371   3.233   3.942 -0.3880  0.1880  0.2163
  681TIP3    H123534   4.386   3.308   4.000 -1.1122 -0.2696  1.0143
  681TIP3    H223535   4.406   3.261   3.858 -1.1527  1.6345  0.3584
  682TIP3   OH223536   5.887   5.718   4.692  0.0438 -0.3013 -0.0856
  682TIP3    H123537   5.920   5.690   4.607  1.7530  2.0546 -0.2898
  682TIP3    H223538   5.911   5.647   4.751  0.8156 -0.9935 -1.1850
  683TIP3   OH223539   4.901   6.821   5.060  0.0827  0.1910  0.0040
  683TIP3    H123540   4.900   6.877   4.982  0.2461 -0.1615 -0.2534
  683TIP3    H223541   4.864   6.738   5.030 -1.5076  0.6049  0.7243
  684TIP3   OH223542   0.135   1.423  12.526  0.8266 -0.0013  0.4431
  684TIP3    H123543   0.055   1.416  12.579  0.9984  0.9329  0.8318
  684TIP3    H223544   0.161   1.514  12.534  0.9155  0.1377 -1.1868
  685TIP3   OH223545   1.817   0.696  13.790 -0.0556  0.5132 -0.3107
  685TIP3    H123546   1.796   0.717  13.881  1.0853 -0.0753  0.1014
  685TIP3    H223547   1.734   0.710  13.743 -0.5973  1.0611  0.7626
  686TIP3   OH223548   1.874   6.500   5.330 -0.1300 -0.2978 -0.7718
  686TIP3    H123549   1.865   6.405   5.334  0.8870 -0.4092 -0.7736
  686TIP3    H223550   1.807   6.527   5.267 -0.9152 -0.9287 -0.2267
  687TIP3   OH223551   3.088   4.627   5.126  0.0059 -0.0828 -0.2040
  687TIP3    H123552   3.017   4.617   5.062  2.4694 -1.4145 -2.9955
  687TIP3    H223553   3.145   4.694   5.088  1.5903 -0.9471  0.5545
  688TIP3   OH223554   5.064   0.203  16.042 -0.2733  1.1537  0.3507
  688TIP3    H123555   5.148   0.190  16.086 -0.1285 -0.4591 -0.3447
  688TIP3    H223556   5.063   0.138  15.972 -3.1507 -0.6375  1.8575
  689TIP3   OH223557   5.904   5.201   4.412  0.0832 -0.1637 -0.0603
  689TIP3    H123558   5.814   5.207   4.379  0.6089 -0.8785 -1.7250
  689TIP3    H223559   5.951   5.152   4.345  1.6231 -0.2244  1.0083
  690TIP3   OH223560   6.835   0.259   1.550 -0.0454  0.2612 -1.0040
  690TIP3    H123561   6.901   0.267   1.619 -1.2239 -1.2840  0.3739
  690TIP3    H223562   6.873   0.197   1.488  0.3879  0.4792 -0.9625
  691TIP3   OH223563   4.105   4.811  10.410 -0.0481  0.5172 -0.2815
  691TIP3    H123564   4.039   4.869  10.373  0.2114 -0.8545 -3.1923
  691TIP3    H223565   4.074   4.723  10.388  2.5848 -0.1757 -1.5349
  692TIP3   OH223566   2.496   0.886  16.007 -0.0013  0.1435  0.2309
  692TIP3    H123567   2.420   0.877  16.066 -0.3494  0.9013 -0.0859
  692TIP3    H223568   2.469   0.843  15.926 -0.0807  0.3787  0.1314
  693TIP3   OH223569   3.660   6.333   0.630 -0.0689 -0.3261  0.7163
  693TIP3    H123570   3.655   6.420   0.588  0.4424 -0.4421  0.3963
  693TIP3    H223571   3.667   6.272   0.556 -2.6423 -0.8693  0.8151
  694TIP3   OH223572   2.039   2.879  15.273  0.2194 -0.0926  0.1273
  694TIP3    H123573   2.056   2.973  15.282 -1.1620  0.2821 -0.8910
  694TIP3    H223574   2.117   2.844  15.230  0.6419  0.6181  0.3051
  695TIP3   OH223575   1.957   1.964  14.215  0.4332  0.1223 -0.2107
  695TIP3    H123576   1.893   1.892  14.223  0.5689 -0.0531 -0.6481
  695TIP3    H223577   1.997   1.950  14.129 -1.4730  2.2931 -1.5513
  696TIP3   OH223578   0.400   5.244  14.627  0.3416  0.3534  0.2675
  696TIP3    H123579   0.376   5.273  14.539  1.0464  0.5643  0.1383
  696TIP3    H223580   0.486   5.283  14.643  0.4684 -0.1371  0.8345
  697TIP3   OH223581   1.434   1.083   5.343 -0.0792 -0.6594 -0.2725
  697TIP3    H123582   1.495   1.127   5.283  0.6107  0.5407  1.2370
  697TIP3    H223583   1.475   1.093   5.429 -2.1849 -0.2227  0.7322
  698TIP3   OH223584   4.170   0.853   0.542 -0.0902  0.2271  0.0929
  698TIP3    H123585   4.141   0.929   0.592 -0.7497  1.3497 -1.8500
  698TIP3    H223586   4.094   0.794   0.542 -0.2086  0.3787  0.1451
  699TIP3   OH223587   5.462   3.466   1.324  0.2121  0.3036 -0.4885
  699TIP3    H123588   5.461   3.509   1.239  1.4505  0.1761 -0.5878
  699TIP3    H223589   5.461   3.372   1.303 -1.2485  0.2473 -0.3001
  700TIP3   OH223590   1.565   1.729  13.055  0.5749 -0.0886  0.3901
  700TIP3    H123591   1.612   1.729  13.138  1.3197 -0.2611 -0.0182
  700TIP3    H223592   1.619   1.783  12.997 -0.6127  1.1619  0.3739
  701TIP3   OH223593   5.775   4.877  16.891  0.0088 -0.7371  0.3208
  701TIP3    H123594   5.763   4.792  16.850  0.5234 -0.7565  0.2044
  701TIP3    H223595   5.793   4.857  16.983  0.2797 -0.7583  0.2630
  702TIP3   OH223596   6.472   0.698  13.949  0.1367  0.3124  0.1560
  702TIP3    H123597   6.388   0.744  13.941 -0.0024 -0.0357 -0.4796
  702TIP3    H223598   6.452   0.621  14.002 -0.1141 -0.1451 -0.5825
  703TIP3   OH223599   0.525   5.114  12.789 -0.0699  0.1344 -0.5025
  703TIP3    H123600   0.562   5.109  12.701  2.8543  0.7005  0.5878
  703TIP3    H223601   0.596   5.149  12.843 -2.0198  0.5634  1.9614
  704TIP3   OH223602   2.981   1.657  13.969 -0.1308 -0.0842  0.5848
  704TIP3    H123603   3.053   1.596  13.955  1.8796  1.7106  2.3771
  704TIP3    H223604   2.979   1.670  14.064 -1.7622  1.1622  0.4208
  705TIP3   OH223605   1.772   2.690   3.185  0.6113 -0.5252 -0.1452
  705TIP3    H123606   1.776   2.620   3.119 -0.3096  0.4335 -1.2644
  705TIP3    H223607   1.679   2.713   3.189  0.7088 -0.3026  1.2262
  706TIP3   OH223608   0.784   3.748   6.131 -0.3434  0.7855 -0.0807
  706TIP3    H123609   0.811   3.693   6.058  1.6614  1.4665  0.0924
  706TIP3    H223610   0.742   3.688   6.192 -1.3130  0.0760 -1.4033
  707TIP3   OH223611   2.702   0.881   0.241  0.4453  0.8599  0.2694
  707TIP3    H123612   2.629   0.837   0.197  0.6936 -0.1400  0.8239
  707TIP3    H223613   2.687   0.863   0.334  0.6295  1.8600  0.5058
  708TIP3   OH223614   5.161   5.635  11.785  0.5301 -0.0289  0.1987
  708TIP3    H123615   5.173   5.653  11.692  1.3513  0.8543  0.4641
  708TIP3    H223616   5.090   5.693  11.812  0.3488 -0.2240  0.1412
  709TIP3   OH223617   3.701   6.057   5.033  0.1410  0.4577  0.3250
  709TIP3    H123618   3.657   6.113   5.097 -0.7432 -0.2988  0.4085
  709TIP3    H223619   3.750   5.993   5.085  0.9012  0.9557  0.2321
  710TIP3   OH223620   1.883   6.149  16.764 -0.3694 -0.2229 -0.1958
  710TIP3    H123621   1.974   6.162  16.736  0.4834  0.4295  2.5847
  710TIP3    H223622   1.846   6.237  16.766 -0.6696 -0.3503 -0.1168
  711TIP3   OH223623   6.693   5.808   0.161  0.1073 -0.2165  0.1636
  711TIP3    H123624   6.786   5.790   0.174  0.2777  0.5679  0.0901
  711TIP3    H223625   6.688   5.903   0.158 -0.9108 -0.2099  1.6376
  712TIP3   OH223626   0.745   2.945  14.076 -0.8060 -0.3476  0.3270
  712TIP3    H123627   0.791   2.866  14.105 -1.4806 -1.1198 -0.6545
  712TIP3    H223628   0.652   2.923  14.085 -1.0497  1.1224  2.0907
  713TIP3   OH223629   2.816   2.405   0.477  0.4190  1.0270 -0.1916
  713TIP3    H123630   2.836   2.497   0.464  0.3356  0.8218 -2.1452
  713TIP3    H223631   2.729   2.405   0.517 -1.2413  1.8804 -3.3856
  714TIP3   OH223632   1.764   6.062   2.021 -0.1744  0.1084 -0.3522
  714TIP3    H123633   1.743   5.999   1.952  0.3780  0.4186 -0.8101
  714TIP3    H223634   1.722   6.026   2.099 -2.0706  0.5068 -1.1252
  715TIP3   OH223635   1.717   0.415  12.847  0.0104  0.1147 -0.3020
  715TIP3    H123636   1.740   0.477  12.917 -1.4073  1.1403 -0.6929
  715TIP3    H223637   1.634   0.377  12.876  0.3064 -0.7679 -0.6051
  716TIP3   OH223638   5.994   5.805  12.569 -0.0176 -0.0199  0.1954
  716TIP3    H123639   5.966   5.895  12.586 -1.2812 -0.0587 -1.4036
  716TIP3    H223640   5.913   5.755  12.560  0.6554 -1.2677  0.6745
  717TIP3   OH223641   1.956   5.660  16.901  0.2593  0.0213 -0.3757
  717TIP3    H123642   1.889   5.702  16.955 -1.0137 -2.3834  0.0591
  717TIP3    H223643   2.038   5.698  16.931 -0.6493  0.7824  1.2749
  718TIP3   OH223644   6.314   2.878   5.211 -0.5943 -0.2981  0.1650
  718TIP3    H123645   6.319   2.820   5.135 -1.8535 -2.2706  1.4754
  718TIP3    H223646   6.393   2.932   5.206  1.1638 -2.7803 -0.6799
  719TIP3   OH223647   3.605   3.037   5.341  0.4859  0.3229  0.3820
  719TIP3    H123648   3.563   3.070   5.420  0.2179  1.3969 -0.1832
  719TIP3    H223649   3.537   2.988   5.296 -0.1590  1.8750 -0.4241
  720TIP3   OH223650   3.435   6.051   3.971  0.3554  0.1814 -0.0184
  720TIP3    H123651   3.397   6.129   3.930 -1.0980 -0.6284 -0.2872
  720TIP3    H223652   3.529   6.065   3.966  0.1803  1.0403 -1.8286
  721TIP3   OH223653   2.022   4.467  12.365  0.1840 -0.2990  0.1951
  721TIP3    H123654   1.973   4.391  12.336 -1.3968  0.3723  0.9660
  721TIP3    H223655   2.023   4.526  12.290 -0.5316 -0.1714  0.2809
  722TIP3   OH223656   1.391   6.376  12.569 -0.6261 -0.3265 -0.3849
  722TIP3    H123657   1.475   6.393  12.611 -0.9359  1.1820 -0.3351
  722TIP3    H223658   1.369   6.286  12.595  0.5585 -0.4456  0.2830
  723TIP3   OH223659   0.802   2.329  12.562 -0.1365  0.0864  0.1290
  723TIP3    H123660   0.865   2.257  12.557 -0.3284 -0.1051  0.4679
  723TIP3    H223661   0.826   2.375  12.643  0.5941  0.9706 -0.5630
  724TIP3   OH223662   6.286   3.532   4.709 -0.1515 -0.2999 -0.0482
  724TIP3    H123663   6.343   3.527   4.633 -0.0166  0.8796 -0.0347
  724TIP3    H223664   6.326   3.473   4.774 -0.9955 -2.3866 -1.3235
  725TIP3   OH223665   6.216   3.298  16.374  0.3078  0.1267  0.1489
  725TIP3    H123666   6.220   3.284  16.279 -0.4481 -0.3232  0.1752
  725TIP3    H223667   6.128   3.332  16.389  1.4266  3.1802  0.3342
  726TIP3   OH223668   5.352   3.443  16.596 -0.2109  0.1678  0.0067
  726TIP3    H123669   5.402   3.426  16.516 -2.0198  0.8491 -1.3247
  726TIP3    H223670   5.264   3.465  16.565 -0.9006  0.6784  2.1902
  727TIP3   OH223671   4.217   4.520   1.892  0.1506  0.5201 -0.2016
  727TIP3    H123672   4.252   4.438   1.926 -3.2598 -0.8290  0.5018
  727TIP3    H223673   4.256   4.528   1.805  1.6538 -1.1027  0.2647
  728TIP3   OH223674   2.341   6.713  14.452 -0.2694  0.3928 -0.9076
  728TIP3    H123675   2.403   6.740  14.519  1.2211  1.1436 -2.5042
  728TIP3    H223676   2.255   6.726  14.492  0.5341  1.8859  0.4572
  729TIP3   OH223677   3.869   3.591   5.010  0.1368  0.0490  0.0734
  729TIP3    H123678   3.823   3.673   4.991  2.5570  1.2902 -0.9517
  729TIP3    H223679   3.953   3.619   5.046 -0.4200 -2.1225  3.4601
  730TIP3   OH223680   3.603   0.580  15.442  0.3499 -0.2364 -0.2492
  730TIP3    H123681   3.623   0.556  15.532  1.7654  0.1597 -0.4348
  730TIP3    H223682   3.508   0.584  15.438  0.2556 -0.8854  1.0582
  731TIP3   OH223683   4.062   1.353  11.868  0.7357 -1.1711  0.1326
  731TIP3    H123684   4.009   1.276  11.849  1.2426 -1.8493  1.2990
  731TIP3    H223685   4.145   1.317  11.900  0.4362 -0.1790  2.1751
  732TIP3   OH223686   1.021   6.039  10.448  0.0575 -0.0799  0.3241
  732TIP3    H123687   1.038   6.133  10.452  0.8923 -0.2031  0.0253
  732TIP3    H223688   0.972   6.027  10.367  0.5042  0.0320  0.0316
  733TIP3   OH223689   2.070   3.613   1.231 -0.2183  0.0009 -0.0316
  733TIP3    H123690   2.123   3.649   1.160 -1.0135 -0.1436 -0.7086
  733TIP3    H223691   2.000   3.564   1.187  0.5929 -2.0661  0.8458
  734TIP3   OH223692   0.765   5.829  14.600  0.1952  0.9230  0.4196
  734TIP3    H123693   0.841   5.774  14.617 -2.3802 -2.3414  2.7798
  734TIP3    H223694   0.750   5.822  14.506  1.2250 -0.6386  0.3460
  735TIP3   OH223695   6.092   3.633  15.559 -0.2135 -0.0580  0.3377
  735TIP3    H123696   6.020   3.674  15.511 -0.7464 -0.6426  0.6137
  735TIP3    H223697   6.160   3.618  15.493 -0.1767  0.8573  0.1519
  736TIP3   OH223698   6.840   6.269   0.894  0.6584 -0.0190 -0.0144
  736TIP3    H123699   6.916   6.213   0.884  0.8455  0.3536 -0.8309
  736TIP3    H223700   6.816   6.263   0.986  2.8131  1.3009  0.7005
  737TIP3   OH223701   0.454   6.266   1.580  0.5799  0.6110 -0.1107
  737TIP3    H123702   0.450   6.247   1.674  1.1364 -0.1787 -0.2416
  737TIP3    H223703   0.404   6.196   1.539  0.3242  0.9656 -0.4084
  738TIP3   OH223704   3.850   0.309  12.307 -0.4903 -0.5561  0.2805
  738TIP3    H123705   3.917   0.295  12.240 -0.8973  0.7935 -0.4409
  738TIP3    H223706   3.885   0.379  12.363 -1.1714  0.0037  0.0311
  739TIP3   OH223707   3.745   5.297  14.368 -0.5670  0.0392  0.4817
  739TIP3    H123708   3.690   5.335  14.437 -0.0199  0.8382  0.4966
  739TIP3    H223709   3.806   5.240  14.414 -0.5128  0.2052  0.6177
  740TIP3   OH223710   3.231   3.303   4.323 -0.3177  0.3332 -0.4570
  740TIP3    H123711   3.233   3.207   4.323 -4.0681  0.0258  2.3462
  740TIP3    H223712   3.296   3.329   4.389  1.4771 -0.1023 -1.9734
  741TIP3   OH223713   4.127   1.988  13.601  0.7125 -0.3510 -0.3994
  741TIP3    H123714   4.125   1.936  13.681 -0.2381  1.6111  0.9228
  741TIP3    H223715   4.185   2.062  13.622 -0.0843  0.5475 -1.2769
  742TIP3   OH223716   0.297   5.291  15.284  0.3207 -0.2280  0.1546
  742TIP3    H123717   0.209   5.253  15.283 -0.1448  0.6835  2.0549
  742TIP3    H223718   0.355   5.217  15.268 -0.7684 -0.8735 -0.9830
  743TIP3   OH223719   5.038   0.731  16.964  0.3794 -0.1608 -0.6612
  743TIP3    H123720   5.025   0.729  16.869  0.8241  0.8252 -0.7562
  743TIP3    H223721   4.969   0.789  16.996  0.8386  0.2928 -0.4937
  744TIP3   OH223722   3.774   2.508  12.391  0.3810  0.2721  0.3508
  744TIP3    H123723   3.716   2.581  12.370 -1.1744 -1.4864 -2.0210
  744TIP3    H223724   3.736   2.470  12.470  1.1719  1.8976  1.5705
  745TIP3   OH223725   1.453   0.452  13.213 -0.4489 -0.1159  0.3873
  745TIP3    H123726   1.525   0.515  13.212 -1.2197  0.7816 -0.8804
  745TIP3    H223727   1.418   0.457  13.302 -0.2426  0.9574  0.4215
  746TIP3   OH223728   0.838   0.556  11.262  0.2260  0.4678 -0.9377
  746TIP3    H123729   0.922   0.563  11.306 -0.2665 -0.4000  0.1841
  746TIP3    H223730   0.839   0.469  11.222  0.2242  0.8164 -1.7025
  747TIP3   OH223731   6.096   2.676  14.692 -0.4578  0.2192  0.4998
  747TIP3    H123732   6.191   2.684  14.703 -0.6095  1.2975  1.2357
  747TIP3    H223733   6.085   2.615  14.620  0.8246  1.1169 -0.5019
  748TIP3   OH223734   0.346   2.899   5.740  0.3007  0.2568  0.1430
  748TIP3    H123735   0.323   2.978   5.789  1.4608  0.8462 -0.2247
  748TIP3    H223736   0.437   2.912   5.715 -0.6531  0.8270 -3.6399
  749TIP3   OH223737   6.837   2.060  15.443 -0.2500 -0.3427 -0.2063
  749TIP3    H123738   6.787   1.978  15.445  1.0191 -1.1675 -0.8110
  749TIP3    H223739   6.875   2.062  15.355 -1.0694  1.4307 -0.5716
  750TIP3   OH223740   6.382   3.353   5.686 -0.3257 -0.3271  0.5125
  750TIP3    H123741   6.407   3.444   5.674 -0.7350 -0.4596 -1.7558
  750TIP3    H223742   6.291   3.348   5.657 -0.2819 -1.4692  0.5090
  751TIP3   OH223743   3.565   1.415   1.738  0.3234 -0.0709 -0.0369
  751TIP3    H123744   3.522   1.440   1.656  0.6417 -0.1785 -0.2360
  751TIP3    H223745   3.521   1.469   1.805 -1.6245 -1.7088  0.0998
  752TIP3   OH223746   3.773   6.238  14.005 -0.0246  0.1617 -0.3697
  752TIP3    H123747   3.859   6.196  14.014  0.5961  1.1874 -1.2665
  752TIP3    H223748   3.739   6.241  14.094 -0.4705 -2.9156 -0.3245
  753TIP3   OH223749   5.293   3.776  13.635 -0.2375  0.1595  0.1985
  753TIP3    H123750   5.272   3.784  13.542  0.7737 -1.4688 -0.2177
  753TIP3    H223751   5.341   3.693  13.641 -0.2846  0.2392  2.1768
  754TIP3   OH223752   5.055   5.301  13.404 -0.8788  0.1045  0.0261
  754TIP3    H123753   4.973   5.308  13.355 -1.1280  1.2937  0.5937
  754TIP3    H223754   5.031   5.257  13.486 -0.2735 -2.9067 -1.2596
  755TIP3   OH223755   4.150   2.878  13.801 -0.4753 -0.5376 -0.4366
  755TIP3    H123756   4.134   2.924  13.884  0.5132  1.6150 -1.3491
  755TIP3    H223757   4.063   2.871  13.761 -0.7868 -0.3751  0.2079
  756TIP3   OH223758   5.191   4.819  16.408 -0.2375 -0.1183 -0.2933
  756TIP3    H123759   5.138   4.819  16.488  0.9495 -1.0748  0.5269
  756TIP3    H223760   5.134   4.859  16.342 -1.3972  0.3217  0.9187
  757TIP3   OH223761   2.989   4.774   1.544 -0.2799 -0.0246 -0.6556
  757TIP3    H123762   2.979   4.801   1.635 -1.5375 -1.2807 -0.3815
  757TIP3    H223763   2.899   4.757   1.514  0.2491 -1.4797 -1.5249
  758TIP3   OH223764   6.469   1.833  13.463 -0.2723  0.1189 -0.7116
  758TIP3    H123765   6.460   1.904  13.398 -0.0731 -0.3710 -1.2793
  758TIP3    H223766   6.387   1.784  13.457  0.0400 -0.3609 -1.1161
  759TIP3   OH223767   4.545   2.378  17.135 -0.2878 -0.6428 -0.3455
  759TIP3    H123768   4.584   2.345  17.216 -0.4249  1.3404  0.5886
  759TIP3    H223769   4.579   2.320  17.066  2.7516 -0.2235  0.6651
  760TIP3   OH223770   6.493   5.481  14.068  0.5396  0.0984  0.5655
  760TIP3    H123771   6.490   5.486  13.972 -0.0990  0.0400  0.5785
  760TIP3    H223772   6.574   5.526  14.091 -0.4688  2.2843  0.1264
  761TIP3   OH223773   0.026   1.967  17.132  0.5567  0.6160  0.1056
  761TIP3    H123774   0.070   1.932  17.210  0.2625 -1.1134 -0.4633
  761TIP3    H223775   0.095   2.013  17.085  1.1254  0.2545  0.5637
  762TIP3   OH223776   1.089   6.735   3.008 -0.4516  0.1233 -0.0325
  762TIP3    H123777   1.135   6.752   3.090 -1.2456 -0.8561  0.6308
  762TIP3    H223778   1.021   6.672   3.031 -0.6805 -0.1708 -1.4480
  763TIP3   OH223779   6.627   3.977   1.896  0.0981 -0.0109  0.4253
  763TIP3    H123780   6.635   4.007   1.987 -0.8329 -0.2307  0.5862
  763TIP3    H223781   6.688   4.033   1.848 -1.4061  2.0259  0.7516
  764TIP3   OH223782   4.088   0.132   1.282 -0.7935  0.8685 -0.3846
  764TIP3    H123783   4.100   0.038   1.296 -2.2529  0.6734 -0.2785
  764TIP3    H223784   4.162   0.158   1.227  0.9286  0.1487  1.4821
  765TIP3   OH223785   3.062   6.704   4.508 -0.4583 -0.0494 -0.6576
  765TIP3    H123786   3.145   6.750   4.509 -0.2573 -0.4085 -0.0552
  765TIP3    H223787   3.016   6.737   4.431 -0.6076  1.6607  0.1136
  766TIP3   OH223788   3.489   3.824   5.385 -0.5395  0.1259 -0.1841
  766TIP3    H123789   3.479   3.753   5.448  0.2347 -0.3273 -0.5623
  766TIP3    H223790   3.500   3.902   5.439 -2.1224  0.0890  0.2407
  767TIP3   OH223791   3.461   0.141   3.939  0.0687  0.1507  0.0729
  767TIP3    H123792   3.501   0.194   4.007 -0.6767  0.2690  0.4382
  767TIP3    H223793   3.387   0.193   3.908  1.0523  0.6068 -1.6502
  768TIP3   OH223794   5.647   2.130   0.692 -0.0035 -0.6127 -0.5829
  768TIP3    H123795   5.562   2.089   0.673  0.4568 -0.5612 -3.0248
  768TIP3    H223796   5.635   2.222   0.668 -0.0474  0.0380  1.7501
  769TIP3   OH223797   3.051   2.740   2.797 -0.1105 -0.0329  0.2713
  769TIP3    H123798   3.055   2.776   2.709 -1.1452  0.5951  0.4504
  769TIP3    H223799   3.111   2.666   2.796 -2.3100 -1.9504 -1.8587
  770TIP3   OH223800   0.772   2.238  10.571 -0.2675 -0.2256  0.5696
  770TIP3    H123801   0.775   2.329  10.600 -1.1877  0.2961 -0.8388
  770TIP3    H223802   0.791   2.187  10.650 -1.1281  1.1424  1.7287
  771TIP3   OH223803   3.576   0.251   0.091 -0.2127 -0.0638 -0.0780
  771TIP3    H123804   3.622   0.288   0.166 -0.7640  0.0834  0.1873
  771TIP3    H223805   3.618   0.166   0.076  0.2550  0.1407  0.0545
  772TIP3   OH223806   6.178   0.455  11.577  0.2811  0.3783  0.3717
  772TIP3    H123807   6.248   0.487  11.521 -0.5311  2.2511  0.3839
  772TIP3    H223808   6.102   0.508  11.555 -0.8908 -0.9369  1.0686
  773TIP3   OH223809   4.939   6.372   1.058  0.1856  0.2508  0.2188
  773TIP3    H123810   4.889   6.447   1.088  0.6006  1.1515 -1.2379
  773TIP3    H223811   5.026   6.385   1.096  0.4909  0.9713 -0.6909
  774TIP3   OH223812   4.939   3.526  15.448 -0.2326  0.2246 -0.1423
  774TIP3    H123813   4.908   3.447  15.402  0.6819 -0.8600  1.0208
  774TIP3    H223814   4.933   3.503  15.540  0.8637  1.2067  0.1896
  775TIP3   OH223815   0.518   6.806  16.891  1.0594 -0.6743 -0.3022
  775TIP3    H123816   0.528   6.827  16.984  1.5226  1.9841 -0.8924
  775TIP3    H223817   0.445   6.743  16.889 -0.3275  0.7493  1.7055
  776TIP3   OH223818   5.784   3.364  11.005 -0.1182  0.6395 -0.3223
  776TIP3    H123819   5.755   3.438  10.952 -0.1081  0.7989 -0.1099
  776TIP3    H223820   5.837   3.311  10.946  0.5075  1.2004 -0.2764
  777TIP3   OH223821   3.275   6.587  14.281 -0.4289  0.1679  0.2458
  777TIP3    H123822   3.347   6.630  14.235 -0.0433  0.9352  1.5237
  777TIP3    H223823   3.311   6.503  14.310 -0.3612  0.1208  0.0277
  778TIP3   OH223824   2.040   6.126   2.074 -0.2201  0.6187  0.1447
  778TIP3    H123825   2.031   6.222   2.074  0.5418  0.6978 -0.4352
  778TIP3    H223826   1.950   6.094   2.071 -0.4670  1.3272 -0.4299
  779TIP3   OH223827   4.935   2.942  13.651  0.1607 -0.8672  1.1045
  779TIP3    H123828   4.849   2.977  13.674  0.8426  2.0871 -0.3345
  779TIP3    H223829   4.997   2.997  13.698  1.3160 -0.3524 -0.8879
  780TIP3   OH223830   2.341   4.425  16.177 -0.5489 -0.1446  0.1608
  780TIP3    H123831   2.252   4.459  16.181  0.2492  2.7516 -2.1586
  780TIP3    H223832   2.333   4.341  16.132 -1.9653  2.0187 -4.2559
  781TIP3   OH223833   2.770   5.050  17.196 -0.0301  0.8289  0.5788
  781TIP3    H123834   2.751   4.969  17.149  1.2513 -0.0132  1.4720
  781TIP3    H223835   2.716   5.116  17.152 -1.4709 -0.5820  0.1401
  782TIP3   OH223836   1.496   0.417   2.451  0.2087 -0.2260 -0.3559
  782TIP3    H123837   1.531   0.452   2.533  0.6743  0.9843 -1.0431
  782TIP3    H223838   1.543   0.335   2.438  0.3809 -0.2559  0.4168
  783TIP3   OH223839   4.655   2.708  13.312  0.0931 -0.2173 -0.1635
  783TIP3    H123840   4.630   2.775  13.375 -0.6401 -1.0669  0.4692
  783TIP3    H223841   4.743   2.734  13.283 -0.4483  1.4161 -0.5031
  784TIP3   OH223842   4.422   5.729  11.031  0.0207 -0.8013 -0.2760
  784TIP3    H123843   4.388   5.713  10.943  1.6355 -0.5272 -0.9879
  784TIP3    H223844   4.377   5.809  11.059 -0.2865 -0.7128 -0.9813
  785TIP3   OH223845   4.615   2.091   1.456  0.4249  0.2342 -0.1589
  785TIP3    H123846   4.637   2.165   1.399  1.6767  0.1566  0.1996
  785TIP3    H223847   4.556   2.129   1.522  0.7011  0.8228 -0.2383
  786TIP3   OH223848   4.309   0.570   4.680 -0.4337  0.1781  0.1552
  786TIP3    H123849   4.401   0.594   4.666 -0.7130  0.8373 -0.6694
  786TIP3    H223850   4.260   0.647   4.651 -1.2645 -0.3615  0.1029
  787TIP3   OH223851   1.708   5.220  11.356 -0.1910 -0.2903 -0.1477
  787TIP3    H123852   1.786   5.264  11.390 -0.2444 -0.4923  0.2418
  787TIP3    H223853   1.698   5.143  11.412 -0.1938 -0.7133 -0.7109
  788TIP3   OH223854   6.528   0.832   4.332 -0.4609  0.5127 -0.4338
  788TIP3    H123855   6.553   0.923   4.318  1.6795 -0.1276 -1.1284
  788TIP3    H223856   6.606   0.782   4.309 -1.0721 -1.4278  1.4212
  789TIP3   OH223857   4.087   5.875   2.423 -0.7060  0.2476 -0.0278
  789TIP3    H123858   4.130   5.960   2.435 -1.4805  0.3292  3.2824
  789TIP3    H223859   4.010   5.895   2.368  0.8143  0.9863 -1.9985
  790TIP3   OH223860   5.377   3.287  16.856  0.4227 -0.0459  0.0382
  790TIP3    H123861   5.472   3.299  16.868  0.6192 -2.1790  1.2233
  790TIP3    H223862   5.351   3.356  16.795  2.7718  0.4921 -0.4498
  791TIP3   OH223863   4.475   1.621  11.963  0.5193  0.0216 -0.1084
  791TIP3    H123864   4.511   1.658  11.883 -1.0358 -1.2640 -1.4627
  791TIP3    H223865   4.381   1.616  11.947  0.3684 -1.9153  1.0913
  792TIP3   OH223866   3.173   0.876  13.782 -0.5804 -0.6872  0.4283
  792TIP3    H123867   3.172   0.967  13.753 -0.9895 -0.5367  0.9062
  792TIP3    H223868   3.244   0.836  13.732 -1.1436 -0.3908 -0.6502
  793TIP3   OH223869   3.239   3.884   4.964 -0.1432  0.1809 -0.1283
  793TIP3    H123870   3.265   3.967   4.924  1.4912  0.4855  1.4457
  793TIP3    H223871   3.245   3.900   5.058 -0.6501 -1.4693  0.2095
  794TIP3   OH223872   1.262   5.085   4.625  0.2250 -0.6963  0.1026
  794TIP3    H123873   1.323   5.137   4.677  1.0867 -0.6802 -0.8718
  794TIP3    H223874   1.189   5.143   4.607 -0.1911 -0.7705  1.4489
  795TIP3   OH223875   4.849   1.511   1.648 -0.0200 -0.1449  0.1784
  795TIP3    H123876   4.863   1.515   1.553 -0.7447  1.2037  0.0940
  795TIP3    H223877   4.897   1.587   1.682 -0.7737  0.0832  0.7466
  796TIP3   OH223878   3.849   5.373   4.668 -0.1296  0.2147  0.1949
  796TIP3    H123879   3.821   5.443   4.609 -0.4647  1.4301  1.7508
  796TIP3    H223880   3.784   5.304   4.655  0.8771 -0.3974 -2.2468
  797TIP3   OH223881   5.995   4.899  14.108 -0.5105  0.0372  0.4520
  797TIP3    H123882   5.967   4.842  14.179  0.4946 -0.2111  0.6686
  797TIP3    H223883   5.923   4.961  14.096  0.6372  2.3919  4.1168
  798TIP3   OH223884   3.960   6.247   4.003  0.1168 -0.5843 -0.0536
  798TIP3    H123885   3.980   6.336   3.974  0.7891 -0.8621 -0.4643
  798TIP3    H223886   4.005   6.190   3.940  1.5246 -1.1993  1.4240
  799TIP3   OH223887   1.678   5.977   3.315  0.4303 -0.7130 -0.3498
  799TIP3    H123888   1.700   5.962   3.223 -0.7303 -0.5504 -0.6696
  799TIP3    H223889   1.681   6.072   3.325  1.8018 -0.7770  0.1273
  800TIP3   OH223890   0.813   2.043  14.037 -0.1464  0.5741  0.1705
  800TIP3    H123891   0.728   2.074  14.069 -0.8163  0.1955 -1.1428
  800TIP3    H223892   0.821   1.954  14.071  0.4312  1.1253  1.5281
  801TIP3   OH223893   5.093   5.110   1.942 -0.1386  0.1248 -0.4565
  801TIP3    H123894   5.060   5.183   1.890 -0.5462  0.4084  0.1840
  801TIP3    H223895   5.168   5.147   1.989  0.2303 -0.1311 -0.8278
  802TIP3   OH223896   6.296   1.282   0.084 -0.5997  0.9750  0.4122
  802TIP3    H123897   6.323   1.337   0.010 -0.0651 -0.5178 -0.5444
  802TIP3    H223898   6.372   1.281   0.142 -0.3520  0.6686  0.0833
  803TIP3   OH223899   5.499   2.557  14.775  0.3391 -0.7685 -0.4052
  803TIP3    H123900   5.547   2.480  14.802  2.1794 -0.1324 -1.6686
  803TIP3    H223901   5.430   2.567  14.841  0.4501 -3.0707  0.1427
  804TIP3   OH223902   1.493   4.550  16.400 -0.0236 -0.5975 -0.2080
  804TIP3    H123903   1.432   4.476  16.394  1.9858 -2.3107 -0.3555
  804TIP3    H223904   1.528   4.559  16.312 -0.7005  1.0073 -0.3518
  805TIP3   OH223905   3.535   2.072  13.831 -0.1257  0.3424 -0.5677
  805TIP3    H123906   3.455   2.054  13.880 -0.1291  1.0046 -0.3239
  805TIP3    H223907   3.530   2.014  13.754  1.0535 -2.6648  1.4028
  806TIP3   OH223908   1.720   1.918  15.574 -0.6046  0.3016  0.4375
  806TIP3    H123909   1.636   1.871  15.575 -0.8322  0.6651 -0.7388
  806TIP3    H223910   1.780   1.858  15.530  0.1963 -0.6359  2.6725
  807TIP3   OH223911   6.719   1.461  12.207  0.2073  0.5560 -0.1712
  807TIP3    H123912   6.731   1.537  12.264 -0.4290  0.0705  0.6277
  807TIP3    H223913   6.630   1.469  12.174  0.1993  0.2443 -0.2266
  808TIP3   OH223914   4.295   3.460   3.606 -0.3815  0.4133  0.8544
  808TIP3    H123915   4.389   3.446   3.611 -0.7564 -2.4042  1.9835
  808TIP3    H223916   4.269   3.415   3.526 -0.7721  1.5139  0.3363
  809TIP3   OH223917   0.002   4.570  14.593 -0.3577  0.5532  0.3938
  809TIP3    H123918  -0.084   4.528  14.590  0.1982 -0.7533  1.6384
  809TIP3    H223919   0.050   4.531  14.520 -0.0215 -0.6410  1.2192
  810TIP3   OH223920   2.142   4.428   3.649  0.2486 -0.0184 -0.4827
  810TIP3    H123921   2.188   4.426   3.565  0.9955  1.2524 -0.1373
  810TIP3    H223922   2.142   4.520   3.674  1.6132 -0.5377  1.7448
  811TIP3   OH223923   2.546   6.566  13.415  0.1296 -0.1144  0.0167
  811TIP3    H123924   2.635   6.546  13.386  1.1160  0.8895  2.1977
  811TIP3    H223925   2.500   6.589  13.335  1.7010 -1.0341 -1.2174
  812TIP3   OH223926   3.504   0.259   2.850  0.1132 -0.0312 -0.2416
  812TIP3    H123927   3.453   0.309   2.786 -0.1801 -1.6001 -1.2899
  812TIP3    H223928   3.441   0.239   2.920  0.0241  0.3604 -0.2051
  813TIP3   OH223929   6.253   5.486  15.258  0.3440  0.0793  0.1765
  813TIP3    H123930   6.278   5.412  15.203 -0.7210 -0.6302  0.5889
  813TIP3    H223931   6.183   5.529  15.210 -0.3011 -0.2943  0.7596
  814TIP3   OH223932   4.497   1.263  16.608 -0.1578 -0.2447  0.0699
  814TIP3    H123933   4.558   1.246  16.537 -1.5415  1.3913 -1.6269
  814TIP3    H223934   4.496   1.183  16.660  2.3790 -0.7762 -0.5930
  815TIP3   OH223935   0.691   6.383   4.633  0.7089  0.3005 -0.0908
  815TIP3    H123936   0.707   6.322   4.705 -1.6560 -0.4183 -0.0661
  815TIP3    H223937   0.691   6.328   4.554 -1.0915  0.2440 -0.1037
  816TIP3   OH223938   4.933   6.186  13.989 -0.3388 -0.3610 -0.3722
  816TIP3    H123939   4.887   6.235  13.921 -1.2560 -0.5535  0.1022
  816TIP3    H223940   4.965   6.108  13.945  1.7491  0.9412 -1.3121
  817TIP3   OH223941   1.290   3.602  11.369  0.3165 -0.4447  0.3101
  817TIP3    H123942   1.231   3.613  11.444 -1.0271  1.1143 -0.9236
  817TIP3    H223943   1.247   3.646  11.297  1.8164 -1.4823 -1.3083
  818TIP3   OH223944   0.117   1.679  13.135 -0.2692  0.6000 -0.6212
  818TIP3    H123945   0.138   1.597  13.089  0.5796  0.8996 -0.7713
  818TIP3    H223946   0.053   1.653  13.201  0.2365 -0.2484 -0.4471
  819TIP3   OH223947   0.115   3.846   0.725  0.2087  0.4674 -0.0962
  819TIP3    H123948   0.101   3.918   0.786 -0.6532  0.2422 -0.0121
  819TIP3    H223949   0.049   3.781   0.749  1.5031 -0.7309  0.3790
  820TIP3   OH223950   5.533   3.373  12.416  0.4714 -0.7307  0.4104
  820TIP3    H123951   5.488   3.450  12.452  0.8858  0.0156 -0.6364
  820TIP3    H223952   5.607   3.409  12.368  1.1008 -1.8427  0.5249
  821TIP3   OH223953   3.677   2.115   1.399  0.3037 -0.3683 -0.0740
  821TIP3    H123954   3.683   2.183   1.333  0.0639 -0.5517 -0.2868
  821TIP3    H223955   3.597   2.066   1.377 -0.0364 -0.1473  0.6141
  822TIP3   OH223956   1.447   6.189  13.257 -0.6423  0.1367 -0.2037
  822TIP3    H123957   1.444   6.102  13.298 -1.4051 -0.2360 -1.0272
  822TIP3    H223958   1.532   6.224  13.284 -0.2941 -0.8871  0.1001
  823TIP3   OH223959   3.817   2.196   2.570  0.0346  0.4069  0.1184
  823TIP3    H123960   3.795   2.232   2.655  0.2815  1.1531 -0.1253
  823TIP3    H223961   3.815   2.271   2.511 -1.6467 -0.3392 -0.8387
  824TIP3   OH223962   1.905   5.189  12.839 -1.0549  0.5398  0.3601
  824TIP3    H123963   1.976   5.129  12.816 -1.9883 -0.8793  1.0580
  824TIP3    H223964   1.891   5.241  12.760  0.4433  0.5543  0.0684
  825TIP3   OH223965   6.197   0.626   3.618  0.2591  0.3441 -0.4592
  825TIP3    H123966   6.226   0.684   3.687 -0.5972  0.7451 -0.4338
  825TIP3    H223967   6.277   0.608   3.567  0.5934  1.2511 -0.2669
  826TIP3   OH223968   6.284   4.289  13.570 -0.1352  0.1521  0.0868
  826TIP3    H123969   6.242   4.295  13.484 -0.8281 -1.8727  0.2298
  826TIP3    H223970   6.256   4.368  13.616 -1.1270  0.4500 -0.9742
  827TIP3   OH223971   6.670   0.880   0.952 -0.0812 -0.1824  0.1464
  827TIP3    H123972   6.730   0.807   0.938  0.0775 -0.6845  2.8867
  827TIP3    H223973   6.665   0.924   0.867  1.8260 -1.8560 -0.9119
  828TIP3   OH223974   0.587   5.917   4.632  0.4485 -0.6512  0.2897
  828TIP3    H123975   0.512   5.964   4.595  0.5811 -1.4900 -1.1446
  828TIP3    H223976   0.593   5.837   4.579  2.6968 -0.3245 -0.0452
  829TIP3   OH223977   2.371   4.800   3.656  0.5182 -0.4766  0.8626
  829TIP3    H123978   2.453   4.848   3.672 -0.0756  0.2982  1.6986
  829TIP3    H223979   2.381   4.765   3.568  1.2033  0.7455  0.4211
  830TIP3   OH223980   5.451   1.552  16.862 -0.0190 -0.4584 -0.2967
  830TIP3    H123981   5.494   1.636  16.878 -1.0428  0.3435 -1.4986
  830TIP3    H223982   5.358   1.571  16.874 -0.3531 -1.1405 -1.6235
  831TIP3   OH223983   0.173   6.159  10.095  0.4519  0.2881  0.6612
  831TIP3    H123984   0.228   6.208  10.156  0.7664  0.5622  0.1613
  831TIP3    H223985   0.084   6.174  10.125  0.6635 -0.5818  1.7968
  832TIP3   OH223986   2.361   4.438   3.019  0.1804 -0.2529 -0.2479
  832TIP3    H123987   2.356   4.343   3.006  1.0709 -0.4397  0.6074
  832TIP3    H223988   2.280   4.472   2.982 -0.1509 -1.3523 -0.5661
  833TIP3   OH223989   4.333   2.868  12.265 -0.6378 -0.4318 -0.2925
  833TIP3    H123990   4.392   2.933  12.228 -1.3451  1.4057  1.6375
  833TIP3    H223991   4.391   2.805  12.307  0.0106 -0.0759 -0.6347
  834TIP3   OH223992   1.249   0.448   5.117 -0.0120 -0.6728 -0.4692
  834TIP3    H123993   1.188   0.505   5.163 -2.1889 -2.5790 -0.8186
  834TIP3    H223994   1.336   0.484   5.138 -1.2121  2.4272 -0.3370
  835TIP3   OH223995   2.483   5.957  15.471 -0.0422  0.1782 -0.0169
  835TIP3    H123996   2.516   5.892  15.533 -1.0265  0.1246  0.4687
  835TIP3    H223997   2.446   5.907  15.400  1.3646  0.2411 -0.8363
  836TIP3   OH223998   5.260   0.351  15.496 -0.0581  0.2387  0.2856
  836TIP3    H123999   5.173   0.385  15.477 -0.6317 -0.9788  0.6404
  836TIP3    H224000   5.292   0.404  15.568 -0.7350  0.3381  0.5164
  837TIP3   OH224001   1.761   1.707  15.859  0.2925 -0.0965  0.2778
  837TIP3    H124002   1.788   1.798  15.851 -0.4121  0.1068  0.1966
  837TIP3    H224003   1.700   1.693  15.786  1.1739 -0.9231 -0.3407
  838TIP3   OH224004   5.989   2.131   4.599 -0.6379  0.0851  0.5654
  838TIP3    H124005   5.986   2.042   4.633 -2.5114 -1.3221 -2.7444
  838TIP3    H224006   6.064   2.131   4.539  1.6037  1.9923  3.1168
  839TIP3   OH224007   4.316   5.455  14.078 -0.7078  0.1552  0.4914
  839TIP3    H124008   4.405   5.421  14.087 -0.3976  0.9131  0.3956
  839TIP3    H224009   4.287   5.469  14.168 -1.1088 -1.0347  0.5511
  840TIP3   OH224010   4.545   0.586   2.425 -0.0149 -0.8383  0.1197
  840TIP3    H124011   4.618   0.526   2.437  0.8333 -0.4310 -2.3967
  840TIP3    H224012   4.522   0.577   2.333 -1.6034  0.7836  0.3077
  841TIP3   OH224013   2.604   1.135   4.304 -0.0236  0.5634 -0.5035
  841TIP3    H124014   2.537   1.184   4.351  0.6465 -0.5798  1.8192
  841TIP3    H224015   2.558   1.092   4.232 -1.4275  1.1808  0.0074
  842TIP3   OH224016   5.152   2.005  15.321  0.1988 -0.6018  0.5133
  842TIP3    H124017   5.100   2.048  15.254 -1.7896 -0.5174  2.0068
  842TIP3    H224018   5.235   2.053  15.322 -2.2951  4.4184  3.0391
  843TIP3   OH224019   1.725   6.427  12.430  0.2664  0.2338 -0.5449
  843TIP3    H124020   1.752   6.453  12.518 -0.5400 -0.5615 -0.0368
  843TIP3    H224021   1.702   6.509  12.386 -2.4860  0.4538  1.0924
  844TIP3   OH224022   5.939   3.136  11.951 -0.5399 -0.5389 -0.4428
  844TIP3    H124023   5.977   3.094  12.028 -2.0967  0.6736  1.0726
  844TIP3    H224024   5.893   3.065  11.906  2.2537 -1.7444 -1.6184
  845TIP3   OH224025   5.981   2.623  16.606  0.1065 -0.4590 -0.2511
  845TIP3    H124026   6.063   2.575  16.616  0.7048 -0.0048 -2.3469
  845TIP3    H224027   6.004   2.698  16.550 -1.5338  0.2483 -0.0390
  846TIP3   OH224028   2.646   1.471  15.567 -0.1628  0.1045 -0.0601
  846TIP3    H124029   2.621   1.401  15.628  0.7081  1.7888  2.3786
  846TIP3    H224030   2.735   1.449  15.542  0.3710  0.6307  1.2637
  847TIP3   OH224031   5.649   2.398   0.626 -0.1535 -0.6609 -0.0398
  847TIP3    H124032   5.686   2.375   0.541  0.8847  1.7870 -0.3567
  847TIP3    H224033   5.562   2.432   0.606  0.4096  0.7123 -0.2916
  848TIP3   OH224034   5.495   6.817   4.924  0.1336  0.0571  0.0943
  848TIP3    H124035   5.415   6.766   4.917 -0.0752  0.4982 -1.0245
  848TIP3    H224036   5.498   6.848   5.014 -1.0230  0.1411  0.1083
  849TIP3   OH224037   0.953   0.197  15.845  0.2393 -0.1716  0.3565
  849TIP3    H124038   0.914   0.274  15.887 -0.5395 -1.0106  1.2051
  849TIP3    H224039   0.986   0.230  15.761  0.5567  1.2352  1.0003
  850TIP3   OH224040   3.483   1.687   3.354 -0.4256 -0.5744  0.0332
  850TIP3    H124041   3.488   1.760   3.293 -1.9933  0.1305  0.6945
  850TIP3    H224042   3.564   1.695   3.406 -1.2147  1.6354  1.0730
  851TIP3   OH224043   4.909   3.418  13.427 -0.4811 -0.3181 -0.2454
  851TIP3    H124044   4.908   3.446  13.518 -1.3112 -0.4109 -0.2126
  851TIP3    H224045   4.837   3.467  13.387 -0.3985 -0.6016 -0.7464
  852TIP3   OH224046   1.598   6.458   2.956 -0.1280  0.1751 -0.5190
  852TIP3    H124047   1.649   6.539   2.947  0.6562 -0.4707 -2.2673
  852TIP3    H224048   1.507   6.487   2.950  0.0258  1.1535  1.0674
  853TIP3   OH224049   2.325   5.529   2.099 -0.8201  0.7094  0.1728
  853TIP3    H124050   2.415   5.538   2.067 -1.2476  1.2581 -0.9026
  853TIP3    H224051   2.307   5.436   2.093 -0.1010  0.4873  1.0659
  854TIP3   OH224052   1.252   4.850  11.237 -0.1793  0.0389  0.4819
  854TIP3    H124053   1.185   4.786  11.257 -0.1261 -0.5517 -1.0965
  854TIP3    H224054   1.333   4.799  11.231 -0.0995  0.2751 -0.5664
  855TIP3   OH224055   5.130   2.571   0.172  0.0590  0.1412  0.0168
  855TIP3    H124056   5.073   2.511   0.126 -0.4275  0.7032 -0.1322
  855TIP3    H224057   5.073   2.612   0.238 -0.6132  2.9765 -2.0848
  856TIP3   OH224058   6.431   3.112   4.319 -0.1926 -0.2093  0.4835
  856TIP3    H124059   6.462   3.022   4.311 -1.3153 -0.4970 -1.2475
  856TIP3    H224060   6.509   3.166   4.303 -0.0236 -0.9003 -1.2612
  857TIP3   OH224061   4.045   0.571  11.806  0.0202  0.1868 -0.7741
  857TIP3    H124062   4.015   0.609  11.888  1.7444  2.3545 -1.0670
  857TIP3    H224063   4.121   0.517  11.830 -0.4993 -0.5616 -0.7670
  858TIP3   OH224064   6.302   1.816   4.260  0.1257  0.2633  0.2377
  858TIP3    H124065   6.315   1.806   4.166 -1.5897 -1.7097  0.1360
  858TIP3    H224066   6.223   1.869   4.269  0.1102  0.1905  0.5612
  859TIP3   OH224067   6.482   6.396  16.529  0.8103 -0.2728 -0.8714
  859TIP3    H124068   6.477   6.303  16.553  0.5204  0.0786  0.4774
  859TIP3    H224069   6.392   6.419  16.506  0.2032  0.4269  1.8466
  860TIP3   OH224070   3.676   1.731   0.193 -0.0992 -0.0356 -0.2977
  860TIP3    H124071   3.661   1.692   0.280  1.2022 -1.3843 -0.6398
  860TIP3    H224072   3.612   1.688   0.136 -0.1966  0.0211 -0.2324
  861TIP3   OH224073   0.288   4.959   1.214  0.1876 -0.0372  0.2196
  861TIP3    H124074   0.303   5.024   1.146  0.2396  1.9722  2.0382
  861TIP3    H224075   0.195   4.938   1.207  0.3709 -0.5356 -0.9881
  862TIP3   OH224076   0.405   2.096  15.689  0.0508  0.6075  0.1043
  862TIP3    H124077   0.342   2.161  15.658 -2.1872 -0.6864  1.6501
  862TIP3    H224078   0.351   2.023  15.721  2.3929 -1.3468 -0.0621
  863TIP3   OH224079   5.484   2.099   2.621 -0.2146  0.2596  0.1557
  863TIP3    H124080   5.554   2.109   2.556  0.6793 -0.3376  1.0000
  863TIP3    H224081   5.430   2.177   2.611 -0.3811 -0.0391 -1.6244
  864TIP3   OH224082   0.925   4.284  17.090 -0.2989  0.7136  0.4356
  864TIP3    H124083   1.015   4.303  17.116  0.0391  0.9156 -0.8303
  864TIP3    H224084   0.904   4.350  17.024 -0.2531 -1.1915 -1.6132
  865TIP3   OH224085   5.167   1.258   6.272  0.1684  0.3968  0.2725
  865TIP3    H124086   5.213   1.236   6.353  1.1352 -0.1441 -0.3972
  865TIP3    H224087   5.175   1.179   6.217  1.2517  1.4001 -1.0962
  866TIP3   OH224088   3.720   1.097  16.309 -0.0913  0.4493  0.8143
  866TIP3    H124089   3.666   1.054  16.375 -0.5072 -0.3864 -0.0505
  866TIP3    H224090   3.681   1.184  16.301 -0.6162  0.2409  1.0078
  867TIP3   OH224091   6.170   1.499   0.812 -0.0055 -0.1346 -0.1049
  867TIP3    H124092   6.177   1.413   0.853 -0.6448 -0.3095 -0.3363
  867TIP3    H224093   6.257   1.537   0.820 -0.0929 -0.1935  1.3197
  868TIP3   OH224094   3.931   3.033   1.235  0.4102 -0.2677  0.6431
  868TIP3    H124095   3.903   2.979   1.162  1.8408  0.1564 -0.2640
  868TIP3    H224096   3.941   2.972   1.308  1.5601 -1.1712 -0.2377
  869TIP3   OH224097   6.456   1.034  10.667  0.5082 -0.1585 -0.1476
  869TIP3    H124098   6.410   1.023  10.751 -1.2723 -0.1238 -1.0577
  869TIP3    H224099   6.535   1.083  10.689 -1.2272  2.2940  1.1829
  870TIP3   OH224100   5.268   1.623   3.572  0.6359 -0.0334  0.1028
  870TIP3    H124101   5.245   1.686   3.504  0.4167 -0.5459 -0.3052
  870TIP3    H224102   5.185   1.597   3.611  0.5558 -1.2046 -0.7650
  871TIP3   OH224103   6.432   3.910  10.559 -0.2652 -0.1721 -0.0799
  871TIP3    H124104   6.417   3.835  10.617  0.5908  0.3741  0.8740
  871TIP3    H224105   6.526   3.928  10.567 -0.5093  1.1789 -0.0576
  872TIP3   OH224106   1.793   2.923   2.845  0.0025  0.0168  0.2187
  872TIP3    H124107   1.739   2.844   2.845  0.2845 -0.1930  1.2723
  872TIP3    H224108   1.732   2.994   2.867 -0.1944  0.0543 -0.4365
  873TIP3   OH224109   4.657   6.132   2.898  0.0162 -0.7243 -0.6993
  873TIP3    H124110   4.669   6.061   2.960  0.2236 -0.2755 -0.2214
  873TIP3    H224111   4.740   6.138   2.850  0.4010 -0.0842  0.0240
  874TIP3   OH224112   2.880   1.716   0.069  0.4907 -0.2004  0.0696
  874TIP3    H124113   2.877   1.741  -0.023 -1.0577 -0.9047 -0.1016
  874TIP3    H224114   2.880   1.799   0.117 -0.8904  0.1809 -0.5406
  875TIP3   OH224115   1.242   2.011   5.058  0.0686  0.0246  0.7337
  875TIP3    H124116   1.327   2.049   5.037 -1.1018  2.5963  0.1096
  875TIP3    H224117   1.229   1.942   4.993  0.0557  2.3127 -1.8974
  876TIP3   OH224118   4.591   1.785   4.758  0.4653  0.0477  0.0514
  876TIP3    H124119   4.572   1.823   4.672 -0.3553 -0.8989 -0.2091
  876TIP3    H224120   4.581   1.857   4.820 -2.7454 -0.0362 -0.2224
  877TIP3   OH224121   0.375   0.559   5.397 -0.2400  0.2160  0.3406
  877TIP3    H124122   0.455   0.605   5.422  0.2168  0.1348 -0.9397
  877TIP3    H224123   0.373   0.482   5.454  1.0772 -0.2579 -0.2183
  878TIP3   OH224124   2.960   4.851  15.964  0.0830 -0.3382 -0.1197
  878TIP3    H124125   2.904   4.907  16.019  1.2551 -0.6908  1.5144
  878TIP3    H224126   2.940   4.762  15.994  1.5114 -0.4623  0.5050
  879TIP3   OH224127   6.204   1.336   0.390  0.0579  0.0684 -0.0341
  879TIP3    H124128   6.151   1.265   0.353  1.3205 -0.9639  0.0346
  879TIP3    H224129   6.145   1.383   0.449 -1.5181  0.6659 -1.9732
  880TIP3   OH224130   6.048   6.409   1.717  0.1859 -0.2521  0.2575
  880TIP3    H124131   6.085   6.333   1.671 -0.5101 -0.5475  0.1636
  880TIP3    H224132   6.124   6.459   1.746  0.6682  0.1596 -1.5830
  881TIP3   OH224133   4.625   4.178  11.817 -0.1828  0.2402  0.1061
  881TIP3    H124134   4.662   4.185  11.729 -0.9834 -0.3764 -0.2920
  881TIP3    H224135   4.672   4.244  11.868 -0.9889  1.9225 -1.2175
  882TIP3   OH224136   5.127   3.253   1.622  0.4454 -0.5523  0.5369
  882TIP3    H124137   5.110   3.166   1.585 -0.1318  0.3723 -1.5188
  882TIP3    H224138   5.040   3.288   1.642  0.3470  0.8323 -1.9121
  883TIP3   OH224139   4.348   0.959  12.793 -0.7381 -0.1788  0.5650
  883TIP3    H124140   4.393   0.925  12.871 -0.9216 -1.9796 -0.0581
  883TIP3    H224141   4.286   0.890  12.769 -4.0797  2.2496  1.4734
  884TIP3   OH224142   1.303   2.750  12.834  0.2120 -0.3662 -0.1693
  884TIP3    H124143   1.316   2.829  12.885 -0.5634  1.4802 -2.6259
  884TIP3    H224144   1.374   2.750  12.770 -0.0170 -1.4683 -0.4529
  885TIP3   OH224145   2.623   4.435  16.132 -0.1392  0.5969  0.1396
  885TIP3    H124146   2.533   4.459  16.111 -0.9979 -2.4449 -0.2741
  885TIP3    H224147   2.615   4.356  16.185  2.2902  0.6169  0.6691
  886TIP3   OH224148   6.296   4.018   5.897 -0.6736 -0.1995 -0.2380
  886TIP3    H124149   6.389   4.006   5.913 -0.8679 -0.0838  1.0638
  886TIP3    H224150   6.256   3.936   5.926 -0.9755 -0.2567 -0.8045
  887TIP3   OH224151   2.197   0.722  10.565 -0.0085  0.4792  0.2554
  887TIP3    H124152   2.198   0.730  10.470  0.7132  2.5002  0.3984
  887TIP3    H224153   2.285   0.749  10.593 -0.9981  2.4742  1.6409
  888TIP3   OH224154   0.944   1.824  12.884  0.3838 -0.0669 -0.2506
  888TIP3    H124155   0.986   1.903  12.849 -0.6568  0.3258 -0.6767
  888TIP3    H224156   0.954   1.759  12.814 -0.1893  0.1977 -0.5889
  889TIP3   OH224157   0.954   4.730  17.075 -0.0102  0.0363  0.0436
  889TIP3    H124158   0.881   4.743  17.014 -0.4877 -0.2037  0.5531
  889TIP3    H224159   1.028   4.775  17.034 -0.7165  1.2323  0.0488
  890TIP3   OH224160   4.810   3.734   3.091 -0.0445 -0.5243 -0.3899
  890TIP3    H124161   4.770   3.803   3.144  1.2521 -1.5781  2.1476
  890TIP3    H224162   4.741   3.707   3.031 -1.0845  1.8396 -0.3599
  891TIP3   OH224163   0.783   4.893  13.106 -0.2538 -0.4283 -0.2652
  891TIP3    H124164   0.709   4.936  13.149  0.4410  0.8662 -0.3091
  891TIP3    H224165   0.758   4.800  13.102 -1.3890 -0.1923  0.7047
  892TIP3   OH224166   5.357   3.464  15.051  0.5060 -0.2442 -0.9034
  892TIP3    H124167   5.316   3.458  15.137  0.1874  0.3375 -1.0067
  892TIP3    H224168   5.284   3.459  14.989  0.4693  1.5442 -1.0667
  893TIP3   OH224169   0.229   6.634   3.805 -0.4251 -0.4750  0.3421
  893TIP3    H124170   0.158   6.694   3.785 -0.7921 -0.5611  1.3240
  893TIP3    H224171   0.231   6.574   3.730 -0.1318  0.6567 -0.5875
  894TIP3   OH224172   0.882   5.411   4.219 -0.4236 -0.1490 -0.1897
  894TIP3    H124173   0.867   5.328   4.264  0.3323  0.2491  0.8330
  894TIP3    H224174   0.962   5.398   4.169 -0.2878 -0.0325 -0.0046
  895TIP3   OH224175   3.739   6.560   6.115 -0.0165 -0.5560 -0.3622
  895TIP3    H124176   3.814   6.545   6.058 -0.0833 -0.4248 -0.4836
  895TIP3    H224177   3.694   6.475   6.119  0.2166 -0.6722 -0.1757
  896TIP3   OH224178   6.331   4.558   0.406  0.0874 -0.0721 -0.4748
  896TIP3    H124179   6.242   4.526   0.389  0.3017 -0.4838 -0.8670
  896TIP3    H224180   6.319   4.633   0.463 -0.5212 -0.0663 -0.5983
  897TIP3   OH224181   3.233   0.084  13.874 -0.3846 -0.2433  1.0166
  897TIP3    H124182   3.263   0.173  13.893  0.6471 -0.1654 -0.7634
  897TIP3    H224183   3.219   0.083  13.780  1.1125 -2.3727  0.7475
  898TIP3   OH224184   6.126   2.812   0.868  0.3057 -0.6392  0.0194
  898TIP3    H124185   6.162   2.900   0.882  2.4620 -1.3348 -0.8081
  898TIP3    H224186   6.118   2.776   0.957  1.2268 -0.2886  0.2566
  899TIP3   OH224187   0.940   4.390   0.983 -0.4270 -0.6013  0.5834
  899TIP3    H124188   0.876   4.319   0.984 -1.7949  0.4977 -1.5732
  899TIP3    H224189   1.021   4.348   0.955 -0.6634 -1.6765  1.4431
  900TIP3   OH224190   5.247   4.766   3.509  0.2768  0.3550  0.4603
  900TIP3    H124191   5.324   4.715   3.534 -1.0897 -2.3809 -0.5343
  900TIP3    H224192   5.219   4.808   3.591  0.9277 -1.3062  1.5881
  901TIP3   OH224193   5.643   5.309   4.362 -0.3981 -0.7952 -0.1555
  901TIP3    H124194   5.582   5.268   4.301 -2.2771  0.6902  0.6202
  901TIP3    H224195   5.607   5.289   4.449 -0.1183  0.5937  0.3009
  902TIP3   OH224196   0.780   5.922  15.599  0.3230  0.8340 -0.3147
  902TIP3    H124197   0.701   5.869  15.585  0.4330  0.6389 -0.2060
  902TIP3    H224198   0.818   5.932  15.512  0.3623  0.6373 -0.3211
  903TIP3   OH224199   5.865   2.387  11.772  0.1794 -0.0370 -0.4722
  903TIP3    H124200   5.877   2.431  11.688  1.5327  0.5344 -0.0083
  903TIP3    H224201   5.771   2.393  11.789  0.0684  0.9868 -1.3192
  904TIP3   OH224202   0.950   3.579  13.275 -0.2281  0.5376  0.0198
  904TIP3    H124203   1.022   3.642  13.278  0.6279 -0.3310  4.4430
  904TIP3    H224204   0.871   3.632  13.268  0.4256  2.3997  3.9968
  905TIP3   OH224205   2.612   2.777  12.885  0.4571  0.2023  0.2167
  905TIP3    H124206   2.630   2.785  12.791 -0.1759  1.0693  0.1646
  905TIP3    H224207   2.682   2.827  12.927  1.7647 -1.5945  0.3213
  906TIP3   OH224208   2.514   3.119  11.114  0.0666  0.0326  0.3971
  906TIP3    H124209   2.523   3.129  11.208  2.8596  1.0347  0.1403
  906TIP3    H224210   2.486   3.205  11.083  2.7539  0.8993  0.0882
  907TIP3   OH224211   3.870   5.503   3.682 -0.9235  0.1076  0.1508
  907TIP3    H124212   3.815   5.505   3.605 -0.2703  0.5248 -0.3141
  907TIP3    H224213   3.829   5.564   3.743 -1.6349 -0.4824  0.2867
  908TIP3   OH224214   1.343   4.623   0.820  0.1780  0.1228  0.1928
  908TIP3    H124215   1.305   4.620   0.733 -0.1081 -0.3499  0.3286
  908TIP3    H224216   1.424   4.573   0.813 -0.0500 -0.2676  0.2906
  909TIP3   OH224217   6.255   6.142   6.369  0.1903  0.0051 -0.0142
  909TIP3    H124218   6.230   6.051   6.386  0.5201 -0.2409 -0.8012
  909TIP3    H224219   6.289   6.174   6.453 -0.7281 -0.3222  0.4993
  910TIP3   OH224220   4.833   1.255   1.309 -0.2871  0.0732 -0.1075
  910TIP3    H124221   4.910   1.199   1.300 -1.0008 -2.0217  4.1444
  910TIP3    H224222   4.759   1.198   1.287 -0.8289  0.6122  0.2650
  911TIP3   OH224223   0.421   3.751   6.159  0.3158 -0.3906  0.4200
  911TIP3    H124224   0.494   3.691   6.173  0.1434 -0.7373 -0.1310
  911TIP3    H224225   0.460   3.838   6.164  0.3790 -0.4687  2.4350
  912TIP3   OH224226   5.407   4.290   3.515 -0.3505  0.2650 -0.2476
  912TIP3    H124227   5.471   4.220   3.524  0.0765  0.7576  0.6673
  912TIP3    H224228   5.404   4.308   3.421  0.3376 -0.2374 -0.3706
  913TIP3   OH224229   1.453   2.655  17.199  0.1702  0.1384  0.4570
  913TIP3    H124230   1.507   2.681  17.125 -2.8048  0.9413 -1.6412
  913TIP3    H224231   1.510   2.600  17.253  2.0773 -1.8794 -3.2323
  914TIP3   OH224232   5.241   4.241   1.107 -0.4596  0.6452  0.1896
  914TIP3    H124233   5.291   4.184   1.165 -0.4913 -0.5724 -0.9326
  914TIP3    H224234   5.189   4.181   1.054 -1.4458  1.7907 -0.1873
  915TIP3   OH224235   1.860   6.396  12.023  0.1068 -0.3476  0.0277
  915TIP3    H124236   1.772   6.427  12.042  0.3886  0.4093  0.1124
  915TIP3    H224237   1.860   6.380  11.929 -0.1552 -0.4680  0.0463
  916TIP3   OH224238   1.955   5.708   1.815 -0.1080 -0.3585  0.0561
  916TIP3    H124239   2.024   5.647   1.840 -0.1009 -0.9288 -1.2344
  916TIP3    H224240   1.988   5.794   1.840 -0.1588 -0.8719  1.9938
  917TIP3   OH224241   1.999   6.610   1.803  0.3103 -0.3461  0.0307
  917TIP3    H124242   1.929   6.559   1.762  0.2409  0.4224 -0.8382
  917TIP3    H224243   2.080   6.566   1.777  0.1764 -1.0733  0.8082
  918TIP3   OH224244   4.790   3.446   2.369  0.1650 -0.2149 -0.0371
  918TIP3    H124245   4.836   3.529   2.378  0.2206 -0.2323 -0.1529
  918TIP3    H224246   4.702   3.471   2.338  0.3164 -0.2248 -0.4841
  919TIP3   OH224247   2.850   4.297  12.203 -0.7007  0.3312  0.6322
  919TIP3    H124248   2.764   4.325  12.234 -0.7096 -0.5379  1.4407
  919TIP3    H224249   2.856   4.205  12.227 -0.8240 -0.5453 -2.2947
  920TIP3   OH224250   5.265   3.365  15.298 -0.0180 -0.5296 -0.3312
  920TIP3    H124251   5.349   3.319  15.304  0.7075  0.7659 -0.1877
  920TIP3    H224252   5.204   3.311  15.349  1.0947 -0.6655  0.9024
  921TIP3   OH224253   1.562   2.153  12.255 -0.5198 -0.4835 -0.1163
  921TIP3    H124254   1.522   2.076  12.295 -2.1282 -0.0853 -0.8756
  921TIP3    H224255   1.656   2.144  12.274 -0.6231 -2.7465 -0.4027
  922TIP3   OH224256   4.519   5.489   4.239 -0.6231  0.1335 -0.0039
  922TIP3    H124257   4.613   5.484   4.257 -0.2981 -0.1468 -1.6588
  922TIP3    H224258   4.504   5.580   4.216 -0.2474 -0.2988 -2.1594
  923TIP3   OH224259   3.227   5.283  13.022 -0.3421  0.1685 -1.1204
  923TIP3    H124260   3.209   5.339  12.947  0.3723  2.5351  0.3802
  923TIP3    H224261   3.317   5.305  13.048 -0.4297 -0.8768  0.2004
  924TIP3   OH224262   2.037   4.003  15.801 -0.1292  0.1688 -0.0564
  924TIP3    H124263   2.082   4.086  15.817  1.9488 -0.6665 -1.1937
  924TIP3    H224264   2.036   3.995  15.705 -1.1164 -0.7039  0.0163
  925TIP3   OH224265   3.789   1.228  13.072 -0.1134  0.4912  0.5457
  925TIP3    H124266   3.829   1.243  12.986  0.1534 -1.0495  0.3867
  925TIP3    H224267   3.707   1.277  13.069 -1.1450 -1.2095 -1.3995
  926TIP3   OH224268   3.451   6.814   4.882  0.6701 -0.5588  0.1376
  926TIP3    H124269   3.395   6.883   4.917 -0.0378 -1.1534  0.1910
  926TIP3    H224270   3.462   6.753   4.955  2.3194  0.0987  0.4871
  927TIP3   OH224271   0.822   2.988   2.732  0.4661 -0.1940 -0.1809
  927TIP3    H124272   0.913   3.014   2.720  0.4217 -0.2770 -0.7470
  927TIP3    H224273   0.772   3.048   2.677 -0.0444  1.2592  1.7524
  928TIP3   OH224274   1.844   3.145  12.671  0.4025 -0.5972  0.4820
  928TIP3    H124275   1.831   3.072  12.611  3.1820 -1.9656  1.4226
  928TIP3    H224276   1.772   3.137  12.733 -1.4865 -0.2173 -1.5029
  929TIP3   OH224277   6.461   4.727  15.716  0.5281 -0.1736 -0.5793
  929TIP3    H124278   6.397   4.747  15.648 -0.8656 -0.1168  0.7163
  929TIP3    H224279   6.507   4.809  15.731 -1.9647  0.9621  1.3959
  930TIP3   OH224280   1.369   5.576   2.689 -0.3494  1.1588 -0.5293
  930TIP3    H124281   1.333   5.623   2.614  1.2323  1.2382 -1.2775
  930TIP3    H224282   1.365   5.640   2.761 -0.7642  1.4810 -0.8302
  931TIP3   OH224283   3.586   2.524   4.429 -0.2306  0.3814 -0.1803
  931TIP3    H124284   3.563   2.482   4.346 -0.1822  0.8660 -0.4392
  931TIP3    H224285   3.603   2.615   4.407 -2.5404  1.1034  0.6926
  932TIP3   OH224286   0.066   4.016  16.934 -0.2578  0.3484  0.2910
  932TIP3    H124287   0.032   4.084  16.991  0.9787 -0.0271  1.5519
  932TIP3    H224288   0.141   4.057  16.889 -1.2517  0.6602 -1.1566
  933TIP3   OH224289   5.978   2.846  15.352 -0.4615  0.3350  0.3203
  933TIP3    H124290   5.972   2.762  15.307  1.6220  0.2175  0.1785
  933TIP3    H224291   5.932   2.907  15.294 -1.7633 -0.6359  0.2971
  934TIP3   OH224292   6.818   1.722   2.810  0.3827  0.2447  0.3274
  934TIP3    H124293   6.848   1.764   2.891 -0.3162  0.3547  0.5350
  934TIP3    H224294   6.770   1.644   2.840  2.5404 -1.3352 -0.0765
  935TIP3   OH224295   1.794   5.904   5.314 -0.4969 -0.2590 -0.5609
  935TIP3    H124296   1.794   5.881   5.407 -2.0777 -0.2554 -0.5248
  935TIP3    H224297   1.730   5.975   5.307  2.6458  2.7940 -1.0181
  936TIP3   OH224298   1.881   0.586   2.150  0.0560  0.4092  0.9548
  936TIP3    H124299   1.827   0.513   2.119  1.6629 -1.2402  1.8435
  936TIP3    H224300   1.887   0.573   2.244  1.4554  0.8951  0.9601
  937TIP3   OH224301   5.641   6.325  16.142  0.2003  0.8035 -0.2894
  937TIP3    H124302   5.601   6.372  16.215 -1.9627  0.1325 -0.9711
  937TIP3    H224303   5.571   6.269  16.109  2.3503 -2.2515 -0.0927
  938TIP3   OH224304   4.679   2.225   0.106 -0.4427 -0.6963 -0.4390
  938TIP3    H124305   4.650   2.148   0.155 -0.7977  0.8070  1.8837
  938TIP3    H224306   4.728   2.277   0.170 -1.8597  1.9259 -1.3277
  939TIP3   OH224307   2.919   3.627   3.515 -0.0563 -0.0287 -0.7214
  939TIP3    H124308   2.999   3.680   3.512 -0.2890  0.5308  1.4523
  939TIP3    H224309   2.947   3.545   3.556 -0.1180 -0.8344 -2.2389
  940TIP3   OH224310   6.796   3.948   2.597  0.2731  0.4244  0.4170
  940TIP3    H124311   6.792   3.962   2.692 -1.5812 -0.8172  0.5802
  940TIP3    H224312   6.714   3.986   2.564 -0.8211 -2.2115 -0.1721
  941TIP3   OH224313   1.869   4.942  11.869  0.0832  0.4052 -0.5577
  941TIP3    H124314   1.918   4.884  11.928  0.3411  0.3400 -0.8355
  941TIP3    H224315   1.921   5.022  11.864  0.7531 -0.0752 -1.7358
  942TIP3   OH224316   5.122   0.259   5.314 -0.3121 -0.1505  0.6200
  942TIP3    H124317   5.083   0.177   5.343  0.6014  0.1401  2.8459
  942TIP3    H224318   5.211   0.236   5.288 -0.4240 -0.0319  0.1129
  943TIP3   OH224319   6.468   3.524  11.394 -0.1585 -0.1691 -0.4913
  943TIP3    H124320   6.421   3.522  11.311 -0.1827  1.1681 -0.5399
  943TIP3    H224321   6.431   3.599  11.440  1.4190  0.4958 -0.2361
  944TIP3   OH224322   2.504   0.777  13.667 -0.0206 -0.1785  0.1456
  944TIP3    H124323   2.533   0.869  13.668 -0.4708 -0.0344  1.1992
  944TIP3    H224324   2.415   0.780  13.633 -0.3657 -0.1164  1.0474
  945TIP3   OH224325   6.817   5.732  13.543  0.5132 -0.4377 -0.0820
  945TIP3    H124326   6.840   5.680  13.465 -1.4200 -0.5336 -0.6520
  945TIP3    H224327   6.872   5.810  13.537  3.1593 -2.1206  0.5430
  946TIP3   OH224328   0.844   0.201  14.465 -0.8266  0.9014 -0.8934
  946TIP3    H124329   0.915   0.263  14.481 -0.8583  1.2281 -1.9211
  946TIP3    H224330   0.771   0.255  14.434 -1.5805  0.5873  0.2742
  947TIP3   OH224331   1.301   3.721   4.471  0.1877 -0.4383  0.6691
  947TIP3    H124332   1.302   3.795   4.531 -1.7746  0.1530  0.0595
  947TIP3    H224333   1.359   3.657   4.510  0.8825  0.8908  1.9076
  948TIP3   OH224334   1.978   3.885   5.880  0.1200 -0.0613  0.2120
  948TIP3    H124335   2.061   3.852   5.845 -0.4361 -2.0525  0.6065
  948TIP3    H224336   1.970   3.841   5.965 -1.4748 -0.1743  0.0358
  949TIP3   OH224337   6.819   1.353  16.475 -0.0061  0.0030  0.2268
  949TIP3    H124338   6.756   1.369  16.545 -0.3312 -1.6625  0.3657
  949TIP3    H224339   6.804   1.262  16.450  1.3448  0.0206 -0.7684
  950TIP3   OH224340   6.365   2.624   6.419 -0.1687 -0.2277  0.4374
  950TIP3    H124341   6.313   2.607   6.340  0.3052  2.3886 -0.5756
  950TIP3    H224342   6.319   2.579   6.489 -2.7299  0.3915 -0.7413
  951TIP3   OH224343   1.297   0.939   1.906  0.0245  0.3948 -0.1938
  951TIP3    H124344   1.224   0.984   1.947  0.5763  1.3370 -0.2170
  951TIP3    H224345   1.317   0.867   1.965 -1.4976 -0.4431 -0.6512
  952TIP3   OH224346   2.796   6.734   3.267 -0.1310 -0.8493 -0.3815
  952TIP3    H124347   2.791   6.690   3.352 -0.4413  1.1793  0.7109
  952TIP3    H224348   2.706   6.737   3.236 -0.1240 -0.9129 -0.4072
  953TIP3   OH224349   4.878   1.030   1.953 -0.4452 -0.4017 -0.3839
  953TIP3    H124350   4.968   1.005   1.933  0.2467  0.9281  0.8417
  953TIP3    H224351   4.858   1.099   1.891 -0.7873 -0.9878 -0.9341
  954TIP3   OH224352   5.353   4.421  14.055  0.4008 -0.0502  0.0239
  954TIP3    H124353   5.395   4.371  14.125 -0.6119  0.4423  1.0219
  954TIP3    H224354   5.355   4.511  14.086 -0.4241  0.1243 -0.3979
  955TIP3   OH224355   4.455   2.055   5.395  0.1625  0.1301  0.3005
  955TIP3    H124356   4.448   2.009   5.312  3.9734 -0.6997  0.2405
  955TIP3    H224357   4.534   2.019   5.436 -0.8179  1.4265  3.7067
  956TIP3   OH224358   6.506   3.369   1.821  0.4423 -0.5134 -0.1600
  956TIP3    H124359   6.496   3.389   1.728 -0.0114 -2.0550 -0.4752
  956TIP3    H224360   6.533   3.277   1.823 -0.1194 -0.6771  1.2532
  957TIP3   OH224361   1.974   0.839  16.111  0.4580  0.1007  0.0389
  957TIP3    H124362   1.971   0.921  16.061  2.6906 -0.5858 -1.3774
  957TIP3    H224363   1.912   0.781  16.066 -0.7622  0.8288  0.7453
  958TIP3   OH224364   6.122   5.737   1.178 -0.2209  0.1905 -0.4296
  958TIP3    H124365   6.081   5.681   1.112  1.4450 -1.2770 -0.2995
  958TIP3    H224366   6.053   5.753   1.242 -0.6492 -2.2404 -0.1930
  959TIP3   OH224367   6.133   1.222  13.470  0.0600  0.0365 -0.9241
  959TIP3    H124368   6.200   1.190  13.530 -0.9527 -0.6731 -0.1214
  959TIP3    H224369   6.090   1.142  13.438 -1.7903  0.5008  0.2588
  960TIP3   OH224370   0.234   0.995  14.775  0.3841  0.3144  0.1359
  960TIP3    H124371   0.275   1.042  14.848  0.9144 -1.4642  1.0393
  960TIP3    H224372   0.140   1.009  14.788  0.5396  1.5321  0.0727
  961TIP3   OH224373   5.859   6.781  16.819  0.7465 -0.5167 -0.2436
  961TIP3    H124374   5.795   6.724  16.777 -1.4685  1.8000 -0.2698
  961TIP3    H224375   5.913   6.814  16.747 -0.3665  0.2646 -0.7319
  962TIP3   OH224376   3.422   5.004   0.867  0.6105 -0.1307  0.0938
  962TIP3    H124377   3.455   4.982   0.954 -0.2449 -1.0564  0.1991
  962TIP3    H224378   3.498   5.042   0.822  0.7185  1.7816  1.6965
  963TIP3   OH224379   4.921   0.254   0.700  0.0976 -0.5250 -1.2173
  963TIP3    H124380   4.954   0.190   0.763  0.4829  0.7297 -0.0768
  963TIP3    H224381   5.000   0.282   0.652  0.3574  0.7773 -0.0891
  964TIP3   OH224382   2.157   2.145   0.788 -1.0555  0.2434  0.2490
  964TIP3    H124383   2.250   2.156   0.767 -1.2359  1.4504  0.0064
  964TIP3    H224384   2.156   2.099   0.872 -0.2543 -0.4311 -0.1008
  965TIP3   OH224385   0.349   3.195   1.218  0.1986  0.4487  0.0451
  965TIP3    H124386   0.312   3.216   1.132  0.5002 -2.7203 -0.9829
  965TIP3    H224387   0.438   3.167   1.199  0.3474 -0.0741  1.4410
  966TIP3   OH224388   2.519   4.668   0.162  0.6043  0.0649  0.8899
  966TIP3    H124389   2.572   4.630   0.092 -1.6506  1.2794 -1.6674
  966TIP3    H224390   2.480   4.593   0.206 -0.0395 -0.7169 -0.9404
  967TIP3   OH224391   5.369   4.481  10.333 -0.1615 -0.6046  0.8304
  967TIP3    H124392   5.437   4.452  10.272  0.5149 -0.8398  1.6809
  967TIP3    H224393   5.287   4.452  10.293  0.2662 -0.6811 -0.0059
  968TIP3   OH224394   1.622   4.272   4.309  0.0317 -0.1885 -0.0773
  968TIP3    H124395   1.643   4.358   4.272  0.5255 -0.1871  0.1951
  968TIP3    H224396   1.550   4.289   4.370  0.0990  0.0242 -0.0561
  969TIP3   OH224397   2.272   3.428   4.067  0.7483  0.3847 -0.4200
  969TIP3    H124398   2.340   3.484   4.030  1.9968 -0.8114 -0.0302
  969TIP3    H224399   2.289   3.341   4.029  0.2773 -0.2224  0.6989
  970TIP3   OH224400   2.717   4.207  11.332  0.3696  0.3716 -0.7463
  970TIP3    H124401   2.748   4.262  11.405  2.7406 -0.5742 -0.9603
  970TIP3    H224402   2.626   4.234  11.319  1.2184  3.9305 -0.5126
  971TIP3   OH224403   0.338   0.916   6.445  0.7532 -0.1445  0.3968
  971TIP3    H124404   0.304   0.914   6.534  1.7160  0.5468  0.8035
  971TIP3    H224405   0.299   0.840   6.402 -2.0272  1.1223  0.5168
  972TIP3   OH224406   4.044   2.613  13.207  0.0809 -0.4170  0.2207
  972TIP3    H124407   4.030   2.594  13.114 -2.1549  1.4669  0.0672
  972TIP3    H224408   4.085   2.699  13.209 -2.5730  0.9716  0.8690
  973TIP3   OH224409   1.686   1.580  16.107  0.2005  0.5715 -0.1366
  973TIP3    H124410   1.702   1.646  16.039  1.7023  0.9236  0.5090
  973TIP3    H224411   1.634   1.512  16.064 -0.2440  1.5532 -1.1804
  974TIP3   OH224412   0.245   6.584  14.328  0.6004  0.0908  0.1997
  974TIP3    H124413   0.169   6.527  14.319 -0.8446  1.2223  3.6535
  974TIP3    H224414   0.308   6.533  14.380  1.0672  0.1788 -0.2662
  975TIP3   OH224415   3.669   4.307  13.814 -0.1479  0.0555  0.0291
  975TIP3    H124416   3.728   4.249  13.861 -0.7153  0.3913  1.2005
  975TIP3    H224417   3.726   4.362  13.761  0.4774 -0.6703 -0.0682
  976TIP3   OH224418   3.484   0.511  12.084 -0.4081 -0.5427 -0.1427
  976TIP3    H124419   3.489   0.415  12.081 -0.3612 -0.5677  0.6981
  976TIP3    H224420   3.528   0.535  12.165 -0.2063  0.2136 -0.4706
  977TIP3   OH224421   6.665   2.376  16.323 -0.6409 -0.1194 -0.4462
  977TIP3    H124422   6.654   2.323  16.402 -1.2132  1.3716  0.5070
  977TIP3    H224423   6.741   2.336  16.279 -0.8433 -1.5143  0.3846
  978TIP3   OH224424   3.311   0.396   3.300  0.1950  0.3893  0.2607
  978TIP3    H124425   3.257   0.459   3.348 -0.6232  0.2888 -0.4967
  978TIP3    H224426   3.280   0.310   3.329  0.4782  0.3287  0.3901
  979TIP3   OH224427   0.252   0.752  16.848  0.1041  0.0544 -0.1640
  979TIP3    H124428   0.167   0.765  16.806  0.6417  1.8049 -0.8274
  979TIP3    H224429   0.289   0.676  16.804 -1.2944 -1.0668  0.4939
  980TIP3   OH224430   5.703   6.738  16.455 -0.2034 -0.1714  0.1471
  980TIP3    H124431   5.704   6.806  16.523 -1.0251  0.1333 -0.1335
  980TIP3    H224432   5.697   6.787  16.373  2.9383 -0.4105 -0.3673
  981TIP3   OH224433   4.861   1.258   6.342  0.2818 -0.1313 -0.1404
  981TIP3    H124434   4.835   1.350   6.339  0.6402 -0.0346 -0.4019
  981TIP3    H224435   4.919   1.252   6.419 -1.4271 -0.6007  1.1691
  982TIP3   OH224436   1.752   4.879   1.866  0.5536  0.0597 -0.1970
  982TIP3    H124437   1.731   4.926   1.947 -1.8083  0.5358 -1.0200
  982TIP3    H224438   1.725   4.789   1.883  0.2039  0.1271 -0.3815
  983TIP3   OH224439   5.958   6.439   5.956 -0.1669  0.0836 -0.1037
  983TIP3    H124440   5.890   6.373   5.970 -0.1457  0.2493  0.8755
  983TIP3    H224441   5.942   6.504   6.025  0.4011  0.6051 -0.4569
  984TIP3   OH224442   5.309   2.205   4.321 -0.0719  0.4008  0.8145
  984TIP3    H124443   5.358   2.206   4.403  0.0905  1.1401  0.7222
  984TIP3    H224444   5.260   2.287   4.321 -1.6095 -0.4892  1.0634
  985TIP3   OH224445   0.368   5.080  13.439 -0.2054  0.1199  0.0608
  985TIP3    H124446   0.340   5.044  13.523  0.5084 -1.0308 -0.1737
  985TIP3    H224447   0.288   5.115  13.401 -0.8419 -0.7343  0.5595
  986TIP3   OH224448   2.618   0.469   1.548  0.3791  0.6620 -0.4734
  986TIP3    H124449   2.590   0.510   1.630  0.2078 -1.4317  0.5821
  986TIP3    H224450   2.713   0.464   1.555  0.5485  2.1704 -1.2862
  987TIP3   OH224451   1.258   2.009   4.782  0.6940  0.6973 -0.3455
  987TIP3    H124452   1.170   2.047   4.784  0.6141  0.5410 -0.7562
  987TIP3    H224453   1.313   2.075   4.823  0.6789  1.6125 -1.7367
  988TIP3   OH224454   6.337   5.088  15.114  0.2809  0.4059 -0.2840
  988TIP3    H124455   6.246   5.112  15.130  0.2885 -0.3305  0.9397
  988TIP3    H224456   6.359   5.133  15.032 -0.7992  1.5735  0.0309
  989TIP3   OH224457   3.036   0.608  15.937 -0.2732  0.4873 -0.2204
  989TIP3    H124458   3.123   0.591  15.901 -0.0234  0.5698  0.3295
  989TIP3    H224459   2.979   0.614  15.861  0.3911  1.5321 -0.6605
  990TIP3   OH224460   3.547   4.838   6.022 -0.2348  0.5249  0.3391
  990TIP3    H124461   3.566   4.829   6.115 -2.4495 -1.4098  0.7124
  990TIP3    H224462   3.470   4.895   6.019 -0.7717 -0.2138 -0.2056
  991TIP3   OH224463   1.393   3.247  13.559 -0.2232  0.9389 -0.0976
  991TIP3    H124464   1.316   3.190  13.553 -0.8077  1.7093 -0.1911
  991TIP3    H224465   1.467   3.188  13.560 -0.8128  0.1807 -0.2107
  992TIP3   OH224466   2.688   5.211   4.074 -0.0900  0.2268  0.8006
  992TIP3    H124467   2.625   5.157   4.024 -0.8130  0.0062  1.9130
  992TIP3    H224468   2.730   5.149   4.133  3.4980 -0.2932 -1.9216
  993TIP3   OH224469   3.176   3.503  12.416  0.8571 -0.5122  0.0914
  993TIP3    H124470   3.236   3.556  12.467  1.0430  0.8987 -1.4935
  993TIP3    H224471   3.138   3.564  12.352 -1.5375 -1.5516  0.3904
  994TIP3   OH224472   5.979   4.841   3.076  0.3824  0.1814  0.0926
  994TIP3    H124473   6.068   4.825   3.108 -0.0883 -0.2417  1.2611
  994TIP3    H224474   5.940   4.899   3.142  0.4688  2.1989 -1.5453
  995TIP3   OH224475   3.970   5.550  13.299  0.0898  0.1365  0.3139
  995TIP3    H124476   3.934   5.637  13.319  1.6437  0.7318  0.7082
  995TIP3    H224477   3.939   5.495  13.370 -1.0802  0.2916 -0.0445
  996TIP3   OH224478   1.917   6.723  11.984 -0.5960  0.3027  0.8015
  996TIP3    H124479   1.864   6.643  11.982  1.4865 -1.1502 -0.5300
  996TIP3    H224480   1.867   6.786  11.931 -0.0420 -1.7609 -2.4662
  997TIP3   OH224481   5.653   3.219  13.176 -0.3571  0.1495 -0.0888
  997TIP3    H124482   5.710   3.196  13.249 -1.7267  1.1268  1.3618
  997TIP3    H224483   5.568   3.238  13.217 -1.0520  1.1958 -1.8820
  998TIP3   OH224484   5.752   4.864   4.842 -0.0958  0.6202  0.0001
  998TIP3    H124485   5.807   4.819   4.906 -0.1973  0.7909  0.2051
  998TIP3    H224486   5.754   4.806   4.765  1.9058  1.5247 -0.7059
  999TIP3   OH224487   6.822   4.704   2.840 -0.0509  0.2815  0.1351
  999TIP3    H124488   6.882   4.771   2.874 -1.2229  0.0744  2.9021
  999TIP3    H224489   6.740   4.720   2.886 -0.4585 -2.8824  0.7237
 1000TIP3   OH224490   2.917   3.731   4.119  0.0192  0.2607 -0.3094
 1000TIP3    H124491   2.991   3.686   4.079 -0.2721  0.9583 -1.6910
 1000TIP3    H224492   2.841   3.704   4.067 -0.6953 -0.3202  0.9856
 1001TIP3   OH224493   6.067   3.536   4.288 -0.3097  0.2581  0.1424
 1001TIP3    H124494   6.019   3.518   4.207  0.5460  1.6443 -0.7161
 1001TIP3    H224495   6.023   3.613   4.325 -0.3927 -0.0799  0.7601
 1002TIP3   OH224496   0.304   2.449  15.288 -0.7489 -0.5297  0.1585
 1002TIP3    H124497   0.320   2.359  15.258 -1.6265 -0.5479 -0.2898
 1002TIP3    H224498   0.374   2.466  15.351  1.0088 -0.5855 -1.6556
 1003TIP3   OH224499   5.371   5.729  12.235 -0.4960  0.2474  0.2569
 1003TIP3    H124500   5.417   5.740  12.318 -0.4365  2.6219 -0.0124
 1003TIP3    H224501   5.278   5.739  12.258 -0.3782  2.9372 -0.1509
 1004TIP3   OH224502   5.046   6.521  11.107 -0.1528 -0.3751 -0.4431
 1004TIP3    H124503   4.952   6.518  11.090  0.1919 -0.5920 -2.6156
 1004TIP3    H224504   5.066   6.435  11.145 -1.0528  0.2840  1.6639
 1005TIP3   OH224505   0.575   0.742   5.408 -0.8025 -0.4202 -0.1016
 1005TIP3    H124506   0.596   0.799   5.334  1.4010  0.2037  0.9228
 1005TIP3    H224507   0.552   0.802   5.479  4.0349 -0.3346  1.7933
 1006TIP3   OH224508   4.421   0.283  11.838 -0.4716  0.2040 -0.2004
 1006TIP3    H124509   4.377   0.366  11.856 -1.2033 -0.2231  0.0303
 1006TIP3    H224510   4.400   0.228  11.914 -1.3020 -0.7091 -1.0668
 1007TIP3   OH224511   2.288   0.390   2.619  0.8693  0.0526 -0.0810
 1007TIP3    H124512   2.353   0.410   2.687  1.2367  2.5846 -1.0720
 1007TIP3    H224513   2.318   0.438   2.542 -1.1159 -0.3273 -1.1538
 1008TIP3   OH224514   0.216   6.245   5.137 -0.8483 -0.2612  0.5076
 1008TIP3    H124515   0.160   6.175   5.171 -1.0476 -0.8395 -0.9504
 1008TIP3    H224516   0.170   6.278   5.060  0.6263 -0.5457 -0.5444
 1009TIP3   OH224517   4.644   2.080   3.958 -0.5936  0.2130  0.1212
 1009TIP3    H124518   4.737   2.093   3.978 -0.1577  0.7751 -2.0206
 1009TIP3    H224519   4.641   1.995   3.916 -0.6398  1.1617 -1.8911
 1010TIP3   OH224520   3.239   1.580   0.272  0.0000 -0.4030  0.0404
 1010TIP3    H124521   3.230   1.673   0.252 -0.2475 -0.1093  1.3794
 1010TIP3    H224522   3.185   1.536   0.206  0.4965  0.3536 -0.9001
 1011TIP3   OH224523   6.549   0.475  15.452  0.1323  0.7596  0.3169
 1011TIP3    H124524   6.497   0.456  15.374  3.3587  0.3404 -1.9259
 1011TIP3    H224525   6.535   0.399  15.509  0.6288 -0.8399 -1.5924
 1012TIP3   OH224526   6.235   3.683   3.847 -0.2449 -0.0609  0.1553
 1012TIP3    H124527   6.295   3.609   3.852 -0.7777 -0.5512 -0.5386
 1012TIP3    H224528   6.214   3.690   3.754 -0.1752  0.9862  0.2123
 1013TIP3   OH224529   5.180   1.760   2.450  0.0980  0.9003 -0.5280
 1013TIP3    H124530   5.220   1.758   2.363  0.2476 -1.8339 -0.4900
 1013TIP3    H224531   5.250   1.785   2.509  1.1125 -1.1255 -0.7900
 1014TIP3   OH224532   5.886   0.984  17.213  0.2639  0.0453  0.5744
 1014TIP3    H124533   5.919   0.947  17.131 -0.1306 -0.4632  0.6373
 1014TIP3    H224534   5.891   1.078  17.200  0.5299 -0.0294  0.0962
 1015TIP3   OH224535   3.527   4.592  17.153  0.0271 -0.1900  0.5423
 1015TIP3    H124536   3.569   4.665  17.108 -1.9345  0.1043 -0.9500
 1015TIP3    H224537   3.538   4.611  17.246  1.9840  0.5067  0.2204
 1016TIP3   OH224538   6.122   6.497  12.559  0.2672 -0.2940  0.1630
 1016TIP3    H124539   6.036   6.539  12.563  0.2997 -0.1679 -0.4137
 1016TIP3    H224540   6.123   6.450  12.475  1.3682  1.0440 -0.6145
 1017TIP3   OH224541   1.805   4.868   5.792 -0.3738  0.0790 -0.1639
 1017TIP3    H124542   1.784   4.904   5.878  0.4867  0.0109  0.0802
 1017TIP3    H224543   1.899   4.883   5.781 -0.1979 -1.1613 -0.4987
 1018TIP3   OH224544   2.043   5.614   0.747  0.0272  0.3894 -0.2157
 1018TIP3    H124545   2.020   5.615   0.654 -0.7494  1.6570 -0.0325
 1018TIP3    H224546   1.966   5.651   0.791  1.1256  1.6576  0.7375
 1019TIP3   OH224547   6.835   1.191  12.199 -0.1368 -0.4589  0.3795
 1019TIP3    H124548   6.789   1.275  12.196  1.3177  0.4347  1.7800
 1019TIP3    H224549   6.766   1.126  12.184 -1.5429  0.9011  0.6427
 1020TIP3   OH224550   0.635   1.048  13.838  0.0766  0.5346 -0.5204
 1020TIP3    H124551   0.699   1.084  13.776  0.0116  0.5379 -0.5868
 1020TIP3    H224552   0.555   1.099  13.822  0.5430  1.7482  0.7980
 1021TIP3   OH224553   6.130   5.913  16.212  0.3347  0.4418  0.3011
 1021TIP3    H124554   6.214   5.960  16.210  1.1155 -0.9328 -0.3727
 1021TIP3    H224555   6.087   5.945  16.291  0.3442  3.0805 -0.6508
 1022TIP3   OH224556   0.713   4.621  13.062  0.1066 -0.2631  0.3461
 1022TIP3    H124557   0.653   4.592  13.131 -1.4299  1.2975 -0.2510
 1022TIP3    H224558   0.656   4.649  12.991  1.4532  2.4332  0.1890
 1023TIP3   OH224559   4.101   0.459  16.890 -0.2081 -0.2820  0.3032
 1023TIP3    H124560   4.079   0.404  16.815  2.5946 -3.3457  1.4961
 1023TIP3    H224561   4.168   0.519  16.858 -2.2540  1.6483 -0.6388
 1024TIP3   OH224562   1.750   4.896  16.207  0.2280  0.0764 -0.7968
 1024TIP3    H124563   1.747   4.929  16.297 -0.4577  0.9028 -1.0998
 1024TIP3    H224564   1.658   4.898  16.179  0.5270  0.5691 -1.7635
 1025TIP3   OH224565   0.717   5.321   5.120 -0.2862 -0.1551  0.3693
 1025TIP3    H124566   0.774   5.298   5.046  1.4721  1.7512  1.0467
 1025TIP3    H224567   0.653   5.250   5.123  0.6557 -1.2145 -1.8660
 1026TIP3   OH224568   0.863   5.320  12.611 -0.7481 -0.3156  0.3499
 1026TIP3    H124569   0.842   5.342  12.702 -2.4104 -1.0117  0.1755
 1026TIP3    H224570   0.956   5.343  12.601 -0.7242  0.4337  2.0027
 1027TIP3   OH224571   2.354   6.378  17.165  1.0687  0.3050  0.5006
 1027TIP3    H124572   2.403   6.305  17.202  0.8862 -0.4270 -0.6483
 1027TIP3    H224573   2.390   6.389  17.077 -1.3993 -0.9064 -0.7649
 1028TIP3   OH224574   0.543   0.408  13.372 -0.6234  0.4283 -0.1555
 1028TIP3    H124575   0.577   0.408  13.461  0.2864  2.0888 -0.4652
 1028TIP3    H224576   0.472   0.344  13.374 -1.6168  1.4759  2.1527
 1029TIP3   OH224577   5.697   3.252  12.111  0.8131  0.1902  0.3231
 1029TIP3    H124578   5.786   3.233  12.082  0.8158  0.3073  0.2552
 1029TIP3    H224579   5.647   3.175  12.085  1.1102 -0.3654  1.3356
 1030TIP3   OH224580   0.280   0.765  13.581 -0.2657 -0.7784  0.2514
 1030TIP3    H124581   0.216   0.727  13.641 -0.5084  0.6795  0.9584
 1030TIP3    H224582   0.341   0.812  13.638  1.0730 -1.5922 -0.4629
 1031TIP3   OH224583   2.951   4.498   1.703  0.0382 -0.2033  0.6424
 1031TIP3    H124584   3.035   4.507   1.748 -0.2440  1.9393  0.8769
 1031TIP3    H224585   2.950   4.572   1.641 -1.9336  0.2282  1.1194
 1032TIP3   OH224586   3.002   4.988  11.911 -0.5981  0.3990 -0.3376
 1032TIP3    H124587   2.999   5.066  11.967 -0.5993 -0.0509  0.3036
 1032TIP3    H224588   2.919   4.944  11.926  0.9082 -1.8447  2.4627
 1033TIP3   OH224589   5.537   0.204   1.993 -0.1791  0.2229  0.2193
 1033TIP3    H124590   5.536   0.259   1.915 -0.6628 -0.2841 -0.1360
 1033TIP3    H224591   5.471   0.243   2.050 -1.2334 -0.5588 -0.4410
 1034TIP3   OH224592   1.797   4.044   2.075  0.4735  0.3761 -0.1798
 1034TIP3    H124593   1.723   4.024   2.132  0.8428 -2.4415 -0.5303
 1034TIP3    H224594   1.865   4.075   2.135 -0.2772  0.9437  0.4049
 1035TIP3   OH224595   0.940   2.765  11.852 -0.4565 -0.6299 -0.7074
 1035TIP3    H124596   0.877   2.696  11.832 -0.3512 -1.6241  1.9626
 1035TIP3    H224597   0.925   2.785  11.944  1.6661  0.6589 -0.5786
 1036TIP3   OH224598   1.969   0.361  16.472 -0.4345  0.4418 -0.3874
 1036TIP3    H124599   1.959   0.373  16.378  1.3154  1.4626 -0.5004
 1036TIP3    H224600   2.004   0.273  16.483 -2.9963 -0.6508 -0.4508
 1037TIP3   OH224601   1.506   3.678   4.990  0.0832  0.3498  0.5513
 1037TIP3    H124602   1.542   3.712   4.909  0.9061 -0.8346  0.3915
 1037TIP3    H224603   1.425   3.726   5.003  0.1881  0.8925 -0.7142
 1038TIP3   OH224604   2.517   2.264   3.943 -1.1051 -0.1340 -0.2290
 1038TIP3    H124605   2.611   2.277   3.936 -1.3078  0.7346 -2.1710
 1038TIP3    H224606   2.505   2.170   3.939 -0.2486 -0.3845  1.9279
 1039TIP3   OH224607   5.013   4.329   3.457 -0.2704 -0.1300 -0.0735
 1039TIP3    H124608   4.999   4.334   3.362 -1.0666 -1.4324 -0.0464
 1039TIP3    H224609   5.023   4.420   3.484 -0.4326  0.2909 -1.3493
 1040TIP3   OH224610   5.687   5.369   5.003 -0.7535 -0.1642  1.0603
 1040TIP3    H124611   5.605   5.403   4.967 -0.3893 -1.0487 -0.7297
 1040TIP3    H224612   5.714   5.301   4.941  0.0242 -1.6955  2.9502
 1041TIP3   OH224613   2.763   1.672  12.927 -0.6443  0.6170  0.3889
 1041TIP3    H124614   2.719   1.633  13.003 -1.5017  2.6496  1.0063
 1041TIP3    H224615   2.856   1.659  12.944 -0.7804  1.6324  2.1986
 1042TIP3   OH224616   1.317   5.837  14.772  0.5128 -0.0623  0.2660
 1042TIP3    H124617   1.261   5.773  14.728  1.1505 -1.3777  1.3074
 1042TIP3    H224618   1.352   5.790  14.848  0.9964  1.5349  1.0670
 1043TIP3   OH224619   5.344   5.742   1.951 -0.3683  0.2252  0.5689
 1043TIP3    H124620   5.410   5.768   2.016  2.1420 -2.4706 -0.6880
 1043TIP3    H224621   5.371   5.786   1.870 -1.8707  1.3391  0.6163
 1044TIP3   OH224622   1.106   5.405   2.696  0.3498  0.0383 -1.2550
 1044TIP3    H124623   1.184   5.458   2.712  0.1164 -0.4265  2.1398
 1044TIP3    H224624   1.105   5.342   2.768 -1.5423 -1.9974 -2.9249
 1045TIP3   OH224625   6.836   1.744   1.573  0.3099 -0.3262  0.0497
 1045TIP3    H124626   6.835   1.831   1.532 -0.2117 -0.2733  0.1650
 1045TIP3    H224627   6.812   1.684   1.502 -0.6842 -0.2248  0.2834
 1046TIP3   OH224628   5.560   4.905  12.910  0.2330  0.0672 -0.3558
 1046TIP3    H124629   5.638   4.853  12.927  1.2446  1.0149 -1.8952
 1046TIP3    H224630   5.591   4.981  12.862 -1.6610  0.3992 -1.1557
 1047TIP3   OH224631   2.791   4.319   1.863 -0.2062 -0.0851 -0.3686
 1047TIP3    H124632   2.728   4.390   1.869 -0.9921 -0.8936  3.6439
 1047TIP3    H224633   2.868   4.359   1.823 -0.1798  3.4962  2.6835
 1048TIP3   OH224634   5.542   3.230   5.598 -0.4397  0.0419  0.6462
 1048TIP3    H124635   5.467   3.185   5.559 -0.2842 -0.4207  0.8772
 1048TIP3    H224636   5.543   3.316   5.555 -0.2341 -0.4749 -0.4151
 1049TIP3   OH224637   1.636   5.300  14.657  0.4391  0.0576 -0.8435
 1049TIP3    H124638   1.596   5.254  14.584  1.8264 -0.5676 -1.2483
 1049TIP3    H224639   1.704   5.240  14.688  1.2591  1.1917 -0.3910
 1050TIP3   OH224640   6.502   6.340   2.047 -0.6519  0.5526 -0.3558
 1050TIP3    H124641   6.557   6.314   1.973 -1.1113  0.6955 -0.7499
 1050TIP3    H224642   6.517   6.434   2.057 -0.7788  0.5789 -0.4206
 1051TIP3   OH224643   3.985   6.465  16.312 -0.0471  0.0538 -0.2986
 1051TIP3    H124644   3.997   6.520  16.235  0.9067 -1.0261 -0.9593
 1051TIP3    H224645   4.073   6.437  16.336 -0.5110 -1.3978 -0.1693
 1052TIP3   OH224646   4.285   2.405   5.876  0.4753  0.4709 -0.7829
 1052TIP3    H124647   4.364   2.445   5.913 -0.1738  1.4402 -0.4204
 1052TIP3    H224648   4.311   2.314   5.859  1.7083  0.8058 -0.8090
 1053TIP3   OH224649   0.334   3.525  11.544 -0.2635  0.3079  0.2957
 1053TIP3    H124650   0.254   3.564  11.579  0.8907  0.8810  2.4592
 1053TIP3    H224651   0.361   3.584  11.474 -1.3633  0.4447 -0.0345
 1054TIP3   OH224652   2.386   6.830   2.409 -0.0431  0.0087  0.0900
 1054TIP3    H124653   2.330   6.753   2.399 -1.1705  0.9432 -1.0072
 1054TIP3    H224654   2.384   6.872   2.323 -2.4126  3.2434  1.5392
 1055TIP3   OH224655   6.246   3.745  14.900 -0.1314 -0.2580  0.0290
 1055TIP3    H124656   6.231   3.833  14.864  1.4104 -0.4611 -1.2363
 1055TIP3    H224657   6.232   3.756  14.994  1.2849  1.7052  0.1005
 1056TIP3   OH224658   4.029   1.298  12.600  0.4460 -0.2867 -0.1312
 1056TIP3    H124659   4.071   1.377  12.564 -1.5387  0.3822 -1.1785
 1056TIP3    H224660   4.001   1.249  12.522  3.4772 -3.1992  0.4229
 1057TIP3   OH224661   0.978   2.242  15.961  0.1241  0.0627  0.1695
 1057TIP3    H124662   0.970   2.305  15.889  1.1732  0.5572  0.4645
 1057TIP3    H224663   1.047   2.182  15.933  1.7276  1.2180  1.3937
 1058TIP3   OH224664   0.981   1.585  14.116  0.0314  0.0584  0.2393
 1058TIP3    H124665   0.927   1.506  14.110  2.4437 -1.7278  0.6884
 1058TIP3    H224666   0.941   1.647  14.055 -1.4469 -1.7904 -0.7452
 1059TIP3   OH224667   5.108   5.208   1.089 -0.5488 -0.2724 -0.4215
 1059TIP3    H124668   5.176   5.222   1.155 -1.0280 -0.7778  0.1911
 1059TIP3    H224669   5.151   5.156   1.021 -0.2669 -0.4294 -0.1293
 1060TIP3   OH224670   0.009   1.601  16.863 -0.0907 -0.1567  0.4622
 1060TIP3    H124671  -0.058   1.628  16.926 -2.0275 -1.0093 -1.1054
 1060TIP3    H224672   0.032   1.512  16.890  0.1154 -0.0138  0.7638
 1061TIP3   OH224673   5.186   3.210   3.958 -0.4683  0.3744 -0.2189
 1061TIP3    H124674   5.177   3.255   4.042 -0.0471 -0.1000  0.0886
 1061TIP3    H224675   5.097   3.186   3.934 -0.7243  1.5540 -0.4970
 1062TIP3   OH224676   0.968   6.595   1.306  0.2731 -0.4371  0.3799
 1062TIP3    H124677   1.020   6.524   1.268 -0.2863  0.3431 -1.9483
 1062TIP3    H224678   0.879   6.581   1.272 -0.8137 -0.8560  3.0705
 1063TIP3   OH224679   1.234   1.505  10.354  0.3622 -0.1471 -0.1666
 1063TIP3    H124680   1.246   1.426  10.407  0.9902  0.9139  1.3584
 1063TIP3    H224681   1.315   1.513  10.303  2.5356  1.9692  3.2051
 1064TIP3   OH224682   4.991   3.348  16.278  0.3578 -0.1880  0.6978
 1064TIP3    H124683   5.041   3.313  16.205 -0.8943  0.3343 -0.4612
 1064TIP3    H224684   4.924   3.404  16.237 -0.2701  0.2600  2.2460
 1065TIP3   OH224685   2.320   0.601  14.764 -0.4355  0.2462 -0.2925
 1065TIP3    H124686   2.315   0.697  14.762 -0.9994  0.2194 -0.3213
 1065TIP3    H224687   2.408   0.581  14.732 -0.7330  0.7139 -1.4282
 1066TIP3   OH224688   2.637   0.794  12.983 -0.2637  0.3710  0.2396
 1066TIP3    H124689   2.599   0.798  13.071  1.2492 -1.9313  1.0911
 1066TIP3    H224690   2.696   0.869  12.979 -1.0205  1.0125  0.8355
 1067TIP3   OH224691   1.762   5.207  16.480  0.3296  0.1677  0.2349
 1067TIP3    H124692   1.697   5.265  16.519  1.0160  0.6023  0.7578
 1067TIP3    H224693   1.721   5.121  16.482 -0.5246  0.5538 -0.1426
 1068TIP3   OH224694   4.930   6.686  10.413 -0.1186 -0.7983 -0.1050
 1068TIP3    H124695   4.997   6.722  10.472  1.0285 -2.4622 -0.3453
 1068TIP3    H224696   4.962   6.706  10.325  0.3342 -2.0229 -0.2307
 1069TIP3   OH224697   3.808   1.994  14.700 -0.3707 -0.1748 -0.2302
 1069TIP3    H124698   3.792   1.965  14.611 -0.5932 -0.7400 -0.0135
 1069TIP3    H224699   3.879   1.938  14.731 -1.7977 -1.5805  0.6931
 1070TIP3   OH224700   2.880   0.667   2.564  0.2806 -0.3069 -0.5312
 1070TIP3    H124701   2.902   0.613   2.488 -2.6847  0.0110 -1.7532
 1070TIP3    H224702   2.793   0.702   2.545  0.1098  1.1623  2.3035
 1071TIP3   OH224703   0.069   2.717  13.068 -0.5729 -0.5342 -0.3997
 1071TIP3    H124704   0.123   2.649  13.029 -0.5294  0.1024 -1.4964
 1071TIP3    H224705   0.109   2.799  13.039 -2.0058 -0.0456 -1.1053
 1072TIP3   OH224706   3.092   3.796   1.395 -0.0809 -0.7173 -0.1833
 1072TIP3    H124707   3.053   3.882   1.410  0.9002 -0.4097  0.7086
 1072TIP3    H224708   3.024   3.747   1.347 -2.7047 -1.0633  3.4113
 1073TIP3   OH224709   0.663   6.444  14.258  0.1504 -0.1166  0.1453
 1073TIP3    H124710   0.741   6.404  14.296  0.3958  1.9848  2.0180
 1073TIP3    H224711   0.598   6.443  14.329 -0.6273  0.5783 -0.5330
 1074TIP3   OH224712   4.385   2.606  16.645  0.0280  0.1751  0.2012
 1074TIP3    H124713   4.403   2.679  16.704  0.8383  1.5006 -1.5631
 1074TIP3    H224714   4.472   2.570  16.625  0.2376  2.0035 -2.8020
 1075TIP3   OH224715   5.397   0.119  11.992  0.6174  0.1731 -0.4561
 1075TIP3    H124716   5.404   0.130  11.897  1.2065 -0.8486 -0.5441
 1075TIP3    H224717   5.481   0.081  12.018 -0.2778 -1.4720  0.1723
 1076TIP3   OH224718   5.873   1.464   2.935 -0.5299  0.1221 -1.1594
 1076TIP3    H124719   5.900   1.430   3.020 -1.4102 -1.3721 -1.4362
 1076TIP3    H224720   5.952   1.502   2.898 -0.0749  0.5579  0.2077
 1077TIP3   OH224721   0.296   0.986   2.741 -0.3301  0.5023  0.0347
 1077TIP3    H124722   0.246   1.040   2.802 -0.0890  0.7297  0.0301
 1077TIP3    H224723   0.359   1.046   2.700  2.2275 -0.2994  2.4214
 1078TIP3   OH224724   6.637   2.305   5.821  0.0808 -0.3624  0.4048
 1078TIP3    H124725   6.541   2.301   5.823  0.0774 -0.1358  1.0053
 1078TIP3    H224726   6.659   2.308   5.728 -0.5558  0.9557  0.2771
 1079TIP3   OH224727   4.946   5.636   3.575 -0.7500 -0.4903  0.6184
 1079TIP3    H124728   5.013   5.674   3.631 -0.2745 -0.4022  0.0059
 1079TIP3    H224729   4.882   5.706   3.563 -0.8396 -0.5020  1.0309
 1080TIP3   OH224730   3.104   6.788   5.020 -0.3097  0.1634  0.2404
 1080TIP3    H124731   3.029   6.847   5.016  0.8701  1.6648 -1.9977
 1080TIP3    H224732   3.175   6.841   5.057  0.4421 -0.2357 -0.5822
 1081TIP3   OH224733   0.183   4.917   5.693  0.5760  0.5355 -0.8294
 1081TIP3    H124734   0.244   4.942   5.763 -0.9338  1.2636  0.2803
 1081TIP3    H224735   0.208   4.828   5.671  0.6016 -0.0238  1.2271
 1082TIP3   OH224736   6.681   4.012  15.023 -0.0144 -0.5132  0.1601
 1082TIP3    H124737   6.649   4.102  15.029 -1.3848 -1.0582  1.6971
 1082TIP3    H224738   6.764   4.020  14.975  0.2900  1.6680  0.9115
 1083TIP3   OH224739   4.539   2.094   0.670 -0.6828 -0.1546 -0.3348
 1083TIP3    H124740   4.598   2.169   0.661 -0.5012 -0.3907 -1.2662
 1083TIP3    H224741   4.549   2.066   0.761  1.9702 -1.2419 -0.8649
 1084TIP3   OH224742   3.552   3.329   3.333 -0.4817  0.2740 -0.0619
 1084TIP3    H124743   3.467   3.372   3.322 -1.5092 -1.2323  1.3350
 1084TIP3    H224744   3.545   3.248   3.283  0.9518  1.0843 -1.6480
 1085TIP3   OH224745   2.653   1.425   1.846 -0.3182 -0.1840 -0.2502
 1085TIP3    H124746   2.575   1.428   1.791 -0.9312 -1.7527  0.4596
 1085TIP3    H224747   2.724   1.456   1.789 -1.9129  5.2900  0.2102
 1086TIP3   OH224748   2.508   4.008   0.789 -0.0875 -0.5245 -0.0242
 1086TIP3    H124749   2.455   3.994   0.868  0.5673  0.8452  0.6973
 1086TIP3    H224750   2.493   3.930   0.736 -2.0143 -0.6368  0.6056
 1087TIP3   OH224751   1.624   5.247  12.704 -0.1109 -0.1262 -0.2676
 1087TIP3    H124752   1.543   5.298  12.706  1.1203  1.9408 -0.7261
 1087TIP3    H224753   1.659   5.255  12.793  0.5334  0.5791 -0.5838
 1088TIP3   OH224754   2.308   5.768   1.940 -0.1107 -0.4338  0.0476
 1088TIP3    H124755   2.294   5.682   1.980  0.5200 -0.0112  1.2183
 1088TIP3    H224756   2.364   5.815   2.002 -0.0874  0.6758 -0.7787
 1089TIP3   OH224757   0.569   5.023   6.060  0.5200 -0.1420  0.3840
 1089TIP3    H124758   0.521   5.097   6.096  0.6360 -0.8254  2.0598
 1089TIP3    H224759   0.656   5.029   6.100  0.5164 -1.1736  0.5796
 1090TIP3   OH224760   4.839   3.080   6.103 -0.6282  0.3630 -0.2212
 1090TIP3    H124761   4.833   3.137   6.027 -1.8476 -2.1662 -2.1707
 1090TIP3    H224762   4.761   3.100   6.155 -0.5008  1.1466 -0.3259
 1091TIP3   OH224763   2.152   4.578   1.552  0.3031 -1.2027 -0.4308
 1091TIP3    H124764   2.114   4.575   1.465  0.3083 -0.8471 -0.4472
 1091TIP3    H224765   2.217   4.648   1.548 -0.3125 -0.5793  0.1031
 1092TIP3   OH224766   1.997   2.930  15.983  0.0671 -0.0770 -0.4290
 1092TIP3    H124767   2.063   2.873  15.943 -0.0125  0.5590 -1.5320
 1092TIP3    H224768   2.042   3.014  15.994 -0.5286  0.3466 -1.1444
 1093TIP3   OH224769   1.141   0.370  14.823  0.1246  0.5918  0.1506
 1093TIP3    H124770   1.137   0.457  14.864 -0.9231  0.4081  0.4724
 1093TIP3    H224771   1.049   0.341  14.819  0.5245 -0.9178  0.9800
 1094TIP3   OH224772   2.455   2.817  10.823 -0.0413  0.0063  0.5055
 1094TIP3    H124773   2.463   2.722  10.808  4.2708  0.3777 -0.7822
 1094TIP3    H224774   2.456   2.855  10.735 -1.2140  1.3550  1.0333
 1095TIP3   OH224775   6.788   0.490  12.472 -0.3590  0.2933 -0.1402
 1095TIP3    H124776   6.793   0.395  12.483  0.7057  0.3647  0.1551
 1095TIP3    H224777   6.695   0.508  12.461 -0.5390 -0.8324 -0.6908
 1096TIP3   OH224778   3.411   2.189   5.125 -0.0256  0.5739  0.1007
 1096TIP3    H124779   3.458   2.230   5.053  0.3956  1.9970  1.1415
 1096TIP3    H224780   3.346   2.133   5.082  1.8525 -0.6205 -1.3628
 1097TIP3   OH224781   0.012   4.355   6.022  0.4312 -0.1709 -0.0007
 1097TIP3    H124782  -0.027   4.377   6.106 -2.7643 -1.0831 -1.1078
 1097TIP3    H224783   0.106   4.350   6.039  0.0722  1.6085  3.0170
 1098TIP3   OH224784   4.084   0.236  12.470  0.4673  0.2203 -0.1944
 1098TIP3    H124785   4.032   0.261  12.547  0.0837  1.4775 -0.8198
 1098TIP3    H224786   4.059   0.300  12.404  3.1975  1.2024 -0.3955
 1099TIP3   OH224787   6.702   2.942  13.164  0.2182 -0.4374 -0.3688
 1099TIP3    H124788   6.732   2.939  13.073  1.9501  0.6982  0.1173
 1099TIP3    H224789   6.783   2.941  13.216 -0.7057 -0.1852  1.1212
 1100TIP3   OH224790   4.161   3.209  14.188  0.0499 -0.1433  0.1640
 1100TIP3    H124791   4.242   3.161  14.205 -0.5583 -1.8595 -1.4667
 1100TIP3    H224792   4.187   3.282  14.133  0.5640 -0.3695  0.1034
 1101TIP3   OH224793   4.831   0.466   0.848 -0.0707 -0.1312 -0.4727
 1101TIP3    H124794   4.851   0.405   0.777  0.5223  0.2051 -0.6081
 1101TIP3    H224795   4.913   0.473   0.897  0.7309  2.5064 -1.9769
 1102TIP3   OH224796   4.381   5.227   3.091 -0.5282 -0.0494 -0.0624
 1102TIP3    H124797   4.297   5.185   3.109 -1.2549  1.3319 -0.0874
 1102TIP3    H224798   4.442   5.154   3.076 -1.2217 -1.1345  2.0435
 1103TIP3   OH224799   0.509   6.481   4.010  0.2510 -0.2573 -0.0244
 1103TIP3    H124800   0.529   6.489   4.103 -2.2556  0.4461  0.5202
 1103TIP3    H224801   0.425   6.434   4.007 -0.7472  1.4774 -1.7938
 1104TIP3   OH224802   5.237   1.060  14.097  0.0514  0.5543 -0.1295
 1104TIP3    H124803   5.149   1.026  14.079  0.0840  0.1786  0.3993
 1104TIP3    H224804   5.293   0.983  14.100  0.2686  0.7223  0.2567
 1105TIP3   OH224805   0.225   5.279  13.801 -0.0527  0.3180 -0.2080
 1105TIP3    H124806   0.201   5.358  13.850 -1.2866  0.6151 -1.2381
 1105TIP3    H224807   0.188   5.207  13.853  0.3419  0.4769  0.2993
 1106TIP3   OH224808   4.132   5.012  13.675  0.2583 -0.4067  0.1997
 1106TIP3    H124809   4.078   5.012  13.754 -0.4479 -1.7671 -0.2454
 1106TIP3    H224810   4.160   4.921  13.665  1.4659  0.0037 -0.3812
 1107TIP3   OH224811   0.416   6.516  12.093  0.3132 -0.3423  0.0266
 1107TIP3    H124812   0.322   6.501  12.088  0.0641  1.0438  0.0272
 1107TIP3    H224813   0.432   6.541  12.184  0.5299  0.3212 -0.1882
 1108TIP3   OH224814   3.169   1.155  13.424 -0.6786  0.4387 -0.4517
 1108TIP3    H124815   3.162   1.061  13.413  0.0131  0.4287 -0.8769
 1108TIP3    H224816   3.235   1.182  13.360 -0.5176  1.1389 -0.0084
 1109TIP3   OH224817   3.128   6.542   4.767 -0.4294  0.0407  0.2195
 1109TIP3    H124818   3.108   6.597   4.692 -0.4067 -0.4935 -0.1816
 1109TIP3    H224819   3.193   6.480   4.735 -1.7459 -1.3737  0.1424
 1110TIP3   OH224820   2.924   2.078  11.068  0.1167  0.0593  0.3445
 1110TIP3    H124821   2.919   2.034  10.983  0.1576  1.5696 -0.4775
 1110TIP3    H224822   2.983   2.023  11.120 -2.0687 -2.4202  0.4037
 1111TIP3   OH224823   0.947   0.339  13.553 -0.2451 -0.0788  0.8574
 1111TIP3    H124824   0.991   0.411  13.508 -0.3892 -0.1161  0.6541
 1111TIP3    H224825   0.890   0.300  13.486 -3.1839  2.0216  1.9162
 1112TIP3   OH224826   3.907   5.750   0.873  0.1868  0.3038 -0.1199
 1112TIP3    H124827   3.864   5.836   0.880 -0.3388 -0.0889  2.3763
 1112TIP3    H224828   3.942   5.748   0.784  0.0406  3.0187 -0.3225
 1113TIP3   OH224829   1.998   0.605  16.270  0.1881  0.3032 -0.0457
 1113TIP3    H124830   1.911   0.570  16.256 -0.3243  0.7680  1.6826
 1113TIP3    H224831   1.994   0.694  16.235 -0.1761  0.4777  0.4314
 1114TIP3   OH224832   0.361   3.326   5.963 -0.0992 -0.5745  0.6185
 1114TIP3    H124833   0.418   3.318   6.040  1.3113 -0.8693 -0.4301
 1114TIP3    H224834   0.378   3.415   5.931 -0.1504 -0.7064  0.2311
 1115TIP3   OH224835   6.530   3.350   2.997 -0.1768  0.7177 -0.5464
 1115TIP3    H124836   6.619   3.320   2.984 -0.2159  0.3761 -0.0722
 1115TIP3    H224837   6.475   3.280   2.961 -0.2917 -0.4023  1.6303
 1116TIP3   OH224838   2.605   2.619  13.836  0.1776 -0.0242  0.2055
 1116TIP3    H124839   2.689   2.577  13.822  1.6756  2.5573  0.8084
 1116TIP3    H224840   2.566   2.626  13.749  1.6084  0.7180 -0.3963
 1117TIP3   OH224841   4.820   1.298  16.034 -0.2419 -0.1306  0.3094
 1117TIP3    H124842   4.825   1.218  15.981 -0.7539  1.2353 -1.9310
 1117TIP3    H224843   4.906   1.305  16.075  0.5699 -0.7227 -1.1834
 1118TIP3   OH224844   2.447   2.929  16.050  0.3878 -0.7780  0.2234
 1118TIP3    H124845   2.403   2.996  15.997  1.2945  0.3283  0.8212
 1118TIP3    H224846   2.522   2.902  15.997  1.2325  0.2501  0.8490
 1119TIP3   OH224847   3.410   4.747   2.726  0.4324  0.5240  0.8049
 1119TIP3    H124848   3.403   4.718   2.818 -1.2079 -1.4206  0.1446
 1119TIP3    H224849   3.504   4.744   2.708  0.5697 -3.3743  1.2410
 1120TIP3   OH224850   6.637   4.125  15.907  0.1882 -0.0975  0.4757
 1120TIP3    H124851   6.707   4.188  15.893  1.2201 -1.0715  1.0675
 1120TIP3    H224852   6.661   4.050  15.853  0.4009 -1.0146  1.7952
 1121TIP3   OH224853   1.097   5.069   0.573 -0.0553  0.0016  0.1251
 1121TIP3    H124854   1.052   5.095   0.653  0.0589  0.9491 -0.1137
 1121TIP3    H224855   1.117   4.976   0.586  0.6152  0.3135  1.5169
 1122TIP3   OH224856   6.043   2.492  15.511 -0.1756  0.4401  0.2545
 1122TIP3    H124857   6.103   2.558  15.478  0.1181  0.6835  1.2472
 1122TIP3    H224858   5.981   2.478  15.440  0.8915  0.3718 -0.6947
 1123TIP3   OH224859   5.634   3.553   2.124  0.0996 -0.2706  0.0339
 1123TIP3    H124860   5.572   3.565   2.053 -1.4880  0.3682  1.4644
 1123TIP3    H224861   5.594   3.487   2.181 -0.6231  1.9705  2.3195
 1124TIP3   OH224862   3.796   4.834  15.548  0.0158 -0.3217 -0.4713
 1124TIP3    H124863   3.780   4.788  15.466 -1.0167  1.3387 -1.2545
 1124TIP3    H224864   3.810   4.925  15.523 -1.5811  0.4689  1.2713
 1125TIP3   OH224865   2.763   4.831  17.021  0.1375  0.4663 -0.1485
 1125TIP3    H124866   2.800   4.862  16.938  0.0608 -0.6434 -0.6179
 1125TIP3    H224867   2.673   4.807  16.999 -0.2431  1.2321  0.5266
 1126TIP3   OH224868   3.983   3.620  16.987  0.7411 -0.7199  0.2889
 1126TIP3    H124869   3.957   3.698  16.938  0.2376 -2.5693 -2.6272
 1126TIP3    H224870   3.915   3.609  17.053  0.1048  0.5247 -0.1355
 1127TIP3   OH224871   0.249   3.122   1.998 -0.5495 -0.5158 -0.1219
 1127TIP3    H124872   0.293   3.133   1.913  0.3155 -0.6967  0.2923
 1127TIP3    H224873   0.156   3.127   1.977 -0.3741 -1.1719 -1.1821
 1128TIP3   OH224874   3.252   2.017  12.287 -0.5865 -0.1069  0.0104
 1128TIP3    H124875   3.324   2.080  12.297 -1.1557  0.8348 -1.4082
 1128TIP3    H224876   3.294   1.938  12.254  0.0249 -0.1765  0.9316
 1129TIP3   OH224877   0.456   3.001  12.929 -0.0133  0.0854 -0.6394
 1129TIP3    H124878   0.376   2.960  12.962 -0.9220  1.7528 -0.6433
 1129TIP3    H224879   0.485   3.057  13.001 -0.9377  2.2795 -1.8640
 1130TIP3   OH224880   0.843   4.371  12.587 -0.1123  0.5647  0.0645
 1130TIP3    H124881   0.786   4.431  12.635 -0.3769 -0.6169  1.2969
 1130TIP3    H224882   0.787   4.334  12.519  0.1413  1.9123 -0.9233
 1131TIP3   OH224883   2.496   6.060   4.918 -0.6656 -0.4185 -0.0521
 1131TIP3    H124884   2.459   5.977   4.947 -0.8385 -0.0121  0.9372
 1131TIP3    H224885   2.556   6.085   4.988 -2.1306  1.2797  0.6822
 1132TIP3   OH224886   0.635   0.040   1.519  0.0486  0.9094  0.3629
 1132TIP3    H124887   0.639   0.091   1.600  0.8982  1.1108  0.2064
 1132TIP3    H224888   0.684  -0.039   1.538 -0.1608  0.7392  0.1919
 1133TIP3   OH224889   5.713   3.752   1.264 -0.3057 -0.0990 -0.2942
 1133TIP3    H124890   5.744   3.841   1.244 -0.1372 -0.2646 -0.7886
 1133TIP3    H224891   5.718   3.746   1.360  0.9049 -0.0136 -0.3414
 1134TIP3   OH224892   1.001   0.720   6.084  0.1230 -0.6371 -0.4059
 1134TIP3    H124893   1.015   0.700   6.176  1.8472 -1.5476 -0.8253
 1134TIP3    H224894   0.928   0.782   6.084 -0.9516 -1.7922  1.4492
 1135TIP3   OH224895   1.748   1.498   0.467 -0.3223  0.0637  0.2096
 1135TIP3    H124896   1.757   1.590   0.442 -2.6117  0.9574  2.2470
 1135TIP3    H224897   1.767   1.498   0.561 -1.1383 -1.4145  0.3927
 1136TIP3   OH224898   4.565   3.738   0.891  0.8301  0.8260  0.1606
 1136TIP3    H124899   4.491   3.778   0.936 -0.2471  0.2661 -1.0720
 1136TIP3    H224900   4.543   3.741   0.798 -0.0082 -3.6820 -0.0413
 1137TIP3   OH224901   0.484   4.496  15.518  0.4127 -0.2473  0.6735
 1137TIP3    H124902   0.500   4.585  15.485 -0.1604 -0.3795  0.0019
 1137TIP3    H224903   0.566   4.471  15.561  0.6546  0.5238  0.6809
 1138TIP3   OH224904   0.594   3.679  16.679  0.1334  1.4735  0.0315
 1138TIP3    H124905   0.525   3.619  16.708  0.7832 -0.0412 -1.3916
 1138TIP3    H224906   0.552   3.735  16.613  0.0722  1.0654 -0.2779
 1139TIP3   OH224907   2.161   0.559   2.040  0.3313  0.9336  0.5297
 1139TIP3    H124908   2.197   0.632   2.089 -1.3691  1.1763  1.4987
 1139TIP3    H224909   2.066   0.574   2.040  0.0598 -0.5025 -0.5090
 1140TIP3   OH224910   5.779   2.872  10.672 -0.1063 -0.4137 -0.2879
 1140TIP3    H124911   5.847   2.858  10.606 -0.1894 -0.1998 -0.4191
 1140TIP3    H224912   5.698   2.846  10.629 -0.1394 -0.4265 -0.2179
 1141TIP3   OH224913   2.247   4.116  12.603 -0.2120  0.2704 -0.7904
 1141TIP3    H124914   2.296   4.126  12.685  0.2906  1.4229 -1.2140
 1141TIP3    H224915   2.161   4.153  12.622 -1.5352 -2.9519  0.3773
 1142TIP3   OH224916   3.859   2.774   6.395  0.1303  0.2522  0.5415
 1142TIP3    H124917   3.899   2.744   6.476 -1.2856 -0.5953  0.9582
 1142TIP3    H224918   3.809   2.699   6.363  0.3915  0.6708 -0.9620
 1143TIP3   OH224919   4.966   4.911  16.257 -0.2805  0.2013 -0.3191
 1143TIP3    H124920   4.929   4.989  16.216 -1.0056  0.1362  0.1901
 1143TIP3    H224921   4.896   4.846  16.250  0.4489 -0.5249 -1.0786
 1144TIP3   OH224922   6.795   6.110  14.923  0.2599  0.1934  0.5859
 1144TIP3    H124923   6.813   6.160  15.003 -2.1163  1.9774  0.0835
 1144TIP3    H224924   6.734   6.042  14.951  0.5473 -0.0809  0.5484
 1145TIP3   OH224925   3.185   6.643   0.234 -0.2846  0.0181 -0.5701
 1145TIP3    H124926   3.213   6.638   0.143  2.9220  1.5943  0.1752
 1145TIP3    H224927   3.131   6.722   0.239  1.2208  1.1059 -0.7980
 1146TIP3   OH224928   5.718   3.687  12.095 -0.1057  0.4903  0.1332
 1146TIP3    H124929   5.726   3.624  12.167 -0.6542  0.8177  0.4840
 1146TIP3    H224930   5.787   3.661  12.033  0.2441  0.0887  0.6817
 1147TIP3   OH224931   5.577   0.757  12.994 -0.1067  0.3002 -0.1264
 1147TIP3    H124932   5.491   0.799  13.002  0.7288  1.8029  1.7614
 1147TIP3    H224933   5.560   0.664  13.012 -1.2311  0.7169  1.1826
 1148TIP3   OH224934   3.274   2.578  13.005  0.0804 -0.0130  0.3124
 1148TIP3    H124935   3.192   2.628  13.004 -1.5695 -2.4419  1.9689
 1148TIP3    H224936   3.258   2.506  12.944  1.1212 -0.3090  0.3826
 1149TIP3   OH224937   0.623   0.465   5.579 -0.3245 -0.6823  0.5196
 1149TIP3    H124938   0.649   0.394   5.638 -1.3125 -1.3945  0.1369
 1149TIP3    H224939   0.625   0.425   5.492  0.4965  0.1762  0.1377
 1150TIP3   OH224940   4.300   4.892   3.097 -0.4212 -0.2148 -0.2399
 1150TIP3    H124941   4.223   4.950   3.099  0.8158  1.4800  1.2080
 1150TIP3    H224942   4.348   4.913   3.177  0.1242 -3.2933  0.3530
 1151TIP3   OH224943   4.970   3.154  17.078 -0.1675  0.3162  0.0641
 1151TIP3    H124944   4.940   3.064  17.068  0.3576 -0.0956  1.7647
 1151TIP3    H224945   5.039   3.165  17.013  0.3642 -0.8143  0.4200
 1152TIP3   OH224946   2.218   3.755  14.717  0.8410 -0.0151 -0.5323
 1152TIP3    H124947   2.231   3.849  14.706  0.8637 -0.0811 -1.0685
 1152TIP3    H224948   2.165   3.729  14.642  1.8585 -0.6479 -1.0496
 1153TIP3   OH224949   6.008   3.952   3.793  0.3858 -0.1400 -0.7729
 1153TIP3    H124950   6.053   3.944   3.877 -2.0993 -0.4987  0.6212
 1153TIP3    H224951   5.980   3.863   3.771 -2.2569  0.3773  0.0467
 1154TIP3   OH224952   0.649   5.796  14.356 -0.4263 -0.4263  0.0490
 1154TIP3    H124953   0.589   5.849  14.304 -1.3376  0.1570  1.6164
 1154TIP3    H224954   0.734   5.805  14.311 -0.5523  2.3127  0.1681
 1155TIP3   OH224955   6.137   4.646   1.842  0.0499 -0.2226  0.0300
 1155TIP3    H124956   6.117   4.721   1.786 -0.9452 -0.7298 -0.3075
 1155TIP3    H224957   6.190   4.588   1.787 -0.9243 -0.7194 -0.4148
 1156TIP3   OH224958   0.522   5.213  15.047 -0.1138 -0.4509 -0.0357
 1156TIP3    H124959   0.568   5.297  15.043 -0.7040 -0.1291 -0.2502
 1156TIP3    H224960   0.444   5.227  14.994 -0.5300 -0.9435  0.4474
 1157TIP3   OH224961   1.984   3.098  12.045  0.4233 -0.1799  0.3625
 1157TIP3    H124962   2.055   3.037  12.028  0.8086  0.8693 -2.2465
 1157TIP3    H224963   2.019   3.183  12.020 -1.4353  0.4905 -0.1171
 1158TIP3   OH224964   5.146   0.288   3.158 -0.2599 -0.1727 -0.0754
 1158TIP3    H124965   5.154   0.337   3.076  0.3969 -0.0149  0.0741
 1158TIP3    H224966   5.103   0.349   3.218  2.3837  1.0365  0.7250
 1159TIP3   OH224967   2.515   4.592  15.602 -0.4589  0.6684 -0.1546
 1159TIP3    H124968   2.519   4.537  15.524  2.4523  0.3144  0.1234
 1159TIP3    H224969   2.492   4.531  15.673  1.4313 -0.0442 -0.0705
 1160TIP3   OH224970   3.554   5.034  15.839 -0.3933 -0.2838  0.6473
 1160TIP3    H124971   3.520   5.110  15.791 -0.8538 -0.7471  0.2276
 1160TIP3    H224972   3.542   4.961  15.779  2.2317 -0.3456  0.0706
 1161TIP3   OH224973   2.740   1.413   4.406 -0.5510  0.1741  0.0123
 1161TIP3    H124974   2.759   1.325   4.438 -2.1245 -0.3694 -0.4632
 1161TIP3    H224975   2.811   1.433   4.345 -0.3346 -0.8817 -0.0985
 1162TIP3   OH224976   3.850   3.498   1.378 -0.1188 -0.5182 -0.6537
 1162TIP3    H124977   3.784   3.554   1.418 -0.7710 -1.1442 -0.8351
 1162TIP3    H224978   3.866   3.430   1.444 -0.6685 -1.1423 -1.1428
 1163TIP3   OH224979   5.784   0.778  11.586  0.3731 -0.3885  0.1447
 1163TIP3    H124980   5.717   0.823  11.638  1.0404 -0.3877  1.0222
 1163TIP3    H224981   5.792   0.831  11.507 -0.7117 -0.4347 -0.0217
 1164TIP3   OH224982   0.566   6.726   5.555  0.0159 -0.9990 -0.0775
 1164TIP3    H124983   0.631   6.796   5.561 -1.2206  0.4267 -1.8327
 1164TIP3    H224984   0.583   6.670   5.631  1.5899  0.7580  0.9565
 1165TIP3   OH224985   1.456   0.491   5.713 -0.2637  0.5488 -0.5432
 1165TIP3    H124986   1.542   0.501   5.673  0.2395 -0.7708  0.1351
 1165TIP3    H224987   1.394   0.515   5.644  0.6303  0.4829 -1.3840
 1166TIP3   OH224988   6.716   4.687   0.724 -0.2192  0.1068 -0.7664
 1166TIP3    H124989   6.674   4.646   0.799 -0.7445  2.0954  0.0953
 1166TIP3    H224990   6.767   4.617   0.683 -1.4313 -1.4746  0.3210
 1167TIP3   OH224991   2.837   6.739   2.183  0.5034 -0.5658  0.1354
 1167TIP3    H124992   2.865   6.768   2.270  1.3692  0.8524 -0.5733
 1167TIP3    H224993   2.912   6.693   2.147 -0.2790 -2.2622  0.5759
 1168TIP3   OH224994   1.698   1.048   3.776  0.1357 -0.1520 -0.2304
 1168TIP3    H124995   1.714   1.139   3.752 -0.3171  0.0767  0.3271
 1168TIP3    H224996   1.786   1.009   3.780  0.3600  0.3615 -0.0549
 1169TIP3   OH224997   1.148   3.936   5.371 -0.7694 -0.0030 -0.3201
 1169TIP3    H124998   1.181   4.026   5.374 -0.6680 -0.0553  0.6763
 1169TIP3    H224999   1.215   3.888   5.323  0.6566 -0.0896  1.6219
 1170TIP3   OH225000   3.526   5.271  15.299  0.4445  0.1559  0.3284
 1170TIP3    H125001   3.453   5.310  15.348  0.1235 -0.7011  0.5542
 1170TIP3    H225002   3.548   5.336  15.234  0.5628  1.1268  1.3078
 1171TIP3   OH225003   4.116   6.597  10.611  0.5689 -0.5204 -0.0920
 1171TIP3    H125004   4.058   6.562  10.678  2.4655 -1.5047  1.1487
 1171TIP3    H225005   4.202   6.562  10.634  2.1997  2.9746 -0.1966
 1172TIP3   OH225006   1.057   1.112  10.349 -0.4180 -0.0884 -0.1329
 1172TIP3    H125007   1.014   1.033  10.384 -1.5082 -0.2578 -1.7210
 1172TIP3    H225008   1.011   1.184  10.391  1.1782 -0.2225  2.0215
 1173TIP3   OH225009   6.221   1.428  15.323 -0.6764 -0.0335 -0.4599
 1173TIP3    H125010   6.222   1.434  15.227  1.1526  1.2264 -0.4181
 1173TIP3    H225011   6.261   1.510  15.352 -1.7662 -0.1204  1.4284
 1174TIP3   OH225012   2.550   4.532   1.439 -0.2715 -0.1599  0.2292
 1174TIP3    H125013   2.528   4.453   1.389 -0.0325 -0.9596  1.3316
 1174TIP3    H225014   2.492   4.529   1.515 -0.1746  0.6726  0.3383
 1175TIP3   OH225015   0.041   4.354  13.520  0.4341  0.1354  0.3201
 1175TIP3    H125016  -0.041   4.402  13.512  1.5687  1.9840 -1.0195
 1175TIP3    H225017   0.022   4.284  13.582 -2.7244 -0.8215 -1.4984
 1176TIP3   OH225018   4.791   6.122  13.149  0.0258 -0.0696  0.2543
 1176TIP3    H125019   4.877   6.084  13.132 -0.2719  0.1312 -2.0064
 1176TIP3    H225020   4.802   6.215  13.131  0.3312  0.7929  4.1246
 1177TIP3   OH225021   3.186   5.802  11.877  0.3731  0.4731 -0.3431
 1177TIP3    H125022   3.124   5.820  11.947  1.9415  1.1383  0.9306
 1177TIP3    H225023   3.175   5.876  11.816  1.3836  1.7621  0.9690
 1178TIP3   OH225024   3.268   4.273   0.437  0.1630  0.5863 -0.1827
 1178TIP3    H125025   3.350   4.257   0.391 -0.2895 -1.6310 -0.3772
 1178TIP3    H225026   3.240   4.359   0.408  2.2461  1.2729 -0.3430
 1179TIP3   OH225027   2.475   4.842  11.174  0.2725 -0.4989 -0.4125
 1179TIP3    H125028   2.497   4.926  11.214  0.1324 -0.4578 -0.4222
 1179TIP3    H225029   2.558   4.810  11.139  0.0516  0.3344 -1.7477
 1180TIP3   OH225030   6.301   0.337   2.167  0.2644 -0.3267  0.2525
 1180TIP3    H125031   6.243   0.288   2.109 -0.3741  0.1550  0.4789
 1180TIP3    H225032   6.355   0.269   2.209 -0.0221 -0.7615 -0.0685
 1181TIP3   OH225033   4.993   2.806  16.249  0.4050 -0.1953  0.4568
 1181TIP3    H125034   5.081   2.772  16.233  0.8291  1.4073 -0.8821
 1181TIP3    H225035   5.003   2.901  16.241 -1.3984  0.0327  0.6194
 1182TIP3   OH225036   3.823   5.666  16.532  0.0642  0.4003 -0.8362
 1182TIP3    H125037   3.879   5.731  16.488  1.8528 -1.9699 -2.3027
 1182TIP3    H225038   3.878   5.588  16.539 -2.8389 -1.9253 -1.7964
 1183TIP3   OH225039   6.365   1.964   5.430  0.1209  0.1053 -0.6286
 1183TIP3    H125040   6.313   2.038   5.462 -1.0662 -0.4458 -1.1830
 1183TIP3    H225041   6.425   2.003   5.366  0.2209  0.7320 -0.1584
 1184TIP3   OH225042   6.575   2.350   1.811  0.1615  0.3713 -0.0448
 1184TIP3    H125043   6.496   2.317   1.767  0.3343  0.2495 -0.2697
 1184TIP3    H225044   6.548   2.433   1.849 -0.1661  0.1697  0.1655
 1185TIP3   OH225045   6.649   2.101  14.727 -0.2359  0.6383 -0.2595
 1185TIP3    H125046   6.591   2.098  14.651 -0.9544  0.9540  0.2685
 1185TIP3    H225047   6.598   2.144  14.796  1.1754  2.4490 -0.2515
 1186TIP3   OH225048   4.488   5.630   1.223  0.4930 -0.1533  0.3984
 1186TIP3    H125049   4.412   5.628   1.281  0.2667 -0.3721  0.0971
 1186TIP3    H225050   4.451   5.633   1.135  0.8263 -1.0726  0.2163
 1187TIP3   OH225051   3.617   5.546  13.866 -0.0395 -0.3698  0.5657
 1187TIP3    H125052   3.661   5.631  13.865 -0.6247 -0.0559  1.0510
 1187TIP3    H225053   3.684   5.485  13.898  0.4766 -0.1543 -0.0794
 1188TIP3   OH225054   1.230   6.328  13.139  0.4096 -1.1177  0.2300
 1188TIP3    H125055   1.209   6.265  13.070  0.0975 -1.4085  0.5888
 1188TIP3    H225056   1.307   6.292  13.182  0.9987 -0.6119 -0.3694
 1189TIP3   OH225057   5.313   0.035   5.512  0.2858  0.3455  0.0993
 1189TIP3    H125058   5.301   0.012   5.420 -0.8095 -0.2261  0.3720
 1189TIP3    H225059   5.406   0.056   5.519  1.0607 -2.4111 -0.5526
 1190TIP3   OH225060   1.925   3.553  12.520 -0.3027  0.0129  0.4716
 1190TIP3    H125061   1.882   3.484  12.469 -0.8750  0.6683  0.0457
 1190TIP3    H225062   1.904   3.532  12.611 -0.1700 -0.5663  0.3768
 1191TIP3   OH225063   2.119   0.240  11.978  0.3358 -0.8219 -0.0873
 1191TIP3    H125064   2.160   0.169  11.929  0.6272 -1.4563  1.0478
 1191TIP3    H225065   2.184   0.310  11.977  1.4417 -1.7471  1.5186
 1192TIP3   OH225066   1.962   1.369   5.607  0.0389  0.2748  0.8626
 1192TIP3    H125067   1.989   1.304   5.672  0.5994 -0.8350 -0.4139
 1192TIP3    H225068   1.901   1.322   5.550  1.1505  0.5514 -0.6249
 1193TIP3   OH225069   1.906   2.702   4.323 -0.2493 -0.3929  0.3643
 1193TIP3    H125070   1.988   2.654   4.313  1.2090  1.6814  1.5514
 1193TIP3    H225071   1.930   2.794   4.308 -2.3970  0.2631  0.5926
 1194TIP3   OH225072   1.006   5.904  16.049  0.0052 -0.2847  0.2441
 1194TIP3    H125073   1.044   5.816  16.045  1.0920  0.1743 -0.1224
 1194TIP3    H225074   0.983   5.925  15.959  0.8771  0.2603  0.1325
 1195TIP3   OH225075   2.479   6.194  16.276 -0.5779 -0.2865 -0.0940
 1195TIP3    H125076   2.495   6.100  16.267 -0.2940 -0.3950  1.3480
 1195TIP3    H225077   2.497   6.213  16.368 -0.7058  1.1722 -0.3470
 1196TIP3   OH225078   5.134   6.348   1.498 -0.0146  0.2440  0.5442
 1196TIP3    H125079   5.159   6.366   1.589 -1.2174  1.1746  0.7212
 1196TIP3    H225080   5.128   6.435   1.458 -3.8250  0.2224  0.7893
 1197TIP3   OH225081   6.119   3.478   2.028  0.6545  0.0353  0.3742
 1197TIP3    H125082   6.032   3.442   2.015 -0.0217  1.3914  0.9461
 1197TIP3    H225083   6.169   3.407   2.069 -0.2494 -0.6563  0.3091
 1198TIP3   OH225084   6.063   2.223   5.841  0.4448  0.0017  0.2333
 1198TIP3    H125085   6.003   2.286   5.880 -0.2329 -1.6595  1.9928
 1198TIP3    H225086   6.091   2.167   5.913  2.1547 -0.8549 -1.0027
 1199TIP3   OH225087   0.313   0.968  15.492  0.8399  0.1592 -0.2145
 1199TIP3    H125088   0.265   0.897  15.535 -0.3679  0.5998 -0.7866
 1199TIP3    H225089   0.403   0.958  15.523  0.8081 -1.8734 -0.5910
 1200TIP3   OH225090   3.664   2.238   3.123 -0.4044  0.5474  0.1443
 1200TIP3    H125091   3.621   2.186   3.055  0.0764  0.2759  0.0478
 1200TIP3    H225092   3.631   2.203   3.205 -1.1960  1.0513  0.0569
 1201TIP3   OH225093   4.399   6.641  12.420 -0.7309 -0.2997 -0.7077
 1201TIP3    H125094   4.338   6.568  12.437 -1.1278  0.3283  0.7334
 1201TIP3    H225095   4.344   6.719  12.422  0.0986  0.2954  0.7811
 1202TIP3   OH225096   3.041   5.058   5.129 -0.0811 -0.3103 -0.6678
 1202TIP3    H125097   2.981   5.002   5.081 -1.3146 -0.4451  0.9491
 1202TIP3    H225098   2.996   5.142   5.137 -0.3674 -0.5895  1.0724
 1203TIP3   OH225099   0.419   5.947   0.986  0.3023 -0.3593 -0.1874
 1203TIP3    H125100   0.425   5.897   1.067  1.7024 -2.5818 -1.5602
 1203TIP3    H225101   0.509   5.955   0.955 -0.2577 -0.3899 -1.9729
 1204TIP3   OH225102   5.565   5.168  14.367 -0.6197  0.1801  0.8892
 1204TIP3    H125103   5.480   5.213  14.368  0.2200  1.8617  1.4838
 1204TIP3    H225104   5.597   5.181  14.278 -0.5142  0.5065  0.9728
 1205TIP3   OH225105   5.140   2.229  12.909 -0.3043 -0.1522  0.5740
 1205TIP3    H125106   5.115   2.303  12.965  1.2152 -0.4445  1.6839
 1205TIP3    H225107   5.213   2.188  12.954 -0.1570 -1.4625 -0.7794
 1206TIP3   OH225108   1.514   3.394   4.148  0.0469  0.6871  0.2637
 1206TIP3    H125109   1.561   3.315   4.120  2.6343  2.0043  0.6358
 1206TIP3    H225110   1.441   3.361   4.201  0.9425 -1.4533  0.2465
 1207TIP3   OH225111   3.819   4.135  16.726  0.8088  0.0147 -0.1744
 1207TIP3    H125112   3.784   4.147  16.814 -0.2683 -0.6397 -0.4941
 1207TIP3    H225113   3.762   4.188  16.670  1.1989  0.0544 -0.5399
 1208TIP3   OH225114   0.904   3.638   4.852 -0.2664 -0.2166  0.2463
 1208TIP3    H125115   0.860   3.604   4.931  1.3140  0.9338  1.7017
 1208TIP3    H225116   0.842   3.700   4.815 -0.3836  0.5587  1.6384
 1209TIP3   OH225117   3.890   1.159  11.852  0.1816 -0.2223  0.0294
 1209TIP3    H125118   3.814   1.131  11.903 -0.1543  1.9954  0.8654
 1209TIP3    H225119   3.893   1.098  11.778 -2.2994 -0.4861  0.0581
 1210TIP3   OH225120   0.966   3.745  16.311  1.1431  0.7054  0.2741
 1210TIP3    H125121   0.991   3.654  16.297 -1.8533 -0.2863  0.5631
 1210TIP3    H225122   0.952   3.752  16.406  0.7466  1.2886  0.1792
 1211TIP3   OH225123   6.692   1.334  13.180 -0.5701 -0.2697  0.3997
 1211TIP3    H125124   6.781   1.331  13.214 -0.9859  1.3154  1.7696
 1211TIP3    H225125   6.695   1.282  13.100  0.9391 -2.4593  1.7762
 1212TIP3   OH225126   5.758   1.160  13.359 -0.1361  0.0323 -0.5481
 1212TIP3    H125127   5.725   1.109  13.285 -0.3512  1.4312 -1.4430
 1212TIP3    H225128   5.831   1.210  13.323  1.2672 -0.9578  0.7565
 1213TIP3   OH225129   0.233   2.442   4.449 -0.4685  0.5349 -0.0565
 1213TIP3    H125130   0.153   2.474   4.491  0.3699  0.6866  1.4644
 1213TIP3    H225131   0.211   2.352   4.421 -1.3725  0.8138 -0.2797
 1214TIP3   OH225132   4.465   0.984  17.136  0.2215  0.4401  0.4109
 1214TIP3    H125133   4.524   0.940  17.075 -1.4183 -0.6793 -0.4440
 1214TIP3    H225134   4.461   1.075  17.105  0.3647  0.1777 -0.3933
 1215TIP3   OH225135   3.308   0.633  16.212 -0.4106 -0.6008  0.0220
 1215TIP3    H125136   3.363   0.711  16.215  1.3462 -1.7892 -0.1104
 1215TIP3    H225137   3.268   0.635  16.125 -1.7618  1.0081  0.6232
 1216TIP3   OH225138   3.759   0.960   2.358 -0.1485 -1.2248  0.4639
 1216TIP3    H125139   3.815   0.883   2.371 -0.4052 -1.1983  1.7933
 1216TIP3    H225140   3.814   1.034   2.384 -0.0584 -0.9838 -0.3732
 1217TIP3   OH225141   1.278   2.662   1.468 -0.8366 -0.2274  0.1051
 1217TIP3    H125142   1.278   2.606   1.391 -0.6122 -0.8343  0.5337
 1217TIP3    H225143   1.343   2.622   1.526  1.1359  1.8234 -0.5329
 1218TIP3   OH225144   5.979   1.252  16.575  0.3947  0.2120 -0.1093
 1218TIP3    H125145   6.041   1.260  16.503 -0.6009 -0.1227 -1.0350
 1218TIP3    H225146   5.978   1.158  16.596 -0.0699  0.1546 -0.3644
 1219TIP3   OH225147   5.572   0.055  14.865 -0.4886 -0.1210 -0.1841
 1219TIP3    H125148   5.592   0.075  14.956 -0.3113 -0.7480 -0.0836
 1219TIP3    H225149   5.503  -0.010  14.868 -0.9846  0.3760 -0.5122
 1220TIP3   OH225150   2.070   6.512  12.430  0.8694 -0.2305 -0.2993
 1220TIP3    H125151   2.088   6.445  12.497 -0.0556 -1.1509 -0.9317
 1220TIP3    H225152   2.048   6.461  12.352  2.3691  0.8166 -1.4589
 1221TIP3   OH225153   6.787   4.191   6.428  0.0685  0.0367  0.9460
 1221TIP3    H125154   6.803   4.096   6.424  0.6665  0.0988  1.7213
 1221TIP3    H225155   6.702   4.198   6.473 -0.3170 -0.1510  0.2605
 1222TIP3   OH225156   5.041   5.928   4.137 -0.2465  0.4321  0.1635
 1222TIP3    H125157   4.993   5.858   4.093 -0.2418  1.4480 -1.5220
 1222TIP3    H225158   5.081   5.885   4.213 -0.5323 -1.3119 -0.6254
 1223TIP3   OH225159   3.955   5.000   3.406  0.0885 -0.0380 -0.4625
 1223TIP3    H125160   4.002   4.924   3.438  2.8294  0.5905 -2.6196
 1223TIP3    H225161   3.922   4.974   3.320  1.2710  1.2190 -1.3367
 1224TIP3   OH225162   6.176   4.533   4.874  0.2774  1.2677 -0.1383
 1224TIP3    H125163   6.131   4.591   4.812  2.9910  0.2462 -3.3415
 1224TIP3    H225164   6.140   4.558   4.959 -4.6221  1.9590 -2.0641
 1225TIP3   OH225165   5.198   0.755  14.122  0.0936  0.1716  0.1065
 1225TIP3    H125166   5.112   0.798  14.125 -0.0999 -0.2613  0.8481
 1225TIP3    H225167   5.233   0.779  14.036 -0.6719  0.5365 -0.1147
 1226TIP3   OH225168   6.330   4.661   3.848 -0.8039  0.5925 -0.0843
 1226TIP3    H125169   6.368   4.596   3.906 -1.6611  1.2453  1.2621
 1226TIP3    H225170   6.401   4.686   3.789  0.0746 -0.1418  0.6453
 1227TIP3   OH225171   0.254   4.091  15.573  0.0568  0.2320 -0.4266
 1227TIP3    H125172   0.159   4.104  15.574 -0.1064 -0.8956  0.9423
 1227TIP3    H225173   0.278   4.079  15.664  1.3647 -0.5247 -0.8435
 1228TIP3   OH225174   5.585   0.240  15.130 -0.3917  0.1937 -0.1188
 1228TIP3    H125175   5.564   0.301  15.201 -0.2442  2.4315 -1.8643
 1228TIP3    H225176   5.506   0.189  15.118 -0.0857 -0.9967  2.2700
 1229TIP3   OH225177   2.577   0.192  16.536 -0.3197 -0.4440 -0.3544
 1229TIP3    H125178   2.629   0.216  16.612 -0.6176  0.8228 -0.5328
 1229TIP3    H225179   2.639   0.151  16.475  0.6578  1.6462 -0.8533
 1230TIP3   OH225180   6.098   3.818  13.274 -0.2864  0.5845  0.1453
 1230TIP3    H125181   6.156   3.892  13.253  1.9179 -0.8503  0.7794
 1230TIP3    H225182   6.155   3.741  13.268 -1.8917 -0.8353  1.9152
 1231TIP3   OH225183   0.184   3.902   6.141  0.6949  0.5137 -0.4003
 1231TIP3    H125184   0.246   3.830   6.139  0.1812  0.0698 -2.2398
 1231TIP3    H225185   0.175   3.924   6.234  0.9670 -1.6862  0.1911
 1232TIP3   OH225186   2.303   2.404  14.819 -0.1041 -0.3321  0.1469
 1232TIP3    H125187   2.314   2.378  14.728  1.0661  2.0408 -0.4666
 1232TIP3    H225188   2.209   2.396  14.836 -0.2418 -1.4071 -1.0582
 1233TIP3   OH225189   0.319   5.290  14.878  0.8041 -0.0908  0.3520
 1233TIP3    H125190   0.226   5.270  14.866  1.1317 -0.5721 -1.7406
 1233TIP3    H225191   0.356   5.283  14.790  2.8310  0.0772  1.1558
 1234TIP3   OH225192   0.803   3.073  12.930 -0.3628  0.5927  0.0923
 1234TIP3    H125193   0.758   3.060  13.014  0.0524  0.8895  0.3624
 1234TIP3    H225194   0.778   2.996  12.878  0.9236 -0.6412  1.1818
 1235TIP3   OH225195   4.975   6.517   2.745  0.6343  0.1409 -0.3153
 1235TIP3    H125196   4.974   6.577   2.671 -3.8356 -0.4895 -1.0148
 1235TIP3    H225197   4.934   6.566   2.816  0.5072 -0.8467  0.3024
 1236TIP3   OH225198   3.826   2.925  15.351  0.3949  0.2465  0.0446
 1236TIP3    H125199   3.847   2.945  15.443  3.0945 -2.3606  0.1508
 1236TIP3    H225200   3.743   2.878  15.355  0.5272  0.0829  1.1844
 1237TIP3   OH225201   3.417   4.102  14.502 -0.1797  0.3261  0.2498
 1237TIP3    H125202   3.406   4.047  14.579  0.1601  0.4801  0.4071
 1237TIP3    H225203   3.467   4.048  14.441 -0.1059  0.3522  0.2880
 1238TIP3   OH225204   1.476   3.318   1.735  0.0091  1.2251 -0.0284
 1238TIP3    H125205   1.404   3.320   1.673 -0.1226 -2.1924 -0.1765
 1238TIP3    H225206   1.551   3.286   1.684 -0.3887 -2.8892  1.5528
 1239TIP3   OH225207   6.498   1.612   3.144 -0.2504 -0.1141  0.6906
 1239TIP3    H125208   6.575   1.558   3.159 -1.2581 -1.1469  2.5667
 1239TIP3    H225209   6.432   1.551   3.111 -0.4210  0.6667 -0.4672
 1240TIP3   OH225210   5.786   6.607  12.587 -0.5602  0.0082  0.1198
 1240TIP3    H125211   5.734   6.686  12.603 -0.6508  0.2094 -1.0475
 1240TIP3    H225212   5.820   6.619  12.498  1.5447 -0.0921  0.8766
 1241TIP3   OH225213   5.808   2.190   1.539  0.2105 -0.0324 -0.1281
 1241TIP3    H125214   5.826   2.220   1.628  2.7733  0.7876 -0.8424
 1241TIP3    H225215   5.811   2.094   1.545 -0.8916 -0.0278  0.8539
 1242TIP3   OH225216   4.061   4.369  11.477  0.3729  0.0338  0.1503
 1242TIP3    H125217   4.136   4.401  11.526  0.7460  0.3067 -0.5736
 1242TIP3    H225218   4.075   4.402  11.388 -0.3711 -0.2948 -0.0994
 1243TIP3   OH225219   1.576   1.657  12.106  0.2132 -0.0515  0.6769
 1243TIP3    H125220   1.614   1.687  12.024 -1.4667  1.9955  0.5492
 1243TIP3    H225221   1.580   1.562  12.102  0.2032  0.0015 -1.7550
 1244TIP3   OH225222   1.242   3.370   4.499 -0.0998 -0.0266 -0.3145
 1244TIP3    H125223   1.234   3.284   4.458  2.4779 -0.1303 -0.7634
 1244TIP3    H225224   1.189   3.428   4.445  1.9460 -0.4616 -2.9849
 1245TIP3   OH225225   3.573   6.223   2.644  0.2040  0.0060  0.0818
 1245TIP3    H125226   3.660   6.207   2.608  0.6951 -2.8912  2.1736
 1245TIP3    H225227   3.569   6.168   2.722 -3.7401 -0.5016 -0.2831
 1246TIP3   OH225228   2.160   5.838  11.932  0.2528  0.1147 -0.5483
 1246TIP3    H125229   2.218   5.794  11.994 -1.1901 -0.6656  0.3130
 1246TIP3    H225230   2.218   5.892  11.878  1.6795 -0.1238  0.6904
 1247TIP3   OH225231   1.547   6.459   3.541 -0.2537 -0.2526 -0.2061
 1247TIP3    H125232   1.557   6.451   3.636  0.2142 -1.1663 -0.3210
 1247TIP3    H225233   1.576   6.374   3.507  0.6270  0.4442 -1.2408
 1248TIP3   OH225234   2.642   3.288  13.132  0.4662  0.4029  0.1687
 1248TIP3    H125235   2.592   3.370  13.129  0.4099  0.4335  1.3868
 1248TIP3    H225236   2.625   3.253  13.220 -2.4192 -2.7486 -1.4262
 1249TIP3   OH225237   0.489   6.808  12.231 -0.0002  0.1988  0.2614
 1249TIP3    H125238   0.491   6.876  12.163  0.5341  0.7655  0.8373
 1249TIP3    H225239   0.563   6.828  12.288  1.8183 -2.3902 -0.9926
 1250TIP3   OH225240   6.501   1.659  16.866  0.0818  0.1122 -0.3671
 1250TIP3    H125241   6.535   1.685  16.951 -1.1520  1.6219 -0.3109
 1250TIP3    H225242   6.496   1.740  16.815 -0.1791 -0.5997 -1.5269
 1251TIP3   OH225243   5.102   5.374  11.039 -0.0890 -0.0136  0.2427
 1251TIP3    H125244   5.152   5.350  10.960  0.5062 -1.2996  0.9920
 1251TIP3    H225245   5.011   5.379  11.009  0.4361  2.7080 -1.2309
 1252TIP3   OH225246   5.197   5.418   5.241 -0.0369  0.0625  0.6014
 1252TIP3    H125247   5.273   5.366   5.217 -0.1208  0.2629 -0.1280
 1252TIP3    H225248   5.153   5.436   5.158  0.7358  2.4558  0.6168
 1253TIP3   OH225249   6.796   6.237  13.877 -0.0513 -0.1762 -0.3919
 1253TIP3    H125250   6.789   6.150  13.840 -2.5643  0.3182 -1.2804
 1253TIP3    H225251   6.742   6.234  13.956 -0.4455  0.6650 -0.6223
 1254TIP3   OH225252   5.538   2.090   2.899 -1.0523  0.3670 -0.1681
 1254TIP3    H125253   5.631   2.110   2.910 -1.2875  1.6593 -0.3127
 1254TIP3    H225254   5.530   2.066   2.807 -0.8421  0.0715 -0.1134
 1255TIP3   OH225255   2.646   3.379  13.701  0.0416 -0.3576  0.9625
 1255TIP3    H125256   2.732   3.421  13.694  0.1826 -0.7085  0.5289
 1255TIP3    H225257   2.629   3.344  13.613  0.1248 -1.5630  1.4045
 1256TIP3   OH225258   0.504   5.728   4.092 -0.0159  0.0360  0.2712
 1256TIP3    H125259   0.499   5.666   4.165 -1.9967  0.7400  0.8101
 1256TIP3    H225260   0.506   5.814   4.134  3.1538  0.4313 -0.4520
 1257TIP3   OH225261   1.070   5.411  16.349  0.3644 -0.0158 -0.1524
 1257TIP3    H125262   1.042   5.345  16.285  0.1430  0.7451 -0.8602
 1257TIP3    H225263   1.109   5.360  16.419  0.5986 -0.8819 -0.8823
 1258TIP3   OH225264   2.698   1.958  15.391 -0.1899  0.1568  0.0702
 1258TIP3    H125265   2.736   1.916  15.314 -1.4869 -0.2248 -0.3887
 1258TIP3    H225266   2.615   1.994  15.361 -0.4659  0.4764  1.1616
 1259TIP3   OH225267   4.932   6.361  13.244  0.5870  0.2251 -0.2259
 1259TIP3    H125268   5.016   6.337  13.284  0.6098  1.0779  0.2413
 1259TIP3    H225269   4.957   6.404  13.162  0.5491 -1.1102 -0.9774
 1260TIP3   OH225270   1.534   5.223  10.988  0.5300  0.3290  0.3676
 1260TIP3    H125271   1.521   5.142  10.939  2.4443  0.0287  0.2821
 1260TIP3    H225272   1.628   5.225  11.007  0.0738  1.0134  3.0135
 1261TIP3   OH225273   2.801   0.511   4.613  0.5900  0.2321 -0.2882
 1261TIP3    H125274   2.788   0.481   4.523  1.3392 -1.8176  0.2466
 1261TIP3    H225275   2.833   0.434   4.660 -1.7603  0.6737  2.2463
 1262TIP3   OH225276   0.430   6.207  11.046  0.3866 -0.5014 -0.0392
 1262TIP3    H125277   0.481   6.222  10.967  0.0305  2.2001  0.1494
 1262TIP3    H225278   0.344   6.179  11.014  0.6018 -0.5718 -0.5589
 1263TIP3   OH225279   1.073   2.841  16.688  0.1091 -0.0511 -0.1587
 1263TIP3    H125280   1.054   2.864  16.779 -2.6246 -0.1105 -0.6502
 1263TIP3    H225281   1.064   2.923  16.640  3.1104  0.3354 -0.2786
 1264TIP3   OH225282   0.813   0.736   2.616 -0.0577  0.1011  0.3474
 1264TIP3    H125283   0.891   0.753   2.562  0.4432 -0.0231  1.0122
 1264TIP3    H225284   0.813   0.641   2.629  0.6250  0.2614  1.7037
 1265TIP3   OH225285   4.489   3.429   4.976  0.4296 -0.1473  1.1386
 1265TIP3    H125286   4.429   3.411   4.903 -1.3206  5.1148  0.8788
 1265TIP3    H225287   4.570   3.458   4.934  0.1112  0.9528  1.2495
 1266TIP3   OH225288   2.537   0.298  14.971  0.4661 -0.1476  0.2661
 1266TIP3    H125289   2.567   0.246  15.046 -0.0054 -0.0925  0.4960
 1266TIP3    H225290   2.473   0.358  15.008 -0.2299 -0.5363 -0.2850
 1267TIP3   OH225291   4.727   4.719  10.809  0.6466  0.3813 -0.5226
 1267TIP3    H125292   4.748   4.791  10.749 -2.0600  0.6035 -1.3194
 1267TIP3    H225293   4.685   4.653  10.753 -0.6806 -0.0068  0.8780
 1268TIP3   OH225294   5.340   5.144  15.940 -0.0840 -0.3525 -0.2714
 1268TIP3    H125295   5.295   5.208  15.886  0.3366  0.2600  0.0964
 1268TIP3    H225296   5.419   5.122  15.890 -0.0909 -0.3852 -0.2684
 1269TIP3   OH225297   3.187   1.252   0.209 -0.2735 -0.1248  0.3708
 1269TIP3    H125298   3.095   1.251   0.184 -0.8558  0.1728  2.2707
 1269TIP3    H225299   3.229   1.310   0.146 -0.9624 -1.7289 -1.6953
 1270TIP3   OH225300   0.769   3.561  12.503  0.1069 -0.6088 -0.6982
 1270TIP3    H125301   0.741   3.504  12.432 -1.8629 -0.9199  0.2658
 1270TIP3    H225302   0.858   3.531  12.524 -0.8220 -3.3520 -0.2751
 1271TIP3   OH225303   6.110   4.456   4.328  0.2445  0.1498  0.5076
 1271TIP3    H125304   6.130   4.523   4.263  2.5222  0.3166  1.2866
 1271TIP3    H225305   6.102   4.375   4.278  0.8492  0.4622 -0.1210
 1272TIP3   OH225306   0.216   2.320  11.544  0.1300  0.1319  0.2711
 1272TIP3    H125307   0.218   2.290  11.453 -1.1432  1.7954 -0.3587
 1272TIP3    H225308   0.218   2.416  11.538 -1.9213  0.3419  1.8592
 1273TIP3   OH225309   5.680   2.074  14.890 -0.0330 -0.0727 -0.0477
 1273TIP3    H125310   5.625   2.037  14.960  1.8334 -0.2515  1.3959
 1273TIP3    H225311   5.725   1.998  14.853  1.3028  0.3446  0.6748
 1274TIP3   OH225312   1.573   3.168  13.888  0.0889  0.2158  0.4128
 1274TIP3    H125313   1.516   3.242  13.869 -0.9827 -0.9900 -1.3528
 1274TIP3    H225314   1.653   3.186  13.840  0.5415  1.0256  1.4151
 1275TIP3   OH225315   4.521   0.928  11.320  0.4161  0.5867 -0.7009
 1275TIP3    H125316   4.447   0.980  11.288  0.4896  1.1922  0.1122
 1275TIP3    H225317   4.495   0.902  11.409  1.5115  1.4632 -0.1127
 1276TIP3   OH225318   2.776   0.458   4.344  0.2349  0.1610  0.2068
 1276TIP3    H125319   2.682   0.470   4.331 -0.0934 -0.9646  1.3762
 1276TIP3    H225320   2.814   0.542   4.319 -1.0015  0.4157 -0.9323
 1277TIP3   OH225321   2.842   5.274   1.710  0.5041 -0.7747  0.4454
 1277TIP3    H125322   2.806   5.310   1.629  0.9635 -0.4525  0.3796
 1277TIP3    H225323   2.925   5.233   1.684  1.0847  0.0809  0.8738
 1278TIP3   OH225324   5.111   3.313   5.691 -0.3941 -0.2554  0.3411
 1278TIP3    H125325   5.163   3.342   5.616 -1.6424 -0.7032 -0.7149
 1278TIP3    H225326   5.046   3.382   5.704  1.5511  1.2869  2.8894
 1279TIP3   OH225327   3.538   6.398  14.430  0.2632  0.4236  0.1680
 1279TIP3    H125328   3.462   6.372  14.483  1.2425 -2.0108  0.5106
 1279TIP3    H225329   3.585   6.461  14.484 -0.5313  0.5478  0.7377
 1280TIP3   OH225330   0.571   3.444  16.274 -0.0760  0.5317  0.6840
 1280TIP3    H125331   0.490   3.495  16.286 -0.5082  0.4023 -1.3282
 1280TIP3    H225332   0.542   3.353  16.277  0.1087  0.4707  0.5726
 1281TIP3   OH225333   2.479   1.076   3.253  0.5831  0.2633 -0.3487
 1281TIP3    H125334   2.502   1.011   3.319 -0.8995  0.2251  0.1692
 1281TIP3    H225335   2.558   1.129   3.243  1.3159 -0.6661  0.3446
 1282TIP3   OH225336   3.025   2.308   2.053 -0.1543 -0.3496 -0.1629
 1282TIP3    H125337   2.949   2.347   2.008 -1.7656 -0.3482  2.3829
 1282TIP3    H225338   3.070   2.383   2.092  0.5333 -0.4741 -0.6937
 1283TIP3   OH225339   2.583   5.517   5.066  0.1795 -0.2035  0.3451
 1283TIP3    H125340   2.621   5.459   5.132 -0.8736 -0.4939  0.7200
 1283TIP3    H225341   2.537   5.458   5.005  2.5917 -0.1049 -1.7100
 1284TIP3   OH225342   0.767   5.238  12.915  0.0802 -0.2485  0.7645
 1284TIP3    H125343   0.826   5.310  12.892 -1.2893  0.2294 -1.5258
 1284TIP3    H225344   0.708   5.276  12.981 -0.5388  0.7200 -0.3200
 1285TIP3   OH225345   3.367   6.094  15.351 -0.0183  0.3460 -0.0374
 1285TIP3    H125346   3.360   5.999  15.359 -1.3513  0.2642 -1.6801
 1285TIP3    H225347   3.298   6.129  15.408 -1.1841  0.2009 -1.3009
 1286TIP3   OH225348   3.617   6.366   2.952  0.2575  0.2161 -0.1649
 1286TIP3    H125349   3.660   6.283   2.931 -0.2787 -0.8974  2.6879
 1286TIP3    H225350   3.524   6.348   2.941  0.1953  0.8075 -0.6356
 1287TIP3   OH225351   0.995   2.237  15.199  0.2706 -0.0872  0.5770
 1287TIP3    H125352   0.983   2.329  15.173  0.0896 -0.3762 -0.4157
 1287TIP3    H225353   1.011   2.191  15.116  1.1753 -0.8296  1.1480
 1288TIP3   OH225354   4.013   2.247  14.820 -0.6773  0.4218  0.0853
 1288TIP3    H125355   3.927   2.289  14.823 -0.1194  1.5284  1.0744
 1288TIP3    H225356   4.046   2.267  14.733 -1.6006 -0.4005 -0.4732
 1289TIP3   OH225357   0.014   5.570  13.319  0.1401 -0.4389 -0.2189
 1289TIP3    H125358   0.037   5.483  13.350 -0.3404 -0.2941  0.5839
 1289TIP3    H225359  -0.065   5.557  13.266 -1.3576 -0.2483  1.8248
 1290TIP3   OH225360   0.181   1.683  12.607 -0.3538  0.0793  0.1439
 1290TIP3    H125361   0.247   1.744  12.572 -1.1740  1.2699  0.6180
 1290TIP3    H225362   0.173   1.707  12.699 -1.7573  0.2343 -0.0053
 1291TIP3   OH225363   1.988   0.272  16.179 -0.1532  0.2300  0.6645
 1291TIP3    H125364   1.903   0.316  16.178 -0.3328 -0.0832 -1.4026
 1291TIP3    H225365   2.032   0.302  16.100  1.3491 -0.2525  1.2800
 1292TIP3   OH225366   3.679   4.276  11.792  0.3886 -0.1422  0.6401
 1292TIP3    H125367   3.723   4.360  11.778 -0.6023  0.7149  2.3162
 1292TIP3    H225368   3.619   4.268  11.718 -0.9609  1.6632  1.4506
 1293TIP3   OH225369   5.419   4.945   6.002 -0.3864  0.0168 -0.1491
 1293TIP3    H125370   5.508   4.947   5.968 -0.3877 -0.9134 -0.2248
 1293TIP3    H225371   5.430   4.930   6.096 -0.4728 -1.7721 -0.3778
 1294TIP3   OH225372   1.311   3.990  11.413 -0.2594 -0.0160 -0.4658
 1294TIP3    H125373   1.251   3.931  11.367 -0.4115 -0.7033  0.5862
 1294TIP3    H225374   1.288   4.077  11.382  1.0112 -0.5673 -3.2908
 1295TIP3   OH225375   0.223   5.894  13.495  0.0693 -0.1344 -0.5320
 1295TIP3    H125376   0.299   5.943  13.528  1.4898 -2.3227 -0.3197
 1295TIP3    H225377   0.184   5.952  13.430  0.7916  1.8308  0.6702
 1296TIP3   OH225378   4.493   4.352  10.954  0.1323  0.1932 -0.0492
 1296TIP3    H125379   4.537   4.327  10.872 -1.0837 -0.2882 -0.5688
 1296TIP3    H225380   4.565   4.374  11.013  1.0350  0.6775 -1.2833
 1297TIP3   OH225381   0.879   4.355  11.403 -0.0105 -0.1574 -0.2706
 1297TIP3    H125382   0.804   4.400  11.364 -1.3849 -1.0512  1.1663
 1297TIP3    H225383   0.917   4.420  11.463 -1.4414 -0.5301  1.1308
 1298TIP3   OH225384   5.013   1.070   5.604 -0.0089  0.3970 -0.2661
 1298TIP3    H125385   4.946   1.132   5.635  2.2173  2.8960 -0.1291
 1298TIP3    H225386   5.070   1.057   5.680  0.0898 -1.1344 -0.5818
 1299TIP3   OH225387   5.809   0.580   5.768  0.6304 -0.0903  0.1075
 1299TIP3    H125388   5.869   0.614   5.834  0.7773  0.2762 -0.2135
 1299TIP3    H225389   5.731   0.556   5.817  0.9650 -0.3939  0.5017
 1300TIP3   OH225390   2.044   4.509   1.800  0.4785  0.9455  0.1513
 1300TIP3    H125391   2.079   4.433   1.754 -0.2046  0.5814  0.2298
 1300TIP3    H225392   2.032   4.576   1.732  0.7889  0.8859  0.0358
 1301TIP3   OH225393   0.560   4.213   0.674 -0.2719 -0.7303  0.9038
 1301TIP3    H125394   0.553   4.252   0.761  1.3749  0.6837  0.4573
 1301TIP3    H225395   0.640   4.252   0.637 -0.9725 -1.2345 -1.2614
 1302TIP3   OH225396   1.505   4.148  13.418  0.4378  0.9561  0.2029
 1302TIP3    H125397   1.508   4.214  13.348  1.1246  1.7314  0.9433
 1302TIP3    H225398   1.426   4.097  13.399 -0.9227  2.8823  0.3758
 1303TIP3   OH225399   6.264   6.645   5.256 -0.7100 -0.1176 -0.1216
 1303TIP3    H125400   6.348   6.600   5.244 -1.2519 -1.2482  0.1800
 1303TIP3    H225401   6.288   6.733   5.284  0.3939 -0.1071 -1.0207
 1304TIP3   OH225402   5.395   3.055   4.320  0.5453 -0.0073 -0.4574
 1304TIP3    H125403   5.376   3.027   4.231 -1.1944  0.2882 -0.2028
 1304TIP3    H225404   5.320   3.025   4.371  0.6423  1.4366  0.5779
 1305TIP3   OH225405   3.763   1.376   4.027  0.0807  0.4589 -0.0390
 1305TIP3    H125406   3.806   1.381   3.941  0.0395  1.0351 -0.0331
 1305TIP3    H225407   3.809   1.441   4.081 -1.4410  1.8839 -0.3460
 1306TIP3   OH225408   5.347   4.196  13.897 -0.3651  0.8429  0.3290
 1306TIP3    H125409   5.277   4.199  13.832 -1.2403  1.7140  1.2570
 1306TIP3    H225410   5.325   4.267  13.958  1.6621  1.5299  0.3238
 1307TIP3   OH225411   4.314   0.226  15.032 -0.0205  0.3127 -0.2819
 1307TIP3    H125412   4.226   0.193  15.013  0.3894 -0.8675 -0.1565
 1307TIP3    H225413   4.309   0.255  15.123 -0.3206  0.3949 -0.3226
 1308TIP3   OH225414   4.925   6.381   6.154  0.5778  0.8451 -0.2357
 1308TIP3    H125415   4.936   6.424   6.069  0.1712 -0.5656 -1.0339
 1308TIP3    H225416   4.831   6.379   6.168  0.5270 -0.6437 -0.6903
 1309TIP3   OH225417   1.713   1.719   1.789  0.3018  0.7471  0.0018
 1309TIP3    H125418   1.805   1.696   1.773  0.4093  0.1556  1.3455
 1309TIP3    H225419   1.670   1.706   1.705  0.9772 -1.4230 -0.0831
 1310TIP3   OH225420   1.799   3.319  11.186 -0.1747 -0.2288  0.1743
 1310TIP3    H125421   1.777   3.291  11.097 -0.5614 -0.2155  0.2651
 1310TIP3    H225422   1.779   3.412  11.188 -0.4287 -0.2864  0.3562
 1311TIP3   OH225423   6.324   6.408   5.462 -0.2639  0.4105 -0.1831
 1311TIP3    H125424   6.303   6.324   5.502 -0.5886  0.0577 -1.0671
 1311TIP3    H225425   6.295   6.473   5.526 -0.7745 -0.1382  0.1529
 1312TIP3   OH225426   4.206   0.076  12.801 -0.8873 -0.0262 -0.7833
 1312TIP3    H125427   4.236   0.054  12.713 -2.1534 -2.3242 -0.7223
 1312TIP3    H225428   4.111   0.067  12.797 -0.9163 -1.0558  0.9981
 1313TIP3   OH225429   6.320   6.072   4.231 -0.1042 -0.5874  0.6522
 1313TIP3    H125430   6.399   6.082   4.177 -0.4528  0.5094  0.3278
 1313TIP3    H225431   6.307   5.977   4.236 -0.1580 -0.7372 -1.3294
 1314TIP3   OH225432   4.358   0.382  12.858  0.2804 -0.7436 -0.2796
 1314TIP3    H125433   4.433   0.379  12.797  0.9632 -1.0145  0.5513
 1314TIP3    H225434   4.328   0.291  12.862  0.2252 -0.7223 -0.2260
 1315TIP3   OH225435   2.328   6.343  14.752 -0.2736  0.0528  0.3603
 1315TIP3    H125436   2.390   6.271  14.756 -0.2499 -0.1127 -1.8076
 1315TIP3    H225437   2.294   6.351  14.841  3.4105  0.7107  1.9046
 1316TIP3   OH225438   3.030   5.207  13.739 -0.3074 -0.8291 -0.2508
 1316TIP3    H125439   3.033   5.220  13.644  1.7787 -0.2041 -0.1570
 1316TIP3    H225440   2.938   5.189  13.758 -0.7562 -1.0867 -2.3956
 1317TIP3   OH225441   3.044   0.599   0.499  0.0454  0.4190 -0.2249
 1317TIP3    H125442   3.009   0.574   0.584  1.3139  1.6659  0.7265
 1317TIP3    H225443   3.062   0.693   0.508 -0.2695  0.6772 -2.0479
 1318TIP3   OH225444   6.782   0.538   5.724 -0.1931 -0.0910 -0.4117
 1318TIP3    H125445   6.871   0.568   5.743 -0.3074 -0.4144  0.7322
 1318TIP3    H225446   6.727   0.615   5.739 -0.1301  0.0567 -0.9268
 1319TIP3   OH225447   4.942   1.708   0.866 -0.0137 -0.5831 -0.1565
 1319TIP3    H125448   4.977   1.631   0.910 -2.4039 -0.5621  2.0233
 1319TIP3    H225449   4.878   1.673   0.803  1.2172 -0.4706 -1.5104
 1320TIP3   OH225450   1.049   3.004   4.587  0.5102 -0.1012 -0.0073
 1320TIP3    H125451   1.102   3.021   4.508 -2.5860  1.5147 -1.9389
 1320TIP3    H225452   0.996   2.928   4.564 -0.5423  0.4802  0.4470
 1321TIP3   OH225453   2.247   5.327  15.505 -0.4537 -0.8570 -0.2176
 1321TIP3    H125454   2.218   5.298  15.592 -1.0984  0.9319  0.1964
 1321TIP3    H225455   2.167   5.346  15.458 -0.0895 -1.4520 -1.1007
 1322TIP3   OH225456   3.532   3.231  12.215 -0.0091 -0.0661 -0.7696
 1322TIP3    H125457   3.492   3.279  12.143 -0.5016 -0.6174 -0.8698
 1322TIP3    H225458   3.480   3.255  12.292  0.7442  0.8100 -0.5206
 1323TIP3   OH225459   1.047   0.282  12.506  0.4680 -0.2497  0.6141
 1323TIP3    H125460   1.055   0.346  12.436 -3.2027  0.5673  0.7180
 1323TIP3    H225461   1.130   0.288  12.554  1.4400  2.2156 -1.1717
 1324TIP3   OH225462   4.899   0.299  16.272 -0.0708  0.0485 -0.1641
 1324TIP3    H125463   4.963   0.298  16.200 -0.5554  1.2633 -0.6387
 1324TIP3    H225464   4.917   0.218  16.320  0.1132 -0.9379 -1.7824
 1325TIP3   OH225465   5.349   3.673  11.985  0.0017 -0.1623 -0.2760
 1325TIP3    H125466   5.423   3.623  12.021  0.2346  0.2231 -0.2226
 1325TIP3    H225467   5.299   3.608  11.935  0.8216 -0.2529 -1.0046
 1326TIP3   OH225468   1.010   1.447  12.603 -0.1386  0.6186 -0.4074
 1326TIP3    H125469   1.090   1.395  12.605 -0.4395  0.1103 -1.0476
 1326TIP3    H225470   0.943   1.388  12.638 -0.5762  0.3942 -1.5736
 1327TIP3   OH225471   6.073   2.619   5.307 -0.4655 -0.1155  0.0342
 1327TIP3    H125472   6.154   2.629   5.355  0.0275  0.0972 -0.8188
 1327TIP3    H225473   6.081   2.534   5.263 -1.1423 -0.5601  0.7375
 1328TIP3   OH225474   2.457   3.758  16.689 -0.2029  0.3414  0.0390
 1328TIP3    H125475   2.461   3.745  16.784 -0.2918  0.2318  0.0282
 1328TIP3    H225476   2.517   3.830  16.672 -0.3934  0.5428  0.2155
 1329TIP3   OH225477   0.390   1.131  12.258  0.1450  0.7813  0.2620
 1329TIP3    H125478   0.378   1.221  12.290 -0.4418  0.9038 -0.2699
 1329TIP3    H225479   0.483   1.126  12.235 -0.2471  1.9914 -1.8338
 1330TIP3   OH225480   5.076   3.053  16.185 -0.1765  0.7848  0.2670
 1330TIP3    H125481   5.071   3.029  16.092 -1.0774  1.8632  0.0214
 1330TIP3    H225482   5.165   3.088  16.195 -0.6692  2.4434 -0.6710
 1331TIP3   OH225483   2.813   3.863   5.100  0.0892 -0.3347  0.4771
 1331TIP3    H125484   2.831   3.859   5.006 -0.6340  0.1365  0.3015
 1331TIP3    H225485   2.839   3.778   5.134 -0.0142 -0.6552 -0.2273
 1332TIP3   OH225486   4.541   4.775   1.251 -0.3652 -0.0603 -0.1839
 1332TIP3    H125487   4.585   4.717   1.189 -0.6617  1.0625 -1.4645
 1332TIP3    H225488   4.464   4.808   1.204 -0.2584  1.3059  0.5456
 1333TIP3   OH225489   5.312   0.541  14.894  0.2400  0.1015 -0.2967
 1333TIP3    H125490   5.360   0.620  14.872 -1.2186  0.6954 -1.5121
 1333TIP3    H225491   5.357   0.471  14.847  1.2444  0.2600  0.4002
 1334TIP3   OH225492   2.056   3.021   0.313  0.3096 -0.6079  0.3368
 1334TIP3    H125493   1.992   2.950   0.321 -1.0649  0.4535 -0.8618
 1334TIP3    H225494   2.010   3.099   0.346  0.9700  0.1765 -0.5604
 1335TIP3   OH225495   1.814   2.771  12.770  0.7377 -0.6086  0.0668
 1335TIP3    H125496   1.818   2.853  12.720 -0.1767 -0.9357 -0.5618
 1335TIP3    H225497   1.733   2.778  12.821  1.5959 -0.3291  1.4537
 1336TIP3   OH225498   4.958   5.791   4.768  0.3361 -0.2937 -0.3528
 1336TIP3    H125499   4.866   5.776   4.792  0.4528 -1.6225 -0.6505
 1336TIP3    H225500   5.002   5.805   4.851 -0.0297 -0.2836 -0.1554
 1337TIP3   OH225501   4.585   4.557  14.578  0.1915  0.6739 -0.2241
 1337TIP3    H125502   4.644   4.597  14.641  0.0655 -0.7889  0.8946
 1337TIP3    H225503   4.498   4.567  14.617 -0.2935  2.4421 -1.6528
 1338TIP3   OH225504   3.163   5.829  16.752  0.2803 -0.3012 -0.3471
 1338TIP3    H125505   3.192   5.882  16.677  0.4354  1.5608  0.9580
 1338TIP3    H225506   3.229   5.759  16.759  1.3768  0.6546 -0.7613
 1339TIP3   OH225507   0.798   0.658  16.845  0.0879 -0.4527  0.3680
 1339TIP3    H125508   0.825   0.598  16.915 -0.8860  0.5469  1.6481
 1339TIP3    H225509   0.733   0.609  16.795 -0.5096 -0.5767  1.2437
 1340TIP3   OH225510   4.409   3.447  14.418 -0.0200 -0.6671 -0.0528
 1340TIP3    H125511   4.427   3.497  14.338  0.3221 -2.3305 -1.0814
 1340TIP3    H225512   4.399   3.513  14.486  1.2797  0.7644 -1.1591
 1341TIP3   OH225513   3.359   3.859  15.514 -0.1275 -0.3979 -0.1397
 1341TIP3    H125514   3.275   3.881  15.473 -0.0018 -0.3623 -0.3818
 1341TIP3    H225515   3.423   3.874  15.445  0.3417  1.8193  0.7186
 1342TIP3   OH225516   5.718   5.565   4.253  0.4814 -0.3213 -0.0656
 1342TIP3    H125517   5.681   5.553   4.165  0.0967  1.9323 -0.2894
 1342TIP3    H225518   5.706   5.481   4.296  0.8032 -1.5377 -2.2132
 1343TIP3   OH225519   3.640   3.716  12.669 -0.1475  0.3106  0.3474
 1343TIP3    H125520   3.661   3.767  12.590 -1.5602 -0.2049 -0.4058
 1343TIP3    H225521   3.575   3.770  12.715 -3.6242 -1.7304 -1.7302
 1344TIP3   OH225522   5.581   6.005   0.427  0.5798 -0.0473 -0.1101
 1344TIP3    H125523   5.545   6.084   0.386 -0.3622  1.2267  2.9227
 1344TIP3    H225524   5.552   5.934   0.370 -0.7118  1.5698 -1.6072
 1345TIP3   OH225525   5.487   3.353  11.246 -0.1426  0.1618  0.3787
 1345TIP3    H125526   5.393   3.365  11.261 -0.1647  0.4960  0.0089
 1345TIP3    H225527   5.492   3.318  11.157  0.1638  2.0530 -0.4163
 1346TIP3   OH225528   0.398   2.498  13.722  0.2455  0.3075 -0.0550
 1346TIP3    H125529   0.465   2.430  13.713  2.2604  2.2791 -0.8188
 1346TIP3    H225530   0.359   2.481  13.808  0.7366 -1.7254 -0.1792
 1347TIP3   OH225531   4.738   1.256  10.773 -0.3603  0.0073  0.3281
 1347TIP3    H125532   4.822   1.240  10.815 -0.7788  0.8304  1.5304
 1347TIP3    H225533   4.721   1.176  10.723  2.1176  0.6744 -1.7433
 1348TIP3   OH225534   4.912   0.770  15.581 -0.6726  0.0153 -0.0705
 1348TIP3    H125535   4.903   0.694  15.523 -1.2620  0.8550 -1.1061
 1348TIP3    H225536   4.943   0.733  15.663  0.7412 -1.1442 -1.0767
 1349TIP3   OH225537   5.352   4.282   6.377 -0.4767  0.6198 -0.0345
 1349TIP3    H125538   5.318   4.371   6.384 -2.5493 -0.0105 -1.2956
 1349TIP3    H225539   5.400   4.282   6.294  1.3540  1.0767  0.9771
 1350TIP3   OH225540   5.466   5.114   0.275 -0.4943  0.2224  0.2188
 1350TIP3    H125541   5.397   5.054   0.247 -0.5349 -0.4184  1.6038
 1350TIP3    H225542   5.547   5.072   0.249 -0.5172 -0.5115  1.2806
 1351TIP3   OH225543   2.454   6.719   4.369  0.2480  0.7590  0.0379
 1351TIP3    H125544   2.488   6.748   4.454 -1.9391  1.2291  0.8315
 1351TIP3    H225545   2.440   6.625   4.379  1.4340  0.5198 -0.3704
 1352TIP3   OH225546   4.942   6.686  14.363 -0.1220 -0.5224  0.1067
 1352TIP3    H125547   4.936   6.709  14.270  2.6902  0.3038  0.0283
 1352TIP3    H225548   5.036   6.681  14.380 -0.5531 -2.4723  2.5120
 1353TIP3   OH225549   0.227   4.428   0.361  0.0877 -0.4921  0.7329
 1353TIP3    H125550   0.238   4.496   0.295 -0.6071 -0.9845  0.1013
 1353TIP3    H225551   0.158   4.371   0.327 -0.0242 -0.9655  1.7065
 1354TIP3   OH225552   3.315   5.625  11.245  0.2042  0.1237  0.1009
 1354TIP3    H125553   3.333   5.579  11.326 -1.5319 -0.3368  0.2629
 1354TIP3    H225554   3.262   5.700  11.271 -3.2226 -1.7706 -0.8168
 1355TIP3   OH225555   0.160   3.725  12.335 -0.4951 -0.1138  0.6599
 1355TIP3    H125556   0.084   3.745  12.281  0.1290  1.2581  0.2134
 1355TIP3    H225557   0.227   3.695  12.273 -1.0334 -2.5919  1.1963
 1356TIP3   OH225558   6.293   3.287  11.847  0.1396  0.3092  0.4318
 1356TIP3    H125559   6.351   3.220  11.884  0.7940  0.6113 -0.0176
 1356TIP3    H225560   6.271   3.253  11.760 -0.4262  0.1603  0.6307
 1357TIP3   OH225561   4.821   3.712  14.682  0.2731  0.5924  0.0058
 1357TIP3    H125562   4.784   3.627  14.708  0.4915 -0.1102 -1.8711
 1357TIP3    H225563   4.750   3.756  14.636  0.9327  0.3022 -1.3418
 1358TIP3   OH225564   4.554   0.832   0.932  0.1170  0.0593 -0.1120
 1358TIP3    H125565   4.503   0.908   0.902  0.0330  0.0421 -0.0100
 1358TIP3    H225566   4.507   0.757   0.896  0.2523  0.0588 -0.2917
 1359TIP3   OH225567   0.142   1.775   5.108 -0.8285 -0.5392 -0.0606
 1359TIP3    H125568   0.112   1.787   5.198 -1.1881  0.9723 -0.3685
 1359TIP3    H225569   0.151   1.680   5.099  0.7300 -0.6695  2.0528
 1360TIP3   OH225570   6.345   4.445  12.465 -0.4227  0.1959 -0.1352
 1360TIP3    H125571   6.312   4.505  12.532  0.3745  1.3746 -0.7539
 1360TIP3    H225572   6.435   4.428  12.492 -0.1633  0.5137 -0.7834
 1361TIP3   OH225573   6.415   1.040  15.675 -0.7419 -0.0480  0.1111
 1361TIP3    H125574   6.392   1.102  15.607  0.5988  0.7159  0.3126
 1361TIP3    H225575   6.370   1.072  15.753 -1.9208 -0.6747 -0.2860
 1362TIP3   OH225576   3.071   6.222  16.876 -0.1563 -0.6476 -0.0711
 1362TIP3    H125577   3.062   6.127  16.880 -1.3191 -0.6623 -2.0069
 1362TIP3    H225578   2.989   6.255  16.912  0.1542 -0.3685  0.3899
 1363TIP3   OH225579   3.755   4.998   0.366 -0.7828  0.1156 -0.3486
 1363TIP3    H125580   3.755   5.028   0.457 -0.2986  2.1102 -0.9512
 1363TIP3    H225581   3.781   4.906   0.371 -2.8981 -0.4839  1.6801
 1364TIP3   OH225582   0.664   5.268   3.295 -0.0995 -0.9605  0.5670
 1364TIP3    H125583   0.730   5.308   3.238  1.3841 -1.0999  2.1245
 1364TIP3    H225584   0.697   5.179   3.310 -0.9651 -1.2332  0.8995
 1365TIP3   OH225585   3.568   1.604   1.940  0.1071 -0.1383 -0.0798
 1365TIP3    H125586   3.632   1.651   1.993  0.4749 -0.5963 -0.1160
 1365TIP3    H225587   3.574   1.645   1.854  1.6829 -1.3781 -0.6061
 1366TIP3   OH225588   2.893   4.605  11.658  0.2387  0.5195  0.2943
 1366TIP3    H125589   2.859   4.695  11.661  0.2235  0.4932  0.9821
 1366TIP3    H225590   2.870   4.568  11.743  0.5733 -0.0191  0.1508
 1367TIP3   OH225591   6.437   2.369   3.807  0.2186 -0.1522 -0.3894
 1367TIP3    H125592   6.401   2.451   3.774 -1.6892  0.2663  2.4396
 1367TIP3    H225593   6.528   2.391   3.830 -0.6129  1.6155  1.5159
 1368TIP3   OH225594   6.446   4.604   5.210  0.3051  0.2896  0.2737
 1368TIP3    H125595   6.490   4.651   5.281  1.1895  1.6427 -1.1155
 1368TIP3    H225596   6.517   4.571   5.155 -0.3745 -0.1962 -0.3322
 1369TIP3   OH225597   2.188   1.654   3.033 -0.1952  0.0746  0.2426
 1369TIP3    H125598   2.197   1.574   3.084  1.2863  0.0983  0.0490
 1369TIP3    H225599   2.112   1.698   3.072 -1.4240 -1.6725 -0.0330
 1370TIP3   OH225600   6.390   1.807   7.123 -0.0232 -0.1238 -0.3576
 1370TIP3    H125601   6.377   1.889   7.075 -0.8475  0.1507  0.3058
 1370TIP3    H225602   6.311   1.798   7.177  1.5905  0.4860  2.2853
 1371TIP3   OH225603   5.662   5.418   2.327 -0.5115  0.3318 -0.7431
 1371TIP3    H125604   5.647   5.512   2.342 -2.2215  0.1476 -1.1046
 1371TIP3    H225605   5.744   5.414   2.278  0.2856  1.5348  0.4150
 1372TIP3   OH225606   2.233   2.520   5.353 -0.0062  0.5798  0.2498
 1372TIP3    H125607   2.141   2.497   5.368  1.3406 -2.9950  6.0498
 1372TIP3    H225608   2.243   2.604   5.398 -0.2888  0.5105  0.4515
 1373TIP3   OH225609   0.292   1.040  11.297 -1.0154 -0.2300  0.6442
 1373TIP3    H125610   0.344   1.007  11.370 -0.6614 -0.9176  0.0912
 1373TIP3    H225611   0.307   0.977  11.227 -2.0184 -0.0337  0.2440
 1374TIP3   OH225612   2.526   2.738   2.073 -0.5107  0.3048  0.1700
 1374TIP3    H125613   2.463   2.686   2.123 -0.1404  1.8902  2.4345
 1374TIP3    H225614   2.606   2.735   2.124  1.0026 -0.7608 -2.1039
 1375TIP3   OH225615   3.930   5.982  15.242  0.2703 -0.1550 -0.1474
 1375TIP3    H125616   3.933   5.893  15.277  0.0753 -0.8918 -1.8920
 1375TIP3    H225617   3.921   5.970  15.147  4.6427  1.6726 -1.0063
 1376TIP3   OH225618   6.391   2.337   6.743 -0.1020 -0.0208  0.2528
 1376TIP3    H125619   6.350   2.259   6.706 -2.5043  1.1903  0.1685
 1376TIP3    H225620   6.475   2.306   6.777 -1.3776 -2.8448  1.1396
 1377TIP3   OH225621   1.717   1.574  10.954 -0.4359  0.5012 -0.0461
 1377TIP3    H125622   1.810   1.588  10.935 -0.5300  2.5371  0.7607
 1377TIP3    H225623   1.679   1.662  10.957 -2.2686 -0.2468  0.3243
 1378TIP3   OH225624   2.155   2.399  15.929  0.2168  0.2152  0.1734
 1378TIP3    H125625   2.113   2.476  15.891 -1.4781 -0.9574 -0.4888
 1378TIP3    H225626   2.240   2.394  15.885  0.6312  2.0328  0.7049
 1379TIP3   OH225627   5.513   3.477  12.066  0.0087 -0.3186  0.3165
 1379TIP3    H125628   5.445   3.428  12.113  1.0727 -0.0461  2.2596
 1379TIP3    H225629   5.591   3.422  12.074  0.3517  0.0144 -0.6714
 1380TIP3   OH225630   0.446   4.741   5.306  0.3274 -0.3403  0.5418
 1380TIP3    H125631   0.519   4.714   5.249  1.0209 -1.2360  1.8135
 1380TIP3    H225632   0.443   4.674   5.374 -1.2731  0.0579  0.8848
 1381TIP3   OH225633   2.880   5.278  16.003 -0.6876  0.2214  0.2756
 1381TIP3    H125634   2.966   5.252  15.971 -1.1512  0.4563 -1.2925
 1381TIP3    H225635   2.837   5.195  16.025 -0.3778  0.0373  0.1919
 1382TIP3   OH225636   4.273   4.148   4.694  0.3161 -0.4442  0.1141
 1382TIP3    H125637   4.291   4.186   4.608  0.9045  0.5447  0.6520
 1382TIP3    H225638   4.189   4.103   4.684 -0.5515  1.2409 -0.4974
 1383TIP3   OH225639   6.554   3.263  12.435 -0.0768 -0.3811 -0.5465
 1383TIP3    H125640   6.597   3.178  12.431  1.3209  0.2764 -0.1081
 1383TIP3    H225641   6.599   3.310  12.505 -1.9907  0.1155  0.4204
 1384TIP3   OH225642   1.950   6.789   2.008  0.2256  0.1264  0.8383
 1384TIP3    H125643   1.897   6.754   2.079 -1.8493  0.8015 -0.2836
 1384TIP3    H225644   1.963   6.715   1.949 -1.6553  0.4841 -0.0915
 1385TIP3   OH225645   1.997   2.133  13.805 -0.3854  0.0381  0.1936
 1385TIP3    H125646   1.946   2.104  13.730  0.4245  0.0154 -0.3576
 1385TIP3    H225647   1.965   2.222  13.823  0.2044  0.4910 -0.9116
 1386TIP3   OH225648   4.022   4.872   5.321  0.3989  0.4093  0.0451
 1386TIP3    H125649   4.013   4.779   5.344  1.2483  0.5652  1.1137
 1386TIP3    H225650   3.932   4.902   5.309  0.0175 -0.2159  1.1387
 1387TIP3   OH225651   2.123   1.174  13.151  0.2974  0.2042  0.1098
 1387TIP3    H125652   2.179   1.223  13.091 -0.8340  0.8220 -0.4773
 1387TIP3    H225653   2.117   1.087  13.113 -0.4242  0.5944 -0.7190
 1388TIP3   OH225654   2.991   1.032  17.119 -0.1418 -0.0941 -0.4810
 1388TIP3    H125655   2.944   0.969  17.063 -0.6401 -0.0032 -0.1732
 1388TIP3    H225656   2.996   1.112  17.067 -1.1042  0.1665 -0.1889
 1389TIP3   OH225657   4.227   6.442  11.238  0.0621 -0.1430 -0.1236
 1389TIP3    H125658   4.207   6.467  11.148  0.0194 -0.1978 -0.1300
 1389TIP3    H225659   4.267   6.519  11.277 -0.1795 -0.0236 -0.1076
 1390TIP3   OH225660   6.611   3.946   4.113  0.2238  0.3764  0.2146
 1390TIP3    H125661   6.517   3.933   4.123  0.1747  0.7839  0.3096
 1390TIP3    H225662   6.650   3.897   4.186  0.1592 -0.7034 -0.4510
 1391TIP3   OH225663   5.941   3.654   0.457  0.0289 -0.7237  0.9134
 1391TIP3    H125664   5.918   3.568   0.421  0.1175 -0.5410  0.4117
 1391TIP3    H225665   5.916   3.716   0.388  1.5441 -0.4801  0.5482
 1392TIP3   OH225666   5.405   6.804   1.849  0.1669  0.5096 -0.6948
 1392TIP3    H125667   5.395   6.894   1.877  2.2266  0.5095  0.1659
 1392TIP3    H225668   5.320   6.763   1.867 -0.6911  2.1706 -0.8380
 1393TIP3   OH225669   3.104   1.635  11.322 -0.2746  0.1407  0.3239
 1393TIP3    H125670   3.033   1.682  11.366  0.0388  1.2698 -0.3393
 1393TIP3    H225671   3.070   1.546  11.311 -0.2204 -0.3334  3.1694
 1394TIP3   OH225672   5.452   1.152   3.878 -0.0227  0.0603  0.4301
 1394TIP3    H125673   5.434   1.209   3.953  0.9310 -1.0183  1.5305
 1394TIP3    H225674   5.374   1.096   3.871 -0.3093  0.4709  0.3240
 1395TIP3   OH225675   6.834   4.178   5.168  0.0052  0.1064 -0.2734
 1395TIP3    H125676   6.842   4.233   5.090 -1.9692  0.8751  0.0093
 1395TIP3    H225677   6.863   4.091   5.139  0.0413  0.5583 -1.6610
 1396TIP3   OH225678   6.208   1.664  14.948  0.1272  0.0299  0.3084
 1396TIP3    H125679   6.230   1.667  14.855  0.0565 -0.4999  0.2732
 1396TIP3    H225680   6.226   1.574  14.974  0.5352  0.2768  0.9065
 1397TIP3   OH225681   4.463   2.551  12.868 -0.1911  0.2551 -0.2158
 1397TIP3    H125682   4.545   2.513  12.899  0.5879  0.1633 -2.1909
 1397TIP3    H225683   4.418   2.478  12.826 -0.3656  0.7252 -0.8582
 1398TIP3   OH225684   5.614   4.297  12.841  0.3662 -0.1036 -0.2751
 1398TIP3    H125685   5.678   4.239  12.882  0.8195  0.1479 -0.6095
 1398TIP3    H225686   5.570   4.340  12.913  0.7639 -0.0822 -0.0414
 1399TIP3   OH225687   5.616   3.583   0.587  0.1908 -0.2062 -0.1203
 1399TIP3    H125688   5.673   3.576   0.509 -0.4308  0.0059 -0.6012
 1399TIP3    H225689   5.528   3.567   0.553 -0.1865  0.7191  0.3953
 1400TIP3   OH225690   5.305   3.712   3.943 -0.4056 -0.2637 -0.1751
 1400TIP3    H125691   5.264   3.649   3.884  1.7461 -1.6244 -0.3356
 1400TIP3    H225692   5.315   3.792   3.891 -1.0831 -0.5393 -0.7301
 1401TIP3   OH225693   5.178   1.567  16.947 -0.3040  0.1320  0.1360
 1401TIP3    H125694   5.162   1.498  16.882  1.0721 -1.3273  1.2779
 1401TIP3    H225695   5.090   1.599  16.970 -0.8644  1.6305 -3.2732
 1402TIP3   OH225696   5.788   1.650   5.795 -0.4764 -0.7304  0.2111
 1402TIP3    H125697   5.741   1.591   5.854 -0.4047 -0.5267  0.4758
 1402TIP3    H225698   5.866   1.676   5.844  0.5848 -2.0670 -0.7199
 1403TIP3   OH225699   4.904   2.199  11.980  0.3534  0.1866 -0.1885
 1403TIP3    H125700   4.888   2.277  11.927 -1.8871 -0.1674 -0.1043
 1403TIP3    H225701   4.965   2.147  11.928  0.0807  0.9457 -1.2981
 1404TIP3   OH225702   6.521   6.382  13.184  0.3894 -0.0282 -0.1845
 1404TIP3    H125703   6.436   6.424  13.168  1.2236  1.2093 -1.6382
 1404TIP3    H225704   6.536   6.393  13.278 -1.6879 -1.5753  0.3941
 1405TIP3   OH225705   4.063   4.347   4.807  0.9832  0.6569  0.0169
 1405TIP3    H125706   4.079   4.437   4.836  1.3505  0.1881  1.3441
 1405TIP3    H225707   4.128   4.331   4.739  1.9367  0.9164  0.8361
 1406TIP3   OH225708   0.905   4.680  16.792  0.4379  0.4807 -0.1450
 1406TIP3    H125709   0.973   4.613  16.794 -1.0142 -1.2193 -2.3874
 1406TIP3    H225710   0.899   4.705  16.700 -2.7797 -0.4052 -0.2909
 1407TIP3   OH225711   1.883   4.368  16.437  0.0124 -0.4125 -0.0505
 1407TIP3    H125712   1.919   4.295  16.487  0.5608  1.0827  1.8339
 1407TIP3    H225713   1.790   4.348  16.431 -0.3927  0.0912  3.0222
 1408TIP3   OH225714   1.734   3.429  10.725 -0.6090  0.5152 -0.2466
 1408TIP3    H125715   1.805   3.451  10.785 -0.4658  2.1829 -0.9618
 1408TIP3    H225716   1.668   3.496  10.741 -0.2414  1.4670 -2.4482
 1409TIP3   OH225717   0.935   6.838  12.602 -0.4006  0.1469 -0.7921
 1409TIP3    H125718   0.951   6.928  12.575 -2.9918  0.9864  0.1418
 1409TIP3    H225719   0.891   6.798  12.527 -3.5883  1.1832  0.3449
 1410TIP3   OH225720   0.283   1.795  17.026 -0.2823 -0.3095  0.0990
 1410TIP3    H125721   0.359   1.848  17.005 -0.3844 -0.1414  0.1473
 1410TIP3    H225722   0.208   1.853  17.010 -0.3382  0.1316  1.7186
 1411TIP3   OH225723   3.887   4.094  11.022 -0.4065  0.0984 -0.1259
 1411TIP3    H125724   3.897   4.156  10.950 -1.7515  1.1692  0.5533
 1411TIP3    H225725   3.830   4.140  11.084 -0.4164 -1.3507  0.9657
 1412TIP3   OH225726   3.331   4.116  16.465 -0.2902 -0.3891 -0.0591
 1412TIP3    H125727   3.250   4.142  16.508 -0.3760 -3.1262  1.6614
 1412TIP3    H225728   3.303   4.061  16.392  0.0034  0.6718 -1.0063
 1413TIP3   OH225729   3.312   5.536   3.030  0.2204  0.0110 -0.1718
 1413TIP3    H125730   3.240   5.561   3.088 -0.6957 -0.1734 -1.1906
 1413TIP3    H225731   3.343   5.619   2.993 -1.2284 -0.0834 -1.7186
 1414TIP3   OH225732   0.128   0.973   5.338 -0.5673 -0.8674  0.3920
 1414TIP3    H125733   0.105   1.042   5.401  0.5077  0.4037 -0.5508
 1414TIP3    H225734   0.073   0.899   5.363 -1.1549  0.0459  1.9697
 1415TIP3   OH225735   6.467   4.092  14.076 -0.2164  0.0623  0.4503
 1415TIP3    H125736   6.482   4.166  14.135 -0.8952  0.6011 -0.0350
 1415TIP3    H225737   6.555   4.063  14.052  0.0630  0.3523  1.0819
 1416TIP3   OH225738   3.923   5.636   4.799  0.2913 -0.5489  0.2439
 1416TIP3    H125739   3.932   5.541   4.793  0.9583 -0.6000  1.5872
 1416TIP3    H225740   3.843   5.649   4.852  0.9311 -0.4149  1.2102
 1417TIP3   OH225741   1.364   5.134  14.728 -0.1723  0.5592  0.6618
 1417TIP3    H125742   1.285   5.158  14.681  0.7681  0.5764 -0.9663
 1417TIP3    H225743   1.425   5.105  14.661  2.7185  4.4286  1.2490
 1418TIP3   OH225744   2.358   5.188   0.222  0.2549  0.3597 -0.3923
 1418TIP3    H125745   2.333   5.191   0.314  1.4485  0.9649 -0.0637
 1418TIP3    H225746   2.375   5.096   0.204 -1.6281 -0.0013 -0.4955
 1419TIP3   OH225747   1.792   1.279   0.869 -0.5278  0.0421  0.1024
 1419TIP3    H125748   1.709   1.271   0.822 -0.1464  2.0355 -1.0100
 1419TIP3    H225749   1.768   1.317   0.953 -0.8369 -0.1909  0.1224
 1420TIP3   OH225750   2.998   3.949  17.097  0.0655 -0.2820  0.1611
 1420TIP3    H125751   3.050   3.886  17.147 -0.6846 -1.4949 -0.5394
 1420TIP3    H225752   3.052   3.969  17.021  0.3447 -0.0051  0.4300
 1421TIP3   OH225753   4.481   5.876   3.369 -0.1284  0.0236  0.0153
 1421TIP3    H125754   4.559   5.848   3.322  0.4315 -0.8706  1.4132
 1421TIP3    H225755   4.429   5.796   3.379 -0.5629  0.3370  0.2961
 1422TIP3   OH225756   5.234   3.293  12.572  0.8693 -0.3380  0.0289
 1422TIP3    H125757   5.279   3.217  12.609  1.2268 -0.1123  0.0650
 1422TIP3    H225758   5.161   3.308  12.632  1.1901 -0.2448  0.4059
 1423TIP3   OH225759   1.241   4.462   1.824  0.7904 -0.0098 -0.2285
 1423TIP3    H125760   1.186   4.536   1.800  1.0287  0.3059  0.1926
 1423TIP3    H225761   1.181   4.403   1.870  0.8663  0.4740  0.5031
 1424TIP3   OH225762   0.696   6.560   0.616 -0.3270  0.0621  1.1520
 1424TIP3    H125763   0.633   6.630   0.596  0.8452  0.5539 -1.1696
 1424TIP3    H225764   0.779   6.592   0.582  0.4550 -2.0373  0.9451
 1425TIP3   OH225765   6.295   1.546  14.715 -0.2584  0.3498 -0.5275
 1425TIP3    H125766   6.274   1.558  14.623 -0.8607  1.6927 -0.2462
 1425TIP3    H225767   6.385   1.514  14.716 -0.9698 -1.9185 -1.6442
 1426TIP3   OH225768   4.485   2.368  14.631  0.3173 -0.4168 -0.3279
 1426TIP3    H125769   4.413   2.400  14.686  0.2780 -1.0572  0.0009
 1426TIP3    H225770   4.558   2.355  14.692  1.1313  1.4450 -0.8553
 1427TIP3   OH225771   5.860   2.023  11.481  0.3206  0.4163  0.1388
 1427TIP3    H125772   5.834   2.020  11.573  0.6759 -0.6702  0.2243
 1427TIP3    H225773   5.804   1.958  11.438  1.0950 -0.0873 -0.1414
 1428TIP3   OH225774   5.497   4.259   4.359  0.3383 -0.3829 -0.0817
 1428TIP3    H125775   5.507   4.305   4.276 -0.5715 -1.4568 -0.8151
 1428TIP3    H225776   5.571   4.289   4.412 -0.3921  2.1492 -0.3748
 1429TIP3   OH225777   4.393   4.073   5.521  0.1315  0.3612 -0.0963
 1429TIP3    H125778   4.375   4.159   5.481  0.2942  0.8499  0.8645
 1429TIP3    H225779   4.354   4.078   5.608  1.8079  0.1809  0.7135
 1430TIP3   OH225780   4.868   0.229  16.684  0.5830  0.1790  0.3993
 1430TIP3    H125781   4.792   0.249  16.631 -1.8044 -4.8975  1.2641
 1430TIP3    H225782   4.932   0.192  16.623  2.1545  3.5058 -0.1668
 1431TIP3   OH225783   1.270   0.684   5.792 -0.2051  0.0502  0.7283
 1431TIP3    H125784   1.204   0.649   5.851  0.1189 -2.5877 -0.3777
 1431TIP3    H225785   1.349   0.635   5.812  0.8585  1.5499  0.4355
 1432TIP3   OH225786   5.208   4.245  12.955  0.0277 -0.1471 -0.3117
 1432TIP3    H125787   5.183   4.170  12.901 -1.2562 -0.0364  0.0912
 1432TIP3    H225788   5.282   4.215  13.006  0.1373 -0.8202 -0.8557
 1433TIP3   OH225789   0.592   0.277  16.099 -0.0619 -0.4497  0.2134
 1433TIP3    H125790   0.603   0.332  16.177  0.2700 -0.5989  0.2710
 1433TIP3    H225791   0.635   0.326  16.029 -0.3686 -0.3110  0.1201
 1434TIP3   OH225792   4.933   1.160  15.438  0.0519  0.5800 -0.0910
 1434TIP3    H125793   5.014   1.193  15.479 -0.1122  0.4663  0.3345
 1434TIP3    H225794   4.934   1.196  15.350  0.4922  0.7090 -0.0345
 1435TIP3   OH225795   3.478   2.251  11.364 -0.2832  0.4017  0.0025
 1435TIP3    H125796   3.470   2.162  11.399 -2.0097 -0.3489 -2.0446
 1435TIP3    H225797   3.570   2.258  11.337 -0.2107 -0.9278 -0.1817
 1436TIP3   OH225798   5.289   0.028  14.585  0.1569 -0.0859 -0.4141
 1436TIP3    H125799   5.234   0.096  14.547  0.0761  0.2858  0.3439
 1436TIP3    H225800   5.276  -0.048  14.529  0.6294  0.6576 -1.5661
 1437TIP3   OH225801   6.193   4.576   5.141 -0.1683 -0.0540  0.6835
 1437TIP3    H125802   6.282   4.566   5.175 -0.1390 -1.9709  0.1635
 1437TIP3    H225803   6.148   4.495   5.166 -1.0489 -0.1671 -1.1022
 1438TIP3   OH225804   1.790   5.239  12.488  0.3044  0.2880  0.3899
 1438TIP3    H125805   1.777   5.146  12.470  0.4073  0.3022  0.2429
 1438TIP3    H225806   1.748   5.253  12.573  1.1892 -0.1193  0.9135
 1439TIP3   OH225807   3.689   2.240   0.431 -0.3455 -0.9382  0.4384
 1439TIP3    H125808   3.637   2.162   0.408 -1.2304 -0.6862  1.4857
 1439TIP3    H225809   3.626   2.299   0.473  0.5886 -0.1872  0.8176
 1440TIP3   OH225810   2.192   2.272   1.871 -0.1949  0.4041 -0.3450
 1440TIP3    H125811   2.231   2.242   1.789 -0.4323  0.5858 -0.5270
 1440TIP3    H225812   2.238   2.353   1.892 -2.1700  2.0707 -1.9316
 1441TIP3   OH225813   6.496   5.477   1.946 -0.7855  0.5392 -0.6112
 1441TIP3    H125814   6.498   5.400   1.890 -0.7008  2.9012 -4.2307
 1441TIP3    H225815   6.409   5.475   1.987 -0.9583 -1.1786 -0.9825
 1442TIP3   OH225816   2.430   5.177   5.513 -0.0493  0.9744  0.4830
 1442TIP3    H125817   2.341   5.153   5.538  0.6513  0.1294  2.4205
 1442TIP3    H225818   2.455   5.113   5.446  0.6357 -1.9360  3.2454
 1443TIP3   OH225819   5.509   0.407   3.014 -0.4722  0.3228  0.1681
 1443TIP3    H125820   5.465   0.407   3.099  1.0810 -1.2843  1.0326
 1443TIP3    H225821   5.594   0.448   3.030 -1.3088  2.9038 -1.3618
 1444TIP3   OH225822   0.775   0.356   3.721  0.1503 -0.0257  0.2182
 1444TIP3    H125823   0.813   0.287   3.667  0.0098 -0.5251  0.7534
 1444TIP3    H225824   0.767   0.431   3.661  0.3989 -0.4331 -0.3376
 1445TIP3   OH225825   3.192   3.220  14.063  0.4240 -0.4627  0.2757
 1445TIP3    H125826   3.178   3.309  14.097  0.5676 -0.5379  0.5351
 1445TIP3    H225827   3.156   3.163  14.131 -0.4578 -0.5826 -0.2791
 1446TIP3   OH225828   6.256   4.826  17.176 -0.2849  0.3349 -0.6834
 1446TIP3    H125829   6.213   4.823  17.090 -0.5772  0.5303 -0.5460
 1446TIP3    H225830   6.346   4.800  17.158 -0.4055  0.1285 -1.0102
 1447TIP3   OH225831   0.682   5.694  11.855  0.0078  0.5039 -0.5083
 1447TIP3    H125832   0.734   5.670  11.779  0.6315 -1.8254  0.5538
 1447TIP3    H225833   0.734   5.760  11.900  0.1263  1.1288 -1.5287
 1448TIP3   OH225834   6.370   5.392  16.571 -0.6945 -0.0321  0.0376
 1448TIP3    H125835   6.345   5.309  16.531  0.2804 -0.0907 -0.4819
 1448TIP3    H225836   6.462   5.404  16.547 -0.3647  0.4390  1.4096
 1449TIP3   OH225837   3.475   1.257  16.258 -0.0248  0.7329  0.2738
 1449TIP3    H125838   3.539   1.315  16.216 -0.9365  0.4390 -1.6265
 1449TIP3    H225839   3.392   1.277  16.215 -0.9066 -0.0238  1.5656
 1450TIP3   OH225840   0.531   4.002  16.880 -0.2402  0.0318  0.9345
 1450TIP3    H125841   0.557   3.916  16.913 -0.7290 -0.3929  0.2432
 1450TIP3    H225842   0.576   4.010  16.795  0.9143  1.0612  1.6170
 1451TIP3   OH225843   1.021   2.987  14.710 -0.3505  0.2369 -0.1370
 1451TIP3    H125844   0.956   2.934  14.757  0.2688 -0.8025 -0.4287
 1451TIP3    H225845   0.970   3.037  14.647 -1.0654  0.7766  0.8359
 1452TIP3   OH225846   3.349   5.331  16.551  0.0014 -0.3510  0.0009
 1452TIP3    H125847   3.278   5.290  16.602 -0.7569  1.4546  0.4685
 1452TIP3    H225848   3.402   5.377  16.616  1.3332 -1.2427 -0.4128
 1453TIP3   OH225849   4.404   6.643   0.425 -0.4389 -0.2529  0.2256
 1453TIP3    H125850   4.344   6.718   0.420 -0.7746 -0.5499 -0.2457
 1453TIP3    H225851   4.392   6.609   0.514 -0.9698 -0.3129  0.1314
 1454TIP3   OH225852   2.354   4.777  13.410  0.0417  0.0347 -0.0506
 1454TIP3    H125853   2.299   4.708  13.373  0.1485 -0.6831  1.1065
 1454TIP3    H225854   2.442   4.740  13.411 -0.3276 -1.0629  3.3815
 1455TIP3   OH225855   3.932   2.965   3.466  0.0338 -0.0742  0.1472
 1455TIP3    H125856   3.945   3.037   3.527 -0.3714 -0.0456  0.1995
 1455TIP3    H225857   3.838   2.964   3.449  0.0940 -0.3199 -0.1844
 1456TIP3   OH225858   2.418   4.006  11.451  1.2629  0.3367 -0.6121
 1456TIP3    H125859   2.401   4.093  11.485  1.4517  0.2707 -0.3449
 1456TIP3    H225860   2.335   3.959  11.463  1.6959 -0.0944  1.0222
 1457TIP3   OH225861   2.639   6.392   3.714 -0.6094 -0.2476  0.2816
 1457TIP3    H125862   2.571   6.339   3.673 -0.4609 -0.6708  0.5651
 1457TIP3    H225863   2.601   6.420   3.797 -1.5806  2.1083 -0.8788
 1458TIP3   OH225864   4.746   2.854   4.500 -0.2682  0.0197  0.2538
 1458TIP3    H125865   4.708   2.919   4.559  0.1571 -0.7122  1.3816
 1458TIP3    H225866   4.736   2.891   4.413 -1.1992  1.0018  0.7583
 1459TIP3   OH225867   6.301   0.322  15.715  0.1455 -0.3466  0.1614
 1459TIP3    H125868   6.387   0.301  15.679  1.2824  1.3231  1.7335
 1459TIP3    H225869   6.305   0.294  15.806 -0.1961  1.6571  0.8335
 1460TIP3   OH225870   5.074   4.868  12.842  0.0316 -0.0733  0.8879
 1460TIP3    H125871   5.025   4.881  12.761 -0.3682 -0.8341  1.0031
 1460TIP3    H225872   5.040   4.787  12.878  0.7590 -0.1487  1.4256
 1461TIP3   OH225873   5.835   6.335  17.217 -0.0746  0.0030  0.1698
 1461TIP3    H125874   5.844   6.401  17.286  0.5288 -1.1506  1.2235
 1461TIP3    H225875   5.825   6.386  17.137  0.3907  1.3759  0.9530
 1462TIP3   OH225876   2.713   6.371  15.948 -0.1203  0.1022 -0.4476
 1462TIP3    H125877   2.622   6.361  15.921 -0.0293  0.5256 -0.9234
 1462TIP3    H225878   2.734   6.288  15.992 -0.9372  0.2721  0.2878
 1463TIP3   OH225879   1.941   5.336  14.835  1.3126  0.1231 -0.1839
 1463TIP3    H125880   1.882   5.394  14.883  0.4031 -2.0977  1.5717
 1463TIP3    H225881   1.981   5.392  14.768 -2.6002  1.8391 -1.3597
 1464TIP3   OH225882   1.029   3.652   6.529 -0.7546 -0.6902 -0.2172
 1464TIP3    H125883   1.042   3.602   6.449  1.0826  0.4080 -0.6716
 1464TIP3    H225884   0.950   3.704   6.513  0.4810  0.7588 -2.0505
 1465TIP3   OH225885   6.161   0.175   0.768  0.8481  0.3568 -0.4411
 1465TIP3    H125886   6.142   0.092   0.812  0.6277  1.6541  2.1015
 1465TIP3    H225887   6.084   0.192   0.713  0.2270 -0.3901  0.1813
 1466TIP3   OH225888   0.479   4.903   5.049 -0.1144 -0.0994 -0.3968
 1466TIP3    H125889   0.449   4.913   5.140  0.0132 -0.9458 -0.2522
 1466TIP3    H225890   0.551   4.840   5.055  0.7359  0.8066 -0.9324
 1467TIP3   OH225891   2.817   5.202   1.066  0.0633 -0.4464  0.1337
 1467TIP3    H125892   2.749   5.180   1.130  0.5033  1.5425  1.3731
 1467TIP3    H225893   2.799   5.294   1.044  1.5116 -0.3120 -0.5874
 1468TIP3   OH225894   0.857   2.505  13.543  0.0514  0.0416  0.0059
 1468TIP3    H125895   0.838   2.560  13.619 -2.1784  0.5824 -0.8621
 1468TIP3    H225896   0.915   2.437  13.577 -0.9474  0.2049  2.2130
 1469TIP3   OH225897   0.203   4.353   4.245 -0.2970  0.3631 -0.0527
 1469TIP3    H125898   0.173   4.399   4.323 -1.8108 -1.3469  0.4162
 1469TIP3    H225899   0.243   4.422   4.191  3.3030  1.2382  3.2971
 1470TIP3   OH225900   4.966   5.103  13.864  0.7126 -0.0548 -0.3799
 1470TIP3    H125901   4.963   5.011  13.892  0.5512 -0.3014 -1.1942
 1470TIP3    H225902   5.009   5.101  13.779 -0.6062  0.4512 -1.0827
 1471TIP3   OH225903   2.580   4.757  14.364 -0.0373  0.2467  0.1304
 1471TIP3    H125904   2.490   4.730  14.347 -0.5734  2.0427 -0.1018
 1471TIP3    H225905   2.632   4.677  14.353 -1.5208 -0.6795 -0.3882
 1472TIP3   OH225906   1.056   5.033   1.111 -0.1807  0.5614  0.1702
 1472TIP3    H125907   1.086   5.004   1.198 -0.4034  0.8740  0.3520
 1472TIP3    H225908   1.062   5.129   1.115 -0.0812  0.5700 -0.2020
 1473TIP3   OH225909   5.001   0.873   3.615 -0.1458  0.0083  0.4580
 1473TIP3    H125910   4.988   0.954   3.664 -0.3300  0.0714  0.3036
 1473TIP3    H225911   5.023   0.808   3.683 -0.7387  0.0195  0.6639
 1474TIP3   OH225912   5.399   6.260  14.458 -0.8294 -0.4877  0.4794
 1474TIP3    H125913   5.350   6.330  14.414 -2.0826 -0.7263  1.4227
 1474TIP3    H225914   5.332   6.213  14.509 -0.1448 -2.6769 -0.4952
 1475TIP3   OH225915   2.388   3.994  13.145 -0.4930  0.1280 -0.6825
 1475TIP3    H125916   2.316   3.971  13.086 -0.8492 -0.7230  0.0570
 1475TIP3    H225917   2.389   3.924  13.210  0.9336  0.1768 -0.6036
 1476TIP3   OH225918   6.732   1.705   4.968  0.0865  0.0812  0.3505
 1476TIP3    H125919   6.789   1.641   4.924  1.3254  0.4246  1.3894
 1476TIP3    H225920   6.791   1.777   4.989 -0.3799 -0.1939  2.8014
 1477TIP3   OH225921   2.440   6.449   4.332  0.1758 -0.5209 -0.1073
 1477TIP3    H125922   2.454   6.378   4.395  0.5650 -1.2885 -1.0291
 1477TIP3    H225923   2.518   6.447   4.277 -0.1721  0.1106 -0.6323
 1478TIP3   OH225924   0.087   3.794   3.366 -0.0920 -0.1504 -0.5582
 1478TIP3    H125925   0.082   3.838   3.281 -0.5319 -0.4184 -0.6737
 1478TIP3    H225926   0.173   3.752   3.366 -0.4034 -0.8156 -1.2061
 1479TIP3   OH225927   1.693   3.930   4.178 -0.4547  0.5353  0.4991
 1479TIP3    H125928   1.647   3.876   4.242  1.1817 -1.0019  0.4789
 1479TIP3    H225929   1.781   3.891   4.174  0.3033  2.2757 -0.6922
 1480TIP3   OH225930   5.360   1.971  13.506 -0.0636  0.0840  0.1849
 1480TIP3    H125931   5.327   1.893  13.549  0.3247 -0.1714  0.0280
 1480TIP3    H225932   5.447   1.946  13.474 -0.6181  0.0275 -1.3694
 1481TIP3   OH225933   6.062   4.121  15.246  0.5263  0.4017  0.1642
 1481TIP3    H125934   6.069   4.190  15.312  1.9398 -0.4669  0.9886
 1481TIP3    H225935   6.017   4.162  15.173  0.1706  1.8119  1.1310
 1482TIP3   OH225936   0.546   1.435  12.312 -0.1940 -0.2319  0.3966
 1482TIP3    H125937   0.638   1.437  12.337 -0.1556  0.2131  0.2270
 1482TIP3    H225938   0.537   1.505  12.247 -0.5087 -0.7071 -0.0842
 1483TIP3   OH225939   0.053   0.964   1.409  0.6963 -0.8005 -0.4823
 1483TIP3    H125940   0.066   0.880   1.452 -1.3569 -2.5888 -3.0458
 1483TIP3    H225941  -0.015   0.948   1.343 -0.9142  3.2094 -0.1486
 1484TIP3   OH225942   6.688   0.242   2.207 -0.4509  0.1798  0.0967
 1484TIP3    H125943   6.657   0.331   2.191 -0.3619  0.3892  1.0426
 1484TIP3    H225944   6.627   0.206   2.271  1.4772  0.7998  2.4669
 1485TIP3   OH225945   6.834   5.525   5.952 -0.0043  0.0655 -0.1000
 1485TIP3    H125946   6.809   5.616   5.939  0.1584  0.0772 -0.3222
 1485TIP3    H225947   6.919   5.516   5.908  1.5591  0.6238  2.5308
 1486TIP3   OH225948   5.713   0.636   0.617  0.6230 -0.1721 -0.6083
 1486TIP3    H125949   5.672   0.633   0.530  1.1652  0.1423 -0.8775
 1486TIP3    H225950   5.705   0.727   0.644  1.1248 -0.1170 -0.6503
 1487TIP3   OH225951   6.212   1.209   3.197 -0.1248 -0.3463  0.3766
 1487TIP3    H125952   6.186   1.289   3.153 -0.4804 -0.0272  1.1532
 1487TIP3    H225953   6.136   1.150   3.186 -1.4326  0.7142  2.9677
 1488TIP3   OH225954   6.697   5.180   2.365  0.2388 -0.9024 -0.4521
 1488TIP3    H125955   6.607   5.191   2.396  0.1162 -0.1841 -1.0336
 1488TIP3    H225956   6.749   5.172   2.445  0.1569  2.6954  0.1233
 1489TIP3   OH225957   1.826   1.940  13.512 -0.6540 -0.2988 -0.3184
 1489TIP3    H125958   1.747   1.986  13.544  1.0813  2.1472  0.7854
 1489TIP3    H225959   1.823   1.951  13.417 -2.3183 -1.4961 -0.4485
 1490TIP3   OH225960   0.192   0.516  15.702  0.2604  0.6447  0.0600
 1490TIP3    H125961   0.252   0.473  15.763  2.0044  2.1092 -0.5117
 1490TIP3    H225962   0.124   0.554  15.758 -0.3639 -1.3102  0.6987
 1491TIP3   OH225963   0.790   2.290   2.973  0.5377 -0.0498  0.0721
 1491TIP3    H125964   0.768   2.319   3.061  1.1548  1.3312 -0.1872
 1491TIP3    H225965   0.724   2.224   2.951  0.2248 -0.2142  1.4533
 1492TIP3   OH225966   5.120   6.840   0.601 -0.4176  0.2732  0.5549
 1492TIP3    H125967   5.120   6.867   0.693 -1.0471  1.2456  0.2791
 1492TIP3    H225968   5.140   6.919   0.552  0.6846 -0.3980 -0.1231
 1493TIP3   OH225969   1.561   3.886  14.199  0.2346  0.4306 -0.6740
 1493TIP3    H125970   1.620   3.904  14.273  1.0920 -1.6731 -0.7604
 1493TIP3    H225971   1.608   3.821  14.147 -1.7377 -0.5686 -1.3136
 1494TIP3   OH225972   4.545   2.112   0.346 -0.2597  0.2995  0.4862
 1494TIP3    H125973   4.493   2.187   0.319 -0.6691 -0.2683 -0.3285
 1494TIP3    H225974   4.514   2.091   0.434 -1.4372 -0.0407  0.0049
 1495TIP3   OH225975   4.203   3.045   0.201 -0.5261 -0.4990  0.0926
 1495TIP3    H125976   4.154   3.056   0.282 -1.7528 -0.0335 -0.6676
 1495TIP3    H225977   4.266   2.976   0.219 -1.1514 -0.7798  1.2717
 1496TIP3   OH225978   6.095   1.802   0.303 -0.1364 -0.4063 -0.1627
 1496TIP3    H125979   6.100   1.833   0.212  0.0467  1.1399  0.3382
 1496TIP3    H225980   6.163   1.735   0.309 -1.1299 -1.6082 -1.5310
 1497TIP3   OH225981   6.359   1.682   1.197  0.3711  0.0147  0.5541
 1497TIP3    H125982   6.350   1.587   1.187 -0.0291 -0.2111  2.5198
 1497TIP3    H225983   6.449   1.700   1.170  0.1633 -0.7585 -0.7517
 1498TIP3   OH225984   2.770   2.176   2.228 -0.4414 -0.4224  0.6777
 1498TIP3    H125985   2.724   2.152   2.147 -0.3163 -0.4116  0.6037
 1498TIP3    H225986   2.716   2.139   2.298 -0.2629 -0.8983  0.5675
 1499TIP3   OH225987   3.912   0.146   3.925 -0.3013  0.2192  0.2349
 1499TIP3    H125988   3.988   0.129   3.981 -1.4637 -0.7350  1.6112
 1499TIP3    H225989   3.908   0.241   3.919 -0.1934  0.3638  1.9148
 1500TIP3   OH225990   6.347   5.235  11.481 -0.5972  0.4494 -0.0952
 1500TIP3    H125991   6.251   5.231  11.472 -0.7754  1.7223  0.9447
 1500TIP3    H225992   6.377   5.151  11.447 -1.8941  0.8892 -2.6361
 1501TIP3   OH225993   0.074   3.035  11.351  0.0715 -0.1281 -0.7825
 1501TIP3    H125994   0.004   3.078  11.401  1.5128  0.5549  0.7766
 1501TIP3    H225995   0.030   2.965  11.303 -1.5095 -0.6062  1.2038
 1502TIP3   OH225996   2.930   0.837  16.929  0.1699 -0.1641  0.3842
 1502TIP3    H125997   2.998   0.820  16.865 -1.4400 -0.2065 -1.3934
 1502TIP3    H225998   2.918   0.754  16.975  0.2170 -0.6183 -0.4097
 1503TIP3   OH225999   0.614   2.314  13.628 -0.1190 -0.3595 -0.4088
 1503TIP3    H126000   0.672   2.239  13.616 -2.1063 -1.8132 -1.5373
 1503TIP3    H226001   0.608   2.353  13.541 -0.8414 -0.2500 -0.3131
 1504TIP3   OH226002   6.533   3.106   2.534 -0.0562  0.2363 -0.0996
 1504TIP3    H126003   6.472   3.041   2.500 -1.1126  1.5877 -0.8631
 1504TIP3    H226004   6.515   3.108   2.628 -1.5915  0.9838 -0.3796
 1505TIP3   OH226005   2.629   2.469   1.330 -0.2012  0.2767  0.5518
 1505TIP3    H126006   2.600   2.551   1.370  0.4110  0.0482  1.4941
 1505TIP3    H226007   2.607   2.478   1.238 -1.1843  1.0316  0.8444
 1506TIP3   OH226008   1.980   6.201   1.762 -0.3195 -0.4172 -0.3533
 1506TIP3    H126009   2.037   6.261   1.809 -1.5977 -0.4570  1.3861
 1506TIP3    H226010   2.024   6.116   1.768  0.0093 -0.2282 -0.0502
 1507TIP3   OH226011   4.042   6.208   6.299  0.2629  0.7646 -0.5975
 1507TIP3    H126012   4.028   6.163   6.382  2.8759 -1.7060 -1.3578
 1507TIP3    H226013   3.956   6.208   6.257 -0.7881  0.7541  1.4308
 1508TIP3   OH226014   6.531   5.523  11.404  0.2648  0.2508 -0.0986
 1508TIP3    H126015   6.540   5.616  11.423  0.6642  0.3019 -0.5373
 1508TIP3    H226016   6.619   5.495  11.378 -0.0135 -0.0857 -0.6818
 1509TIP3   OH226017   2.118   3.354  13.978  0.0664  0.0792  0.2747
 1509TIP3    H126018   2.136   3.344  14.072  1.3376 -0.7439 -0.0338
 1509TIP3    H226019   2.193   3.314  13.935 -1.0432 -0.5872 -1.1166
 1510TIP3   OH226020   1.887   1.720  13.649 -0.3042 -0.7396 -0.4296
 1510TIP3    H126021   1.869   1.813  13.632 -0.1029 -0.7914 -0.9351
 1510TIP3    H226022   1.849   1.704  13.735  0.0945 -0.0642 -0.1260
 1511TIP3   OH226023   0.510   6.598   4.884 -0.0844 -0.2939  0.1938
 1511TIP3    H126024   0.529   6.687   4.913 -2.1569 -0.0012  0.7782
 1511TIP3    H226025   0.497   6.606   4.790  1.9739 -0.4219 -0.1494
 1512TIP3   OH226026   6.205   2.705   2.443 -0.5929  0.0525  0.0662
 1512TIP3    H126027   6.147   2.710   2.367 -1.6891  0.3441  0.9048
 1512TIP3    H226028   6.172   2.631   2.494  1.6595 -1.7736 -0.9241
 1513TIP3   OH226029   5.738   2.681  16.703  0.1008 -0.0914 -0.2028
 1513TIP3    H126030   5.688   2.707  16.626  0.2118  0.2904 -0.1489
 1513TIP3    H226031   5.828   2.674  16.672  0.0778 -0.3789 -0.2072
 1514TIP3   OH226032   0.364   5.026   3.577  0.2519  0.0323 -0.2674
 1514TIP3    H126033   0.441   5.057   3.627  1.2662  1.5949 -2.6314
 1514TIP3    H226034   0.301   5.098   3.583 -0.4185 -0.5831  0.3211
 1515TIP3   OH226035   5.565   1.487  14.131 -0.3121 -0.1891 -0.1244
 1515TIP3    H126036   5.617   1.536  14.195  0.3275  1.7049 -1.9806
 1515TIP3    H226037   5.629   1.433  14.084 -0.6382 -0.8313  0.1521
 1516TIP3   OH226038   5.004   4.298  15.885  0.0619 -0.0705  0.3541
 1516TIP3    H126039   5.003   4.234  15.956 -0.1672 -2.0386 -1.3439
 1516TIP3    H226040   4.916   4.296  15.848  1.0448 -1.7702 -2.1952
 1517TIP3   OH226041   4.493   1.671   1.197  0.3384  0.2073 -0.1704
 1517TIP3    H126042   4.491   1.575   1.187  0.9296 -0.0579  1.7692
 1517TIP3    H226043   4.569   1.688   1.252 -0.1840  1.7348  0.1293
 1518TIP3   OH226044   0.643   6.664   4.579  0.2860 -0.1817 -0.1573
 1518TIP3    H126045   0.664   6.718   4.654 -1.7488 -0.9386  1.0568
 1518TIP3    H226046   0.644   6.574   4.613  0.4644 -0.6419 -1.3262
 1519TIP3   OH226047   2.628   4.732  16.273  0.1123 -0.4406 -0.0241
 1519TIP3    H126048   2.662   4.788  16.343 -0.8544  0.1261  0.0185
 1519TIP3    H226049   2.545   4.773  16.248  0.0500 -1.0914 -0.9481
 1520TIP3   OH226050   1.107   1.164  16.008 -0.2071  0.1792 -0.1609
 1520TIP3    H126051   1.082   1.256  15.998  1.9479  0.9917  1.1362
 1520TIP3    H226052   1.039   1.126  16.063  0.6966  2.0045  2.3771
 1521TIP3   OH226053   4.310   2.860   3.334  0.0018 -0.3504  0.1540
 1521TIP3    H126054   4.218   2.864   3.361 -0.5721 -2.1626 -1.3081
 1521TIP3    H226055   4.356   2.824   3.410 -0.6049 -0.1122  0.6419
 1522TIP3   OH226056   3.889   0.589  16.283  0.0207  0.0118 -0.5441
 1522TIP3    H126057   3.973   0.571  16.325  0.5404 -2.5462 -2.4514
 1522TIP3    H226058   3.888   0.684  16.270  1.5480  0.3747  1.5731
 1523TIP3   OH226059   4.806   5.753  12.702 -0.8077  0.5170 -0.1437
 1523TIP3    H126060   4.712   5.743  12.715 -0.9203  1.4094 -0.1869
 1523TIP3    H226061   4.845   5.678  12.747 -1.6589 -1.4389 -2.4674
 1524TIP3   OH226062   0.131   0.323  12.714 -0.0939  0.1203 -0.0282
 1524TIP3    H126063   0.046   0.292  12.683 -1.4722  1.6643  1.9383
 1524TIP3    H226064   0.117   0.415  12.736  1.1518 -0.3323  3.3033
 1525TIP3   OH226065   0.390   5.109   0.986 -0.0445 -0.1435  0.2195
 1525TIP3    H126066   0.425   5.027   0.951  0.2785  0.4145 -0.8250
 1525TIP3    H226067   0.451   5.176   0.954 -1.5357  0.7552 -0.8870
 1526TIP3   OH226068   4.442   6.518   5.698 -0.0729  0.6256 -0.1610
 1526TIP3    H126069   4.522   6.492   5.654  0.2912  1.8540 -0.2791
 1526TIP3    H226070   4.450   6.485   5.787 -0.1348 -0.5753 -0.5940
 1527TIP3   OH226071   5.570   6.426  14.188 -0.2222 -0.2534 -0.3492
 1527TIP3    H126072   5.590   6.447  14.279 -1.8222  1.0358 -0.2537
 1527TIP3    H226073   5.516   6.347  14.193  2.8170 -2.5287 -0.4929
 1528TIP3   OH226074   0.539   0.464   1.870  0.1061  0.3808 -0.4202
 1528TIP3    H126075   0.596   0.388   1.874  0.4892  0.6955  0.4313
 1528TIP3    H226076   0.594   0.534   1.835  0.5693  0.9396  1.3350
 1529TIP3   OH226077   2.234   3.951  12.925  0.4311 -0.4036 -0.0707
 1529TIP3    H126078   2.143   3.979  12.927  0.6024  0.1778  2.7870
 1529TIP3    H226079   2.281   4.025  12.887 -0.1619 -0.3387 -0.6894
 1530TIP3   OH226080   2.280   0.495   1.088  0.0118 -0.5303  0.0586
 1530TIP3    H126081   2.274   0.577   1.138 -0.1228 -1.4505  1.6240
 1530TIP3    H226082   2.316   0.521   1.003  0.1292  1.1235  0.5820
 1531TIP3   OH226083   2.230   5.813   0.654 -0.4094  0.0059  0.1944
 1531TIP3    H126084   2.161   5.748   0.665 -0.4182 -0.1219 -0.5381
 1531TIP3    H226085   2.186   5.889   0.616 -0.0186 -0.3706 -1.0508
 1532TIP3   OH226086   6.542   5.570  11.785  0.2065 -0.6191 -0.6653
 1532TIP3    H126087   6.493   5.556  11.866  0.5620  1.3955 -0.0476
 1532TIP3    H226088   6.634   5.569  11.812  0.2960  2.1856 -0.5686
 1533TIP3   OH226089   3.503   6.678  14.148  0.2084  0.3438 -0.8890
 1533TIP3    H126090   3.510   6.708  14.057  1.3544  0.7054 -0.6925
 1533TIP3    H226091   3.497   6.759  14.199 -1.6094  0.1412 -0.6931
 1534TIP3   OH226092   3.638   3.866  14.881  0.0509 -0.5727 -0.1770
 1534TIP3    H126093   3.715   3.907  14.841 -1.0733  2.4680  0.4622
 1534TIP3    H226094   3.571   3.869  14.813 -0.4449  0.0068  0.3201
 1535TIP3   OH226095   4.301   4.788   0.040 -0.2134  0.0990 -0.5925
 1535TIP3    H126096   4.375   4.778   0.100 -0.9215  1.9765  0.6816
 1535TIP3    H226097   4.342   4.796  -0.046  0.8121 -2.9399 -0.5233
 1536TIP3   OH226098   3.442   2.618   4.693 -0.2947 -0.4435 -0.6207
 1536TIP3    H126099   3.510   2.675   4.729 -1.0110  1.7514 -2.4673
 1536TIP3    H226100   3.486   2.572   4.621 -0.3612 -0.1052 -0.8862
 1537TIP3   OH226101   2.351   6.423   4.706 -0.3595  0.0039  0.3758
 1537TIP3    H126102   2.364   6.505   4.753  0.7130 -0.6278  1.2603
 1537TIP3    H226103   2.362   6.355   4.774  1.1269 -0.9370 -0.7512
 1538TIP3   OH226104   5.262   3.319   1.012 -0.4071  0.0458 -0.0363
 1538TIP3    H126105   5.258   3.304   1.106 -0.4523 -0.9675 -0.1909
 1538TIP3    H226106   5.186   3.376   0.994 -0.1430  0.6100  0.5883
 1539TIP3   OH226107   5.924   1.639   0.982 -0.0800 -0.0207 -0.5115
 1539TIP3    H126108   5.941   1.576   1.052 -1.9182  0.7886  0.7590
 1539TIP3    H226109   5.994   1.624   0.919  0.6338 -2.0100  0.6421
 1540TIP3   OH226110   6.358   5.073   0.059  0.3771 -0.1834  0.2699
 1540TIP3    H126111   6.332   4.982   0.042  1.9040 -0.7352  0.7569
 1540TIP3    H226112   6.335   5.120  -0.021 -1.9851 -0.6239  0.6184
 1541TIP3   OH226113   3.247   4.910  11.322  0.0429 -0.7754 -0.3867
 1541TIP3    H126114   3.327   4.957  11.347  0.6228 -0.0458 -3.3126
 1541TIP3    H226115   3.266   4.819  11.345  1.5332 -0.5498 -0.5896
 1542TIP3   OH226116   3.585   3.962   1.220 -0.1542 -0.4238  0.1738
 1542TIP3    H126117   3.548   4.014   1.292  0.5063 -0.3319  0.4558
 1542TIP3    H226118   3.532   3.882   1.219 -1.0755  0.1645 -0.1559
 1543TIP3   OH226119   1.893   3.122  16.411 -0.0237 -0.2772  0.1386
 1543TIP3    H126120   1.952   3.193  16.387  0.4672 -0.5093  0.6321
 1543TIP3    H226121   1.823   3.124  16.345 -0.6440  1.4053  0.8045
 1544TIP3   OH226122   1.622   3.486   2.631  0.1511  0.1959 -0.0734
 1544TIP3    H126123   1.559   3.416   2.613  0.4830 -0.4766  1.2929
 1544TIP3    H226124   1.600   3.516   2.719  1.8037 -0.1302  0.4800
 1545TIP3   OH226125   4.239   4.469  14.534 -0.7960  0.4916 -0.0268
 1545TIP3    H126126   4.318   4.417  14.546 -0.9819  0.1640 -0.2139
 1545TIP3    H226127   4.174   4.426  14.590 -0.1610  2.3089  2.2701
 1546TIP3   OH226128   2.204   4.155  16.105 -0.2810  0.4141 -0.3503
 1546TIP3    H126129   2.116   4.155  16.142 -0.3682  0.8403 -0.5442
 1546TIP3    H226130   2.239   4.068  16.124  0.4914  1.2497  2.7029
 1547TIP3   OH226131   5.158   6.727   3.030  0.1000  0.2326 -0.7341
 1547TIP3    H126132   5.211   6.654   3.063 -0.0746  0.5048  0.1677
 1547TIP3    H226133   5.146   6.784   3.106  0.8080  1.5517 -1.5846
 1548TIP3   OH226134   6.079   1.063   6.620 -0.1464 -0.5924 -0.5409
 1548TIP3    H126135   6.112   1.054   6.709 -3.3916 -2.6154  0.6590
 1548TIP3    H226136   6.150   1.033   6.564  1.3794 -0.9306  1.4971
 1549TIP3   OH226137   4.683   0.578   3.995 -0.0590  0.0263  0.8554
 1549TIP3    H126138   4.778   0.578   3.990 -0.0810 -1.9809 -1.6033
 1549TIP3    H226139   4.658   0.486   3.989 -2.1920  0.5737  0.3955
 1550TIP3   OH226140   2.581   6.781  16.126  0.3794  0.1344  0.0294
 1550TIP3    H126141   2.628   6.863  16.144 -1.1609  0.5100  2.8815
 1550TIP3    H226142   2.650   6.716  16.117  1.5657  1.3834 -0.3009
 1551TIP3   OH226143   0.726   0.982   0.604 -0.2258  0.2661 -0.0834
 1551TIP3    H126144   0.726   0.914   0.671  1.2020 -0.0855 -0.4060
 1551TIP3    H226145   0.637   0.980   0.568 -0.3305 -1.1758  0.1794
 1552TIP3   OH226146   6.084   2.765   1.159 -0.1178 -0.6029  0.0907
 1552TIP3    H126147   6.016   2.832   1.162  0.0353 -0.4412 -0.0050
 1552TIP3    H226148   6.109   2.752   1.251  0.9551  0.6120 -0.0022
 1553TIP3   OH226149   2.275   0.361  13.105 -0.2873  0.1685  0.2272
 1553TIP3    H126150   2.300   0.447  13.070 -0.4533 -0.4192 -1.4315
 1553TIP3    H226151   2.341   0.341  13.171 -0.0455  1.4089  0.3841
 1554TIP3   OH226152   1.614   0.859  13.273  0.3263  0.5286 -0.0721
 1554TIP3    H126153   1.538   0.827  13.226  0.0882  0.1042  0.5962
 1554TIP3    H226154   1.610   0.955  13.262  0.3750  0.4363 -1.0400
 1555TIP3   OH226155   4.940   4.523  16.974  0.0140 -0.0340 -0.2506
 1555TIP3    H126156   5.033   4.541  16.988 -0.1654  0.5566  0.2247
 1555TIP3    H226157   4.936   4.429  16.962  0.2594 -0.6672  3.4594
 1556TIP3   OH226158   2.129   2.479   0.139  0.2498 -0.0165  0.7136
 1556TIP3    H126159   2.201   2.418   0.155 -0.5205 -1.9781 -2.4461
 1556TIP3    H226160   2.170   2.565   0.138  1.8700 -0.6839  2.4705
 1557TIP3   OH226161   1.542   5.044   6.015 -0.4864 -0.3350  0.1593
 1557TIP3    H126162   1.531   4.973   6.079  0.4343 -0.5285  0.1171
 1557TIP3    H226163   1.572   5.118   6.067 -2.4968  0.3803  0.3750
 1558TIP3   OH226164   5.994   4.767  15.420  0.0661  0.4464 -0.8997
 1558TIP3    H126165   5.997   4.837  15.355  0.5210 -1.1997 -2.7414
 1558TIP3    H226166   5.903   4.738  15.419 -0.1775  1.1081  0.0369
 1559TIP3   OH226167   2.826   1.946   5.715  0.6209  0.3843  0.0087
 1559TIP3    H126168   2.797   1.987   5.796 -0.2649 -0.0556 -0.0713
 1559TIP3    H226169   2.832   2.018   5.652  0.2754  0.5707  0.1864
 1560TIP3   OH226170   6.287   5.425  15.936  0.5051  0.8734  0.4331
 1560TIP3    H126171   6.364   5.450  15.987  1.4654 -1.1588  0.0843
 1560TIP3    H226172   6.321   5.402  15.850 -0.4728 -0.0640  0.2691
 1561TIP3   OH226173   2.264   2.593  15.268  0.3689  0.1727  0.6467
 1561TIP3    H126174   2.263   2.599  15.364 -0.9109 -1.6309  0.8008
 1561TIP3    H226175   2.269   2.499  15.250  1.0882  0.5025 -1.0852
 1562TIP3   OH226176   3.408   3.433   1.939 -0.0463 -0.4273 -0.2317
 1562TIP3    H126177   3.315   3.410   1.928  0.1057 -0.9598 -0.4316
 1562TIP3    H226178   3.407   3.511   1.994 -0.4931 -2.2475  2.5245
 1563TIP3   OH226179   0.048   4.824  14.478 -0.1200  0.0590 -0.1457
 1563TIP3    H126180  -0.031   4.801  14.431  0.4810 -1.1248 -0.6135
 1563TIP3    H226181   0.062   4.752  14.540  0.6148  0.2102 -0.1178
 1564TIP3   OH226182   6.224   0.806  12.776  0.0352  0.1944  0.0099
 1564TIP3    H126183   6.302   0.757  12.748  0.9377 -0.1805  2.8308
 1564TIP3    H226184   6.237   0.894  12.741  1.2123 -0.1316 -0.4438
 1565TIP3   OH226185   0.383   2.545   6.413 -0.4991  0.2711 -0.5358
 1565TIP3    H126186   0.443   2.537   6.487 -1.9985 -0.4017  0.6632
 1565TIP3    H226187   0.439   2.568   6.339  1.4221 -1.6816  0.2128
 1566TIP3   OH226188   5.782   1.311   3.964 -0.1063  0.4371  0.3303
 1566TIP3    H126189   5.840   1.376   3.924 -0.2475  1.0569  1.1131
 1566TIP3    H226190   5.841   1.240   3.991  0.0668  0.2967 -0.3820
 1567TIP3   OH226191   2.072   5.261  13.118  0.0497  0.2513 -0.6151
 1567TIP3    H126192   2.038   5.184  13.072 -0.5409 -0.2120  0.5449
 1567TIP3    H226193   2.138   5.297  13.059 -0.5252 -0.4400 -1.7107
 1568TIP3   OH226194   0.204   1.765   1.754 -0.0916 -0.3802 -0.3221
 1568TIP3    H126195   0.142   1.731   1.689  0.3976  1.5922 -1.9321
 1568TIP3    H226196   0.269   1.696   1.764 -2.2326 -2.3524  1.1260
 1569TIP3   OH226197   3.927   0.086  16.854 -0.8788  0.6665  0.4641
 1569TIP3    H126198   3.990   0.016  16.875 -0.3321  0.9784 -0.0884
 1569TIP3    H226199   3.895   0.116  16.939 -0.7175  0.0991  0.7268
 1570TIP3   OH226200   0.349   6.300  15.530  0.2165 -0.2905 -0.1553
 1570TIP3    H126201   0.316   6.226  15.479 -0.7384 -0.6302  0.9258
 1570TIP3    H226202   0.408   6.345  15.470 -0.0720 -1.2694 -1.2156
 1571TIP3   OH226203   4.956   4.907   1.015 -0.3883 -0.4257  0.1616
 1571TIP3    H126204   4.901   4.985   1.018  0.1945  0.0038 -0.2413
 1571TIP3    H226205   5.008   4.911   1.095  0.2029  0.0202 -0.2370
 1572TIP3   OH226206   6.709   0.978  13.422 -0.3385 -0.3310  0.8916
 1572TIP3    H126207   6.695   0.885  13.442 -1.3851 -0.2911  0.3991
 1572TIP3    H226208   6.669   0.990  13.336  1.3436  0.1987  0.1618
 1573TIP3   OH226209   6.048   5.715  11.564 -0.4517 -0.3046  0.4751
 1573TIP3    H126210   6.006   5.646  11.512  0.2795 -0.2338 -0.2317
 1573TIP3    H226211   6.019   5.797  11.523 -0.3627 -0.2291  0.5626
 1574TIP3   OH226212   5.246   1.889  16.254  0.3379 -0.3118  0.1076
 1574TIP3    H126213   5.232   1.955  16.322  2.3304 -0.0437  0.3325
 1574TIP3    H226214   5.286   1.815  16.300 -1.0247 -1.3477 -0.3090
 1575TIP3   OH226215   3.583   1.734  11.753  0.4862 -1.4804  0.4181
 1575TIP3    H126216   3.618   1.811  11.797 -0.7559 -1.4217  1.3581
 1575TIP3    H226217   3.652   1.668  11.762  1.5320 -0.5302 -0.3350
 1576TIP3   OH226218   0.967   3.854   4.069  0.1037 -0.8260  0.3273
 1576TIP3    H126219   0.931   3.885   3.986 -0.3031 -1.6213  0.1953
 1576TIP3    H226220   0.892   3.813   4.113  0.6254 -1.5979  0.4984
 1577TIP3   OH226221   6.124   6.771   3.449 -0.2324 -0.2540 -0.0447
 1577TIP3    H126222   6.220   6.775   3.442 -0.1436 -0.6446  0.7620
 1577TIP3    H226223   6.100   6.851   3.496 -0.3740  0.1706 -0.8282
 1578TIP3   OH226224   4.161   4.691  15.931  0.3751 -0.1412  0.2706
 1578TIP3    H126225   4.181   4.598  15.922 -0.4588 -0.2651 -0.4244
 1578TIP3    H226226   4.081   4.704  15.880 -0.3963  0.6559  1.6185
 1579TIP3   OH226227   4.154   0.624  14.146 -0.0813 -0.0849  0.0157
 1579TIP3    H126228   4.151   0.717  14.126  0.3003 -0.0956 -0.1104
 1579TIP3    H226229   4.243   0.610  14.180  0.0039 -0.4773 -0.3616
 1580TIP3   OH226230   4.878   4.833   0.617  0.5064  0.5196 -0.1175
 1580TIP3    H126231   4.951   4.894   0.606  1.3165 -0.0216  1.7803
 1580TIP3    H226232   4.808   4.886   0.655  0.8535  0.5061  0.5610
 1581TIP3   OH226233   5.978   2.520  13.202  0.0440  0.1636  0.1956
 1581TIP3    H126234   5.931   2.599  13.230  0.7844  0.7330 -0.1240
 1581TIP3    H226235   6.053   2.554  13.153 -0.3450 -0.7665 -1.0838
 1582TIP3   OH226236   2.123   4.551   5.487  0.6014 -0.5628 -0.5615
 1582TIP3    H126237   2.154   4.551   5.397 -1.1059 -1.8994 -1.2121
 1582TIP3    H226238   2.052   4.615   5.487  1.8087  0.8316  0.3446
 1583TIP3   OH226239   1.985   4.644  12.136 -0.1404 -0.0287 -0.3151
 1583TIP3    H126240   1.933   4.600  12.069 -0.2464  0.8630 -0.8333
 1583TIP3    H226241   1.946   4.732  12.143 -0.0466 -0.0595  0.8140
 1584TIP3   OH226242   0.841   0.079  16.391  0.0910 -0.1661 -0.4521
 1584TIP3    H126243   0.800   0.042  16.470 -0.0768 -0.8182 -0.8332
 1584TIP3    H226244   0.910   0.136  16.425  1.3963 -2.0207  0.1755
 1585TIP3   OH226245   2.836   2.823  16.842 -0.0255 -0.2045  0.6395
 1585TIP3    H126246   2.819   2.780  16.759  0.5365 -0.8276  0.8436
 1585TIP3    H226247   2.774   2.897  16.844  1.0845  0.8331 -1.0736
 1586TIP3   OH226248   3.765   6.280  15.451  0.4087  0.0664 -0.3001
 1586TIP3    H126249   3.670   6.266  15.448  0.6334 -2.2836  0.8341
 1586TIP3    H226250   3.785   6.286  15.545  1.2269  2.2670 -0.5661
 1587TIP3   OH226251   6.167   5.783  12.946 -0.2131 -0.4465 -0.3703
 1587TIP3    H126252   6.165   5.842  12.871 -2.1653 -1.6317 -1.3319
 1587TIP3    H226253   6.158   5.695  12.908 -2.1989 -1.0295  1.2235
 1588TIP3   OH226254   4.237   4.846   6.384  0.9133 -0.1007  0.3551
 1588TIP3    H126255   4.222   4.933   6.347  1.2210 -0.8285 -1.5911
 1588TIP3    H226256   4.289   4.862   6.463 -0.7023  1.6025  1.1686
 1589TIP3   OH226257   1.980   3.988   2.429 -0.1701 -0.1658 -0.5523
 1589TIP3    H126258   1.970   4.071   2.383 -2.0914  0.4859  0.9112
 1589TIP3    H226259   2.058   4.000   2.483  1.7267 -0.7111 -2.9957
 1590TIP3   OH226260   0.762   5.511  14.824 -0.4157 -0.0962  0.2875
 1590TIP3    H126261   0.703   5.442  14.794  1.9976 -1.4670 -1.6984
 1590TIP3    H226262   0.804   5.475  14.902 -0.5943 -0.0330  0.4140
 1591TIP3   OH226263   6.797   3.380  14.676 -0.1441 -0.5511  0.5552
 1591TIP3    H126264   6.772   3.467  14.706 -1.3471 -0.4240 -0.6964
 1591TIP3    H226265   6.730   3.322  14.712  0.4248 -0.9246  1.0451
 1592TIP3   OH226266   1.885   0.028  13.086 -0.6974  0.5690 -0.4593
 1592TIP3    H126267   1.846  -0.031  13.151 -0.4028  1.0589  0.1693
 1592TIP3    H226268   1.825   0.103  13.083  0.6463  1.7910  1.2445
 1593TIP3   OH226269   3.580   6.438   4.982  0.0482 -1.1594  0.3346
 1593TIP3    H126270   3.653   6.414   5.039 -0.5097 -0.5520  1.3501
 1593TIP3    H226271   3.504   6.441   5.041 -0.7640 -1.6145 -0.6667
 1594TIP3   OH226272   0.154   3.045   5.569  0.5841 -0.2172  0.2551
 1594TIP3    H126273   0.161   3.114   5.636 -2.5961 -1.1273  1.6910
 1594TIP3    H226274   0.201   2.970   5.607  0.5061 -0.1156  0.5557
 1595TIP3   OH226275   3.038   4.987  10.571  0.0148  0.1051  0.0556
 1595TIP3    H126276   3.045   4.908  10.518  0.7889 -0.0860  0.4385
 1595TIP3    H226277   3.013   5.056  10.509 -0.7952 -0.4523 -0.2556
 1596TIP3   OH226278   5.364   0.923   0.720 -0.2697  0.0976  0.0624
 1596TIP3    H126279   5.453   0.927   0.687 -0.3012 -0.2118 -0.0673
 1596TIP3    H226280   5.348   1.009   0.759  0.4989 -0.2251  1.1535
 1597TIP3   OH226281   5.361   0.384  16.291 -0.8069 -0.0356  0.2453
 1597TIP3    H126282   5.412   0.379  16.371  2.4995  3.2994 -1.3358
 1597TIP3    H226283   5.285   0.438  16.315  0.0101  0.7199  1.2063
 1598TIP3   OH226284   3.987   0.471  13.043 -0.4332  0.6662 -0.4493
 1598TIP3    H126285   4.014   0.465  12.951 -0.2647 -0.1370 -0.3582
 1598TIP3    H226286   4.053   0.420  13.090 -0.8755  0.5381  0.0407
 1599TIP3   OH226287   4.002   2.284  15.785 -0.1628  0.2634  0.2473
 1599TIP3    H126288   3.981   2.320  15.871 -0.2987  0.7485  0.0134
 1599TIP3    H226289   4.095   2.264  15.789 -0.2974 -0.2868  0.7131
 1600TIP3   OH226290   3.887   3.759  11.012 -0.0161  0.1846 -0.0576
 1600TIP3    H126291   3.899   3.731  10.921  1.3511  0.9831 -0.1492
 1600TIP3    H226292   3.870   3.853  11.006 -1.3339 -0.0044  0.4422
 1601TIP3   OH226293   1.266   1.523   5.902  0.1614  0.3121  0.0732
 1601TIP3    H126294   1.323   1.521   5.825 -0.6112  1.6133 -0.5750
 1601TIP3    H226295   1.324   1.506   5.976  1.2290  0.6925 -0.6543
 1602TIP3   OH226296   5.719   2.412   1.732  0.2904 -0.1024  0.1736
 1602TIP3    H126297   5.625   2.418   1.749  0.2097  0.6788 -0.4816
 1602TIP3    H226298   5.759   2.468   1.798  0.3455 -0.8603  0.7946
 1603TIP3   OH226299   2.230   3.640   1.009  0.3138 -0.2627  0.3257
 1603TIP3    H126300   2.174   3.648   0.933  1.0654  0.0651 -0.2058
 1603TIP3    H226301   2.225   3.547   1.033  1.3840 -0.7309 -1.1586
 1604TIP3   OH226302   3.940   0.977   3.092  0.3942  0.4652 -0.7025
 1604TIP3    H126303   3.956   0.910   3.159  2.3344  1.9160  0.3732
 1604TIP3    H226304   3.962   0.933   3.010 -2.4094 -1.4730 -0.5809
 1605TIP3   OH226305   3.864   1.864  13.584  0.4240 -0.0166  0.6438
 1605TIP3    H126306   3.951   1.903  13.577  0.7738 -0.9723 -0.5326
 1605TIP3    H226307   3.872   1.800  13.654  0.7856 -0.4083  0.2429
 1606TIP3   OH226308   2.391   3.256   6.225  0.2246  0.3171  0.1738
 1606TIP3    H126309   2.441   3.179   6.254  0.2497 -1.0959 -3.1986
 1606TIP3    H226310   2.303   3.223   6.212  0.3793  0.6123 -1.9557
 1607TIP3   OH226311   4.373   4.749  14.162 -0.5086  0.3086 -0.2912
 1607TIP3    H126312   4.292   4.775  14.208 -0.0009 -0.1391  0.9057
 1607TIP3    H226313   4.419   4.695  14.226  0.7520  0.5725 -0.9629
 1608TIP3   OH226314   5.003   0.319  11.351  0.2347 -0.4594  0.1235
 1608TIP3    H126315   4.925   0.333  11.405  0.0146 -0.6331 -0.1472
 1608TIP3    H226316   5.011   0.400  11.300 -1.0222 -1.2541 -1.4212
 1609TIP3   OH226317   4.339   4.040   0.128 -0.0671 -0.3869 -0.2451
 1609TIP3    H126318   4.293   4.094   0.063 -2.0196  0.9118  2.0533
 1609TIP3    H226319   4.299   3.954   0.121  0.1577 -0.4257 -1.1346
 1610TIP3   OH226320   0.485   0.087   4.027  0.3187  0.0164 -0.5244
 1610TIP3    H126321   0.566   0.038   4.011  0.6932  0.6634 -0.6511
 1610TIP3    H226322   0.500   0.171   3.985 -0.9870 -0.3633 -1.8339
 1611TIP3   OH226323   5.070   6.192  16.469  0.0984 -0.2112 -0.5241
 1611TIP3    H126324   5.030   6.119  16.423 -0.4640 -0.8835  0.9948
 1611TIP3    H226325   4.999   6.232  16.518  0.5124  1.0452 -0.8954
 1612TIP3   OH226326   0.655   3.766   2.647 -0.6513 -0.0618  0.0483
 1612TIP3    H126327   0.707   3.766   2.726 -1.0933  1.1420  0.3595
 1612TIP3    H226328   0.616   3.679   2.643 -1.1013  0.0566  1.4875
 1613TIP3   OH226329   4.630   6.604   2.921  0.0190 -0.6753  0.1888
 1613TIP3    H126330   4.711   6.641   2.955 -0.0161 -0.0476 -0.3922
 1613TIP3    H226331   4.592   6.558   2.996  0.6488 -0.5335  0.6036
 1614TIP3   OH226332   0.136   6.658  12.725 -0.0310 -0.3234  0.0417
 1614TIP3    H126333   0.165   6.708  12.802  0.5202 -1.5293  0.6378
 1614TIP3    H226334   0.216   6.626  12.685 -0.2331  1.1272 -1.6830
 1615TIP3   OH226335   2.684   0.852   3.735 -0.4970  0.0812 -0.1621
 1615TIP3    H126336   2.678   0.841   3.830  1.7277  0.4427  0.0872
 1615TIP3    H226337   2.652   0.941   3.719 -2.1556 -0.4599  0.0516
 1616TIP3   OH226338   5.786   2.743  13.222  0.1451  0.3096 -0.2871
 1616TIP3    H126339   5.725   2.670  13.220 -0.1428  0.5322  0.1439
 1616TIP3    H226340   5.764   2.796  13.145 -0.6731  0.7531  0.2315
 1617TIP3   OH226341   3.513   2.701  13.428 -0.2303  0.1325  0.0734
 1617TIP3    H126342   3.428   2.665  13.456 -0.3998  1.7699  1.9831
 1617TIP3    H226343   3.490   2.778  13.376  0.0177  0.8412  0.9655
 1618TIP3   OH226344   3.703   6.109   0.419 -0.4491 -0.3539  0.3447
 1618TIP3    H126345   3.627   6.154   0.383 -1.5045 -0.3656  2.4045
 1618TIP3    H226346   3.668   6.026   0.454  0.7803 -1.0441  0.0122
 1619TIP3   OH226347   2.165   5.240   3.906 -0.3039 -0.1922  0.6440
 1619TIP3    H126348   2.199   5.318   3.862  0.3146 -0.6899  0.2243
 1619TIP3    H226349   2.243   5.195   3.939 -0.1654 -2.8825 -2.8298
 1620TIP3   OH226350   3.380   1.489  15.940 -0.2248 -0.1789  0.0758
 1620TIP3    H126351   3.331   1.410  15.964  1.1785 -0.7412  1.3369
 1620TIP3    H226352   3.366   1.549  16.013  0.6161 -0.2087  0.2783
 1621TIP3   OH226353   1.506   4.843  14.399  0.1549  0.1834  0.0003
 1621TIP3    H126354   1.457   4.818  14.321 -0.5902 -1.2149  0.8847
 1621TIP3    H226355   1.566   4.770  14.414  1.8233  1.3794 -0.4336
 1622TIP3   OH226356   0.259   1.902  11.774  0.3159  0.4402 -0.1740
 1622TIP3    H126357   0.197   1.912  11.702  0.1603  0.9576  0.0273
 1622TIP3    H226358   0.223   1.956  11.844  0.6567  0.2281  0.1682
 1623TIP3   OH226359   1.845   3.230  13.038 -0.1362  0.1178 -0.5265
 1623TIP3    H126360   1.926   3.271  13.008 -1.1155  0.5636 -2.7393
 1623TIP3    H226361   1.874   3.154  13.088  1.6581 -0.1439 -1.8644
 1624TIP3   OH226362   0.052   4.873  14.054  0.3430 -0.0974  0.5085
 1624TIP3    H126363   0.001   4.891  14.133  0.3355  0.6386  0.3468
 1624TIP3    H226364   0.010   4.796  14.015 -0.6633  0.4937  0.3788
 1625TIP3   OH226365   2.766   1.157   0.932 -0.0613 -0.3869  0.1662
 1625TIP3    H126366   2.806   1.128   0.850  0.0130  1.0975 -0.3617
 1625TIP3    H226367   2.720   1.080   0.965 -0.4658 -0.9032 -1.4978
 1626TIP3   OH226368   2.384   3.878   3.568  0.1922 -0.5047  0.1734
 1626TIP3    H126369   2.390   3.853   3.660  2.3213 -0.1179  0.2029
 1626TIP3    H226370   2.433   3.810   3.522 -1.0374 -0.8078 -0.7248
 1627TIP3   OH226371   4.081   2.550   3.892 -0.1066 -0.6343 -0.0604
 1627TIP3    H126372   4.070   2.458   3.871  0.8368 -0.6058 -0.7117
 1627TIP3    H226373   4.155   2.553   3.952 -0.5851 -0.3648  0.5281
 1628TIP3   OH226374   3.021   5.945   4.132  0.0852 -0.3748 -0.0192
 1628TIP3    H126375   2.968   6.022   4.115 -0.7521 -0.5133  1.7286
 1628TIP3    H226376   3.106   5.980   4.158 -0.0465 -0.0649  0.0008
 1629TIP3   OH226377   1.465   6.253  16.217  0.3527 -0.2741  0.3386
 1629TIP3    H126378   1.476   6.246  16.312 -0.2449 -2.7773  0.3120
 1629TIP3    H226379   1.543   6.299  16.187  1.2453 -0.6550  1.9253
 1630TIP3   OH226380   0.239   6.310  16.980 -0.3120 -0.1214  0.1580
 1630TIP3    H126381   0.160   6.340  16.938 -0.2762  1.0164  0.8683
 1630TIP3    H226382   0.269   6.237  16.926 -0.2951  1.2281 -1.7273
 1631TIP3   OH226383   6.669   1.171  14.576  0.3464 -0.2836 -0.2027
 1631TIP3    H126384   6.710   1.098  14.530  1.4748 -0.5893  1.1987
 1631TIP3    H226385   6.734   1.241  14.576 -0.7063  0.7511 -1.4927
 1632TIP3   OH226386   6.220   1.715  12.813  0.1305 -0.1180 -0.6142
 1632TIP3    H126387   6.260   1.678  12.735  0.2677 -2.3503  0.4244
 1632TIP3    H226388   6.285   1.776  12.848  1.2787 -1.2263 -0.7412
 1633TIP3   OH226389   0.162   5.472  11.160 -0.1576  0.4727  0.2295
 1633TIP3    H126390   0.241   5.464  11.106 -0.2262  1.7921 -0.1098
 1633TIP3    H226391   0.195   5.481  11.249  0.0071 -0.4995  0.2718
 1634TIP3   OH226392   5.810   1.373  14.071  0.0476  0.2111 -0.3942
 1634TIP3    H126393   5.823   1.370  13.976 -0.9825 -2.8810 -0.5401
 1634TIP3    H226394   5.887   1.330  14.107  0.4092  1.3258  0.2043
 1635TIP3   OH226395   6.463   0.086   2.350  0.2762 -0.5344  0.2943
 1635TIP3    H126396   6.412   0.026   2.296 -0.8887 -0.7200  1.5613
 1635TIP3    H226397   6.530   0.030   2.390 -0.4684 -0.9044  1.0469
 1636TIP3   OH226398   6.296   0.745  15.389  0.3436  0.8294  0.1611
 1636TIP3    H126399   6.348   0.753  15.470 -1.6981  2.3313  1.4242
 1636TIP3    H226400   6.308   0.830  15.345  0.0048  0.6980 -0.1890
 1637TIP3   OH226401   0.516   1.779   1.416 -0.0298 -0.1849  0.1694
 1637TIP3    H126402   0.510   1.875   1.418  1.0257 -0.0740 -0.7667
 1637TIP3    H226403   0.540   1.755   1.506 -0.6105  0.3911  0.4920
 1638TIP3   OH226404   4.079   0.936   5.916 -0.1911  0.2859  0.1137
 1638TIP3    H126405   4.000   0.897   5.877  0.5613 -0.5778 -0.5757
 1638TIP3    H226406   4.059   1.029   5.923 -0.7527  0.2925 -1.3403
 1639TIP3   OH226407   5.084   4.562   4.786 -0.5505 -0.2156 -0.3846
 1639TIP3    H126408   5.034   4.555   4.868  0.4058 -0.7504  0.1737
 1639TIP3    H226409   5.160   4.614   4.809 -0.9890  0.8713 -1.3102
 1640TIP3   OH226410   3.289   4.304  15.045 -0.0659 -0.2713  0.1623
 1640TIP3    H126411   3.312   4.220  15.006 -0.2038 -0.1171 -0.2550
 1640TIP3    H226412   3.304   4.368  14.975 -0.7203 -0.0413  0.2270
 1641TIP3   OH226413   1.084   6.491  11.571 -0.2853 -0.1129 -0.3589
 1641TIP3    H126414   1.089   6.412  11.517  1.0672  0.3174 -0.8962
 1641TIP3    H226415   1.153   6.480  11.637 -0.3946  0.4032 -0.1529
 1642TIP3   OH226416   5.641   3.001  16.334  0.8098 -0.1571  0.0192
 1642TIP3    H126417   5.608   2.919  16.370 -0.9322  0.5660  0.1837
 1642TIP3    H226418   5.736   2.995  16.343  0.6452 -1.6671  1.0777
 1643TIP3   OH226419   5.796   6.488   6.390  0.2221  0.2105  0.6792
 1643TIP3    H126420   5.808   6.394   6.378  1.6333  0.2450  1.4821
 1643TIP3    H226421   5.714   6.496   6.438  0.6841 -0.7256  1.6829
 1644TIP3   OH226422   5.375   1.388   4.263  0.1452  0.0107 -0.9013
 1644TIP3    H126423   5.451   1.378   4.205  0.4958  0.4785 -0.5291
 1644TIP3    H226424   5.319   1.451   4.217  0.9040  1.1954 -0.2798
 1645TIP3   OH226425   3.320   3.374  15.053 -0.0421 -0.3641  0.8829
 1645TIP3    H126426   3.399   3.399  15.005  0.6096 -1.0781  1.5454
 1645TIP3    H226427   3.307   3.282  15.031 -1.2579 -0.0116  0.0366
 1646TIP3   OH226428   6.201   0.422  10.640 -0.1952  0.2360  0.2412
 1646TIP3    H126429   6.146   0.345  10.655 -2.9759  1.8698 -0.7940
 1646TIP3    H226430   6.228   0.415  10.548  2.3150 -1.0513  0.9891
 1647TIP3   OH226431   3.801   5.679  10.755  0.4596 -0.1740  0.2058
 1647TIP3    H126432   3.891   5.693  10.724  0.0893 -0.7502 -1.1664
 1647TIP3    H226433   3.749   5.743  10.707 -0.1343 -1.1110 -0.4033
 1648TIP3   OH226434   2.456   4.343   0.500 -0.1375  0.3718  0.5109
 1648TIP3    H126435   2.509   4.268   0.471 -0.0100  0.2740  0.9903
 1648TIP3    H226436   2.474   4.350   0.594 -0.7363  0.5293  0.6154
 1649TIP3   OH226437   5.800   5.432   1.174  0.0806  0.0483 -0.1252
 1649TIP3    H126438   5.771   5.343   1.195  0.6107 -0.0995  0.0122
 1649TIP3    H226439   5.845   5.462   1.253 -0.4062  0.5740 -0.0473
 1650TIP3   OH226440   4.568   4.091   0.820  0.1832 -0.1400 -0.2347
 1650TIP3    H126441   4.655   4.129   0.806  0.5634 -0.7081  0.5030
 1650TIP3    H226442   4.542   4.060   0.733  1.8259 -2.2265 -0.0790
 1651TIP3   OH226443   4.280   1.016   4.540  0.5614 -0.4327  0.7369
 1651TIP3    H126444   4.363   1.036   4.582  0.5211  0.6438  0.3425
 1651TIP3    H226445   4.233   1.100   4.538  0.3373 -0.5672 -0.9262
 1652TIP3   OH226446   1.772   6.186  12.284  0.0973  0.2614  0.2346
 1652TIP3    H126447   1.752   6.178  12.378 -1.8836 -1.1522 -0.2170
 1652TIP3    H226448   1.801   6.276  12.273  0.1964  0.5199  2.1811
 1653TIP3   OH226449   4.897   3.906  16.452 -0.1247  0.3565  0.4414
 1653TIP3    H126450   4.938   3.992  16.463  0.3345  0.0426  1.2278
 1653TIP3    H226451   4.970   3.848  16.431 -0.2904 -0.0390  0.9584
 1654TIP3   OH226452   5.302   0.991  14.564  0.2165 -0.1526  0.1838
 1654TIP3    H126453   5.311   1.073  14.515 -1.3992 -0.6923 -1.0803
 1654TIP3    H226454   5.351   0.927  14.513  0.6793 -0.2004  0.6723
 1655TIP3   OH226455   2.299   3.768   2.143 -0.1074 -0.6463 -0.2987
 1655TIP3    H126456   2.250   3.849   2.132  0.4569 -0.1454  0.7275
 1655TIP3    H226457   2.352   3.762   2.063  0.7268  0.6369  0.1222
 1656TIP3   OH226458   5.152   1.591  13.019 -0.1531 -0.4107  0.0553
 1656TIP3    H126459   5.223   1.552  12.969  0.3386  0.2605  0.2230
 1656TIP3    H226460   5.087   1.615  12.953  0.7819  1.0880 -0.3629
 1657TIP3   OH226461   1.084   1.756   2.706 -0.5286 -0.3045  0.5278
 1657TIP3    H126462   1.050   1.775   2.618 -0.2743  1.8642  0.8394
 1657TIP3    H226463   1.137   1.678   2.694  0.1279  0.3597 -1.4533
 1658TIP3   OH226464   4.633   5.244   5.400  0.1587  0.1363  0.0834
 1658TIP3    H126465   4.577   5.190   5.457 -0.8091  2.0789  1.0611
 1658TIP3    H226466   4.718   5.244   5.443  0.1170 -0.4367  0.1750
 1659TIP3   OH226467   5.234   3.299   0.363  0.4070  0.6059  1.0171
 1659TIP3    H126468   5.286   3.373   0.332  1.0878 -0.8433 -1.6260
 1659TIP3    H226469   5.288   3.222   0.344 -3.0917 -1.1924 -3.5736
 1660TIP3   OH226470   3.743   0.501  14.118  0.2657 -0.2821 -0.1159
 1660TIP3    H126471   3.797   0.560  14.066 -0.0591  0.1979  0.0850
 1660TIP3    H226472   3.765   0.521  14.209  0.5589 -0.8585 -0.0580
 1661TIP3   OH226473   3.337   6.815   4.591  0.1506 -0.0086  0.1599
 1661TIP3    H126474   3.359   6.735   4.542 -0.3448  0.2067 -0.4220
 1661TIP3    H226475   3.374   6.800   4.678  0.9332 -0.4545 -0.2373
 1662TIP3   OH226476   0.767   6.291   4.016 -0.0755 -0.0164 -0.5733
 1662TIP3    H126477   0.850   6.245   4.000  0.4585  0.4905  0.6108
 1662TIP3    H226478   0.700   6.223   4.006  0.5821 -0.7113 -0.4052
 1663TIP3   OH226479   4.550   6.433  12.251 -0.0660 -0.5375 -0.8251
 1663TIP3    H126480   4.559   6.481  12.333  3.4896  0.4661 -1.6373
 1663TIP3    H226481   4.512   6.497  12.190 -0.3255 -0.4789 -0.6057
 1664TIP3   OH226482   2.181   5.701  11.268 -0.7816  0.0720 -0.1064
 1664TIP3    H126483   2.247   5.695  11.199 -0.0257  1.3688  0.4832
 1664TIP3    H226484   2.104   5.736  11.224 -0.4980  0.2957 -0.4325
 1665TIP3   OH226485   2.141   4.472  16.418 -0.7878 -0.3530  0.4709
 1665TIP3    H126486   2.206   4.402  16.425 -0.4187 -0.1427 -0.5500
 1665TIP3    H226487   2.056   4.427  16.418 -0.6899 -0.5897  2.3114
 1666TIP3   OH226488   3.369   6.829  16.815 -0.5467 -0.0517  0.2628
 1666TIP3    H126489   3.334   6.765  16.753 -0.0412  0.0682 -0.1496
 1666TIP3    H226490   3.427   6.884  16.763  0.4658 -0.4112  0.9912
 1667TIP3   OH226491   1.565   4.111  10.966  0.3875 -0.4824  0.1833
 1667TIP3    H126492   1.566   4.021  10.934  1.9928 -0.1197 -0.8944
 1667TIP3    H226493   1.529   4.163  10.894 -0.0700 -0.1943  0.6121
 1668TIP3   OH226494   3.425   4.998  13.258  0.3522  0.0981  0.4775
 1668TIP3    H126495   3.459   5.085  13.281  1.2150 -0.1835  0.2827
 1668TIP3    H226496   3.458   4.982  13.170 -0.8395  0.0897  0.0057
 1669TIP3   OH226497   5.396   2.233  13.736 -0.4622  0.0393  0.3017
 1669TIP3    H126498   5.401   2.281  13.653  0.7490 -0.0594  0.2997
 1669TIP3    H226499   5.477   2.256  13.781 -0.5805 -0.8228  0.9681
 1670TIP3   OH226500   6.700   1.428  15.930 -0.1613  0.0011  0.1729
 1670TIP3    H126501   6.772   1.384  15.885  2.0322 -0.2840  3.5879
 1670TIP3    H226502   6.738   1.510  15.961 -1.7881  0.5637  0.7893
 1671TIP3   OH226503   4.850   5.153   5.566 -0.0932 -0.0486 -0.0907
 1671TIP3    H126504   4.814   5.104   5.640  0.1470 -0.1280 -0.0254
 1671TIP3    H226505   4.942   5.126   5.562 -0.3303 -0.7743 -1.0098
 1672TIP3   OH226506   6.122   3.342   5.601 -0.1742 -0.2727  0.3869
 1672TIP3    H126507   6.083   3.427   5.581  1.0195  0.1623 -0.2438
 1672TIP3    H226508   6.111   3.292   5.520 -1.1358 -0.8283  0.8567
 1673TIP3   OH226509   4.147   2.208  16.239 -0.4788 -0.3622  0.4406
 1673TIP3    H126510   4.218   2.173  16.185 -0.3127  1.6097 -0.7052
 1673TIP3    H226511   4.187   2.222  16.325 -0.2353 -1.7282  0.5822
 1674TIP3   OH226512   1.236   5.333  16.568  0.1911  0.1590 -0.3456
 1674TIP3    H126513   1.301   5.263  16.560  0.0529 -0.2871  1.8986
 1674TIP3    H226514   1.284   5.413  16.547  0.5683 -0.4682 -2.0874
 1675TIP3   OH226515   1.855   4.489  14.671  0.1397  0.2171 -0.4573
 1675TIP3    H126516   1.923   4.556  14.664 -0.2115  0.7764  1.1360
 1675TIP3    H226517   1.777   4.536  14.700 -0.3596 -0.7447 -0.1713
 1676TIP3   OH226518   3.252   2.372  11.261 -0.2069  0.8120  0.1584
 1676TIP3    H126519   3.335   2.333  11.292 -1.3395 -0.7457  1.4360
 1676TIP3    H226520   3.223   2.312  11.192 -1.1088  0.3454  0.9274
 1677TIP3   OH226521   0.413   5.205   0.109  0.2254 -0.8747  0.1777
 1677TIP3    H126522   0.375   5.277   0.159  1.8800  0.1368  0.0248
 1677TIP3    H226523   0.450   5.147   0.175  1.6371  0.0228  0.2223
 1678TIP3   OH226524   1.123   1.079   0.311  0.7754 -0.2624 -0.0034
 1678TIP3    H126525   1.117   1.172   0.336 -0.9793 -0.2306 -0.4601
 1678TIP3    H226526   1.098   1.031   0.390 -0.6365 -0.2619 -0.4235
 1679TIP3   OH226527   6.759   2.604  12.301 -0.2757 -0.2817  0.1359
 1679TIP3    H126528   6.681   2.585  12.248  0.5487 -1.5128 -0.6816
 1679TIP3    H226529   6.764   2.531  12.363 -0.6104  0.5837  1.2119
 1680TIP3   OH226530   0.230   5.498   4.840 -0.5032  0.0704 -0.1997
 1680TIP3    H126531   0.156   5.534   4.889 -1.2666 -0.3086 -1.0531
 1680TIP3    H226532   0.303   5.557   4.861 -1.5760  1.8375 -1.1347
 1681TIP3   OH226533   2.550   5.100  11.869 -0.1318 -0.0043 -0.4717
 1681TIP3    H126534   2.518   5.101  11.959  0.4610 -0.9951 -0.2391
 1681TIP3    H226535   2.478   5.138  11.818 -0.6362  0.1832  0.3568
 1682TIP3   OH226536   4.124   3.963  11.428  0.0251  0.2579  0.1873
 1682TIP3    H126537   4.040   3.988  11.466  0.4252  0.6180  0.8476
 1682TIP3    H226538   4.115   3.870  11.409 -0.7946  0.4655 -0.4826
 1683TIP3   OH226539   1.160   6.648  15.291  1.0997  0.7727  0.2275
 1683TIP3    H126540   1.224   6.618  15.355  0.3049 -0.5997  0.4046
 1683TIP3    H226541   1.184   6.740  15.275  2.2123  0.7077  1.3597
 1684TIP3   OH226542   1.403   2.902   4.806 -0.3338 -0.0913 -0.5616
 1684TIP3    H126543   1.327   2.914   4.864  0.0040 -0.4869 -0.0255
 1684TIP3    H226544   1.474   2.877   4.865  1.1049  3.3998 -0.5294
 1685TIP3   OH226545   2.999   1.540   1.072  0.0466  0.0326  0.1098
 1685TIP3    H126546   2.930   1.486   1.031 -0.3918  1.0618 -0.5486
 1685TIP3    H226547   3.046   1.577   0.998 -1.3919  2.7583  0.4432
 1686TIP3   OH226548   1.992   1.752  14.992  0.1373 -1.1539  0.0776
 1686TIP3    H126549   1.993   1.675  15.048 -0.6508 -0.9159  0.4481
 1686TIP3    H226550   1.919   1.805  15.026  0.7122 -0.2121 -0.1131
 1687TIP3   OH226551   0.470   0.731   4.413  0.4369 -0.2809 -0.0932
 1687TIP3    H126552   0.460   0.721   4.508  0.0192  2.2848  0.2133
 1687TIP3    H226553   0.390   0.694   4.376 -0.7401  1.2377  0.8060
 1688TIP3   OH226554   5.481   0.210  12.819 -0.1357 -0.0362  0.1239
 1688TIP3    H126555   5.552   0.177  12.874  0.9273  0.5943 -0.8406
 1688TIP3    H226556   5.409   0.148  12.833 -0.2441  0.5540  2.8928
 1689TIP3   OH226557   6.731   0.733   2.857 -0.6028  0.4002  0.1086
 1689TIP3    H126558   6.756   0.778   2.777 -1.7101  1.5863  0.4012
 1689TIP3    H226559   6.784   0.653   2.857  0.0184  0.7801 -1.3715
 1690TIP3   OH226560   2.217   0.898  16.613 -0.1633  0.2350  0.1963
 1690TIP3    H126561   2.256   0.971  16.661  0.3389  1.4283 -1.9190
 1690TIP3    H226562   2.183   0.937  16.533  0.7484 -1.9451 -1.3563
 1691TIP3   OH226563   4.496   0.674   3.742 -0.4788 -0.1070 -0.1062
 1691TIP3    H126564   4.543   0.679   3.825  0.1201 -0.0223 -0.4451
 1691TIP3    H226565   4.404   0.688   3.766 -0.2132  0.8609  0.4359
 1692TIP3   OH226566   2.659   3.108  11.824  0.5136  0.0093 -0.0229
 1692TIP3    H126567   2.745   3.134  11.858 -0.1191  0.6611  1.1466
 1692TIP3    H226568   2.625   3.187  11.783 -0.3762  0.3725  1.3532
 1693TIP3   OH226569   0.316   5.356  16.184 -0.9726  0.3648 -0.8397
 1693TIP3    H126570   0.300   5.283  16.125 -3.6615  0.3180 -0.2267
 1693TIP3    H226571   0.314   5.433  16.127  1.1223  0.0639 -1.3829
 1694TIP3   OH226572   4.443   3.997   5.254  0.1606  0.3470  0.3338
 1694TIP3    H126573   4.435   4.091   5.235 -2.7200 -0.0251 -0.8297
 1694TIP3    H226574   4.445   3.992   5.349 -3.1759  1.5369  0.5985
 1695TIP3   OH226575   3.074   4.447   1.165 -0.1226 -0.1424 -0.6329
 1695TIP3    H126576   2.984   4.417   1.170 -0.8332  1.9704  0.4717
 1695TIP3    H226577   3.071   4.523   1.107  0.6867  0.7049  0.3916
 1696TIP3   OH226578   5.531   2.701   1.549 -0.0565 -0.5192 -0.6849
 1696TIP3    H126579   5.605   2.657   1.506 -0.4688 -1.3618 -0.5545
 1696TIP3    H226580   5.455   2.674   1.498 -0.7213 -2.5481  1.2729
 1697TIP3   OH226581   3.437   5.716   2.846 -0.2539  0.2923  0.3417
 1697TIP3    H126582   3.383   5.742   2.771  0.3064 -0.9150 -0.5219
 1697TIP3    H226583   3.521   5.758   2.830 -0.0665 -0.1394  0.1515
 1698TIP3   OH226584   5.645   3.196  14.047  0.2908 -0.0142 -0.6389
 1698TIP3    H126585   5.698   3.228  13.973  0.1931 -0.1728 -0.7772
 1698TIP3    H226586   5.641   3.271  14.107 -0.4246  0.4363 -1.2313
 1699TIP3   OH226587   2.024   2.387  14.823 -0.2017 -0.1466  0.6622
 1699TIP3    H126588   2.002   2.468  14.777  1.3778  0.2116  0.4617
 1699TIP3    H226589   1.965   2.383  14.897  0.9853  2.2367  1.8150
 1700TIP3   OH226590   1.419   2.213  12.009 -0.1324 -0.0452  0.2702
 1700TIP3    H126591   1.444   2.159  11.934 -0.9695 -1.9877  1.3040
 1700TIP3    H226592   1.492   2.203  12.071 -0.5611 -0.5252  0.7113
 1701TIP3   OH226593   0.829   4.764   5.619  0.4786 -0.1916 -0.7102
 1701TIP3    H126594   0.822   4.669   5.613 -0.4532 -0.2230  0.4380
 1701TIP3    H226595   0.884   4.779   5.696 -1.5751  0.1617  0.7788
 1702TIP3   OH226596   1.651   3.023   4.424 -0.4925  0.1129  0.3099
 1702TIP3    H126597   1.687   2.953   4.478  0.8881  0.0697 -0.6044
 1702TIP3    H226598   1.723   3.086   4.416 -0.8256  0.3591 -1.0346
 1703TIP3   OH226599   6.496   3.859   5.025  0.0925 -0.0978 -0.3271
 1703TIP3    H126600   6.494   3.908   4.943  0.7051 -0.2789 -0.4498
 1703TIP3    H226601   6.519   3.770   5.000 -0.5540 -0.3515 -0.0509
 1704TIP3   OH226602   4.082   0.650   5.827  0.1983  0.4288 -0.8837
 1704TIP3    H126603   4.107   0.563   5.858 -1.1327  0.1989 -0.3741
 1704TIP3    H226604   4.121   0.710   5.891 -0.2390  0.1001 -0.2954
 1705TIP3   OH226605   2.131   2.095   2.333 -0.8324  0.5161  0.5979
 1705TIP3    H126606   2.192   2.111   2.261 -0.5205  0.8148  0.9205
 1705TIP3    H226607   2.045   2.119   2.298 -0.8658 -0.5391 -0.0729
 1706TIP3   OH226608   6.252   6.582  13.025  0.2851 -0.2807 -0.5491
 1706TIP3    H126609   6.192   6.540  12.963 -0.8318  0.6753 -0.1493
 1706TIP3    H226610   6.252   6.524  13.101 -1.7342  0.6520  0.2488
 1707TIP3   OH226611   1.857   3.282  10.539  0.2276 -0.0960  0.0603
 1707TIP3    H126612   1.914   3.330  10.478 -0.8238  0.5831 -0.4183
 1707TIP3    H226613   1.811   3.351  10.587  1.7614 -0.5742  2.4005
 1708TIP3   OH226614   1.725   3.612   2.017 -0.0511  0.2077 -0.0226
 1708TIP3    H126615   1.811   3.648   1.994 -0.4892  0.3283 -1.5703
 1708TIP3    H226616   1.731   3.519   1.993 -0.0470 -0.0186  0.8051
 1709TIP3   OH226617   5.075   2.992  14.361 -0.2290 -0.7410 -0.3306
 1709TIP3    H126618   5.011   2.964  14.297 -1.1374 -1.8028  0.9930
 1709TIP3    H226619   5.059   2.936  14.437  1.1299  0.1423  0.6452
 1710TIP3   OH226620   2.509   3.096  12.882 -0.1042 -0.3715 -0.1140
 1710TIP3    H126621   2.489   3.004  12.863 -0.3265 -0.2184 -0.6635
 1710TIP3    H226622   2.595   3.094  12.922  0.2180 -0.7668 -0.7931
 1711TIP3   OH226623   1.550   4.296  11.306  0.2721 -1.1956 -0.0051
 1711TIP3    H126624   1.613   4.350  11.354  1.3168 -1.4674 -1.0158
 1711TIP3    H226625   1.550   4.334  11.218 -2.1119 -0.2667  0.3150
 1712TIP3   OH226626   4.895   2.136   4.023  0.1730 -0.3986 -0.1568
 1712TIP3    H126627   4.965   2.199   4.005  1.2547 -1.9200 -1.6178
 1712TIP3    H226628   4.901   2.120   4.118  1.7756 -0.4186 -0.2304
 1713TIP3   OH226629   3.558   0.266   2.446 -0.4266  0.3138 -0.2130
 1713TIP3    H126630   3.560   0.321   2.368  0.5980  0.8889  0.2053
 1713TIP3    H226631   3.650   0.249   2.466 -0.6952 -0.4622  0.4381
 1714TIP3   OH226632   6.838   2.628  16.966 -0.7812  0.1843 -0.7374
 1714TIP3    H126633   6.884   2.607  17.047 -0.6879  2.6310 -0.0580
 1714TIP3    H226634   6.780   2.553  16.951  1.2520 -1.6316 -0.0197
 1715TIP3   OH226635   1.639   5.938  15.597 -0.7139  0.2237  0.0028
 1715TIP3    H126636   1.655   6.030  15.573  0.9173 -0.0140  0.0300
 1715TIP3    H226637   1.545   5.934  15.615 -1.2339  1.4053 -2.0642
 1716TIP3   OH226638   6.562   5.863   3.577  0.3387  0.8166  0.2881
 1716TIP3    H126639   6.636   5.830   3.526  0.2438  0.4468  0.3863
 1716TIP3    H226640   6.594   5.945   3.615  1.2407 -0.1236  1.6299
 1717TIP3   OH226641   6.615   3.544   4.013 -0.2898  0.1594 -0.3397
 1717TIP3    H126642   6.520   3.540   4.010 -0.3496  0.5115  0.6442
 1717TIP3    H226643   6.644   3.493   3.938 -1.2600  0.3958 -0.8882
 1718TIP3   OH226644   3.647   6.525  17.120  0.2930 -0.2570  0.0118
 1718TIP3    H126645   3.603   6.577  17.053  1.7184 -1.5869 -2.1117
 1718TIP3    H226646   3.622   6.565  17.203 -2.1832  1.0244 -1.2509
 1719TIP3   OH226647   5.581   3.542   1.831 -0.9739 -0.1372  0.1939
 1719TIP3    H126648   5.506   3.599   1.817 -0.6114 -0.0519 -1.6122
 1719TIP3    H226649   5.608   3.515   1.743 -0.6984 -2.5346  0.9468
 1720TIP3   OH226650   0.208   0.422  13.423  0.2176 -0.0178 -0.2457
 1720TIP3    H126651   0.226   0.514  13.403  2.2311 -0.2796  0.1512
 1720TIP3    H226652   0.266   0.373  13.365 -0.9935 -1.0715 -0.6151
 1721TIP3   OH226653   1.537   2.787  14.961  0.0241  0.0329 -0.2170
 1721TIP3    H126654   1.571   2.758  15.045  0.8330  0.3690 -0.4193
 1721TIP3    H226655   1.603   2.848  14.928 -0.2212 -0.1823 -1.1451
 1722TIP3   OH226656   5.575   3.640   2.393 -0.1785 -0.5684  0.3154
 1722TIP3    H126657   5.629   3.671   2.466  0.1743 -0.6023  0.0736
 1722TIP3    H226658   5.639   3.613   2.327 -0.4946  0.0240 -0.2386
 1723TIP3   OH226659   3.504   4.608   3.805 -0.2579 -0.3815  0.4304
 1723TIP3    H126660   3.551   4.525   3.809 -0.2707 -0.3602  1.0780
 1723TIP3    H226661   3.503   4.640   3.895  1.5386  1.3054 -0.0553
 1724TIP3   OH226662   4.710   3.567  13.254 -0.0254 -0.0543  0.1361
 1724TIP3    H126663   4.784   3.621  13.230 -0.2406 -0.1694 -0.8066
 1724TIP3    H226664   4.633   3.618  13.227 -0.2196 -1.1299 -1.5031
 1725TIP3   OH226665   4.306   2.328  16.673 -0.0127  0.1202  0.2721
 1725TIP3    H126666   4.336   2.417  16.659 -0.7752  0.2892 -0.3575
 1725TIP3    H226667   4.323   2.311  16.766  2.0279  0.1818 -0.0565
 1726TIP3   OH226668   3.714   1.572  11.203  0.1834 -0.1904 -0.2136
 1726TIP3    H126669   3.696   1.619  11.284 -0.1451 -0.9435  0.1589
 1726TIP3    H226670   3.780   1.507  11.227  1.4972  0.8042 -0.9776
 1727TIP3   OH226671   4.616   5.091   1.501 -0.4193  0.1783 -0.2291
 1727TIP3    H126672   4.648   5.180   1.495 -1.2807  0.5296  0.1502
 1727TIP3    H226673   4.648   5.059   1.585  0.6106 -0.1780 -0.7447
 1728TIP3   OH226674   5.804   0.868   4.605 -0.3322  0.4789  0.2525
 1728TIP3    H126675   5.880   0.905   4.651  0.1744 -1.1162  0.7751
 1728TIP3    H226676   5.841   0.826   4.528 -0.1799 -2.7523  1.9042
 1729TIP3   OH226677   2.945   4.473  12.789 -0.4694 -0.3181 -0.6023
 1729TIP3    H126678   2.918   4.392  12.831  0.2708  0.4596  1.4882
 1729TIP3    H226679   2.923   4.541  12.852  0.9166  0.8851 -1.3694
 1730TIP3   OH226680   3.006   4.066  15.764  0.1641  0.1278  0.2330
 1730TIP3    H126681   3.093   4.027  15.759  0.9619  1.6932  1.0070
 1730TIP3    H226682   2.989   4.097  15.675  1.2288  1.4178  0.4376
 1731TIP3   OH226683   4.598   5.654  14.110  0.3681  0.4861 -0.5115
 1731TIP3    H126684   4.515   5.683  14.073  1.0518  0.1862 -2.3500
 1731TIP3    H226685   4.575   5.576  14.161 -0.5876  0.8974 -0.2835
 1732TIP3   OH226686   1.817   0.384  14.805 -0.2882 -0.3215 -0.4564
 1732TIP3    H126687   1.886   0.321  14.786  0.4169 -0.0582  1.1040
 1732TIP3    H226688   1.861   0.455  14.850 -1.3753  0.4619 -0.5923
 1733TIP3   OH226689   2.073   4.824   5.723  0.0712 -0.4219 -0.3722
 1733TIP3    H126690   2.168   4.824   5.713 -0.0039  0.7193 -1.3659
 1733TIP3    H226691   2.040   4.829   5.633 -0.8504  2.0528  0.0290
 1734TIP3   OH226692   1.157   4.266  13.873 -0.4078  0.3185 -0.7411
 1734TIP3    H126693   1.230   4.273  13.812 -0.0046  2.6027 -0.0701
 1734TIP3    H226694   1.104   4.194  13.838  0.8313  0.2629 -2.6563
 1735TIP3   OH226695   2.132   0.113  12.980 -0.5570  0.1722 -0.3943
 1735TIP3    H126696   2.052   0.100  13.030  0.8977 -1.8700  1.6122
 1735TIP3    H226697   2.161   0.201  13.001 -1.1490  0.1397  0.5796
 1736TIP3   OH226698   0.103   2.925   1.095 -0.2926  0.5376  0.0178
 1736TIP3    H126699   0.191   2.955   1.075 -0.4843  0.9226 -0.2715
 1736TIP3    H226700   0.096   2.840   1.052  0.2012  0.1460  0.7036
 1737TIP3   OH226701   5.132   2.751  15.647 -0.4575  0.1232 -0.5151
 1737TIP3    H126702   5.098   2.804  15.719  1.4800  0.2528  0.3694
 1737TIP3    H226703   5.092   2.665  15.659  0.2659 -0.0232  1.0932
 1738TIP3   OH226704   0.574   4.782   3.764  0.0445 -0.0951 -0.0239
 1738TIP3    H126705   0.591   4.797   3.857 -0.1847 -1.0384  0.1709
 1738TIP3    H226706   0.479   4.776   3.757  0.1351 -2.6639  0.1197
 1739TIP3   OH226707   3.926   0.640  13.943 -0.5323 -0.5279  0.2207
 1739TIP3    H126708   3.979   0.704  13.990 -0.5434  0.0393 -0.5197
 1739TIP3    H226709   3.949   0.653  13.851 -1.5440 -0.6667 -0.0592
 1740TIP3   OH226710   3.064   6.466  14.774 -0.1448  0.1339  0.0415
 1740TIP3    H126711   3.070   6.371  14.760  1.3157  0.0821  0.8585
 1740TIP3    H226712   3.047   6.501  14.686 -0.1747 -0.8336 -0.3580
 1741TIP3   OH226713   6.055   1.944   4.267 -0.2199  0.0635 -0.8945
 1741TIP3    H126714   6.042   2.004   4.194 -0.2622  1.7145  0.4232
 1741TIP3    H226715   5.969   1.940   4.310  0.5968  1.7915  1.0142
 1742TIP3   OH226716   5.200   3.670  17.189 -0.5471  0.4432 -0.1192
 1742TIP3    H126717   5.164   3.586  17.217  0.3750  0.3437  0.8823
 1742TIP3    H226718   5.254   3.650  17.113 -0.7579  0.2227 -0.2101
 1743TIP3   OH226719   0.827   1.910  11.062  0.7392 -0.0473 -0.0529
 1743TIP3    H126720   0.767   1.967  11.012 -0.8039 -1.2031  0.4323
 1743TIP3    H226721   0.816   1.824  11.023  2.6373 -0.1745 -0.3983
 1744TIP3   OH226722   4.034   3.311  15.518 -0.0284  0.5608 -0.0790
 1744TIP3    H126723   4.051   3.219  15.501  0.3504  0.2236  1.8609
 1744TIP3    H226724   4.121   3.349  15.530 -0.2340  0.8378  0.5913
 1745TIP3   OH226725   1.204   5.211  12.224 -0.1414  0.1666  0.1929
 1745TIP3    H126726   1.293   5.189  12.252 -0.7683 -1.6588  0.8631
 1745TIP3    H226727   1.177   5.137  12.169 -1.5398  0.2992  0.6793
 1746TIP3   OH226728   6.810   0.511   1.926 -0.6146  0.2590  0.2415
 1746TIP3    H126729   6.826   0.417   1.917  0.5743  0.3198  1.4464
 1746TIP3    H226730   6.889   0.553   1.892 -0.6509  0.7763  0.7731
 1747TIP3   OH226731   6.012   4.826   0.828  0.5812 -0.0147  0.1915
 1747TIP3    H126732   5.920   4.802   0.815  0.0616  1.6852  0.5142
 1747TIP3    H226733   6.054   4.802   0.745 -0.4217  0.4073 -0.4662
 1748TIP3   OH226734   3.086   3.413  10.750  0.8574  0.1757 -0.8335
 1748TIP3    H126735   3.096   3.350  10.678 -2.5785 -1.6695  0.0735
 1748TIP3    H226736   3.098   3.361  10.829 -4.3075 -0.2261  0.0194
 1749TIP3   OH226737   1.675   4.904   5.364  0.2928  0.1091  0.2944
 1749TIP3    H126738   1.701   4.905   5.272 -2.2301  0.2939 -0.4731
 1749TIP3    H226739   1.733   4.968   5.406  0.0613  1.6385 -1.5943
 1750TIP3   OH226740   1.107   5.303   4.593  0.6438 -0.7516  0.3881
 1750TIP3    H126741   1.011   5.305   4.599  0.5097 -0.4755 -1.3937
 1750TIP3    H226742   1.136   5.381   4.639 -0.0554 -0.2573 -0.0012
 1751TIP3   OH226743   4.876   5.943  10.276 -0.4094  0.0098 -0.2662
 1751TIP3    H126744   4.837   5.932  10.363 -1.3544 -0.0220 -0.6763
 1751TIP3    H226745   4.875   6.038  10.262  0.8605  0.1195  0.2326
 1752TIP3   OH226746   6.835   3.054  15.164  0.0435  0.1848  0.5530
 1752TIP3    H126747   6.922   3.018  15.149 -0.6885 -1.0783 -0.9603
 1752TIP3    H226748   6.811   3.024  15.252  0.3196 -1.2637  0.1602
 1753TIP3   OH226749   1.316   6.133   3.157  0.3427 -0.1363 -0.9031
 1753TIP3    H126750   1.340   6.050   3.117 -0.5379 -1.0815  0.4416
 1753TIP3    H226751   1.255   6.173   3.095 -0.9279 -1.5178 -0.6059
 1754TIP3   OH226752   6.004   0.126   3.609 -0.5185  0.1071  0.0537
 1754TIP3    H126753   5.912   0.098   3.611 -1.0639  1.4346 -2.2314
 1754TIP3    H226754   6.040   0.098   3.693 -2.6487 -1.6373  0.4811
 1755TIP3   OH226755   3.989   0.578   1.105  0.3288 -0.2426  0.1752
 1755TIP3    H126756   4.082   0.590   1.123  0.6772 -0.6102 -1.2394
 1755TIP3    H226757   3.948   0.659   1.135  1.0640 -0.1606  1.0074
 1756TIP3   OH226758   6.626   6.675  16.365 -0.6102 -0.0156 -0.6146
 1756TIP3    H126759   6.649   6.766  16.344 -1.6257  0.1614 -0.9907
 1756TIP3    H226760   6.608   6.677  16.459 -2.4222  0.5890 -0.9310
 1757TIP3   OH226761   0.654   3.213   1.242 -0.5594 -0.3412 -0.3908
 1757TIP3    H126762   0.690   3.151   1.305  0.3561  0.6123  0.0532
 1757TIP3    H226763   0.730   3.262   1.211 -1.1330 -0.1180 -1.4968
 1758TIP3   OH226764   3.861   1.580   6.031 -0.0684  0.1069  0.3259
 1758TIP3    H126765   3.893   1.623   6.111  0.4390 -0.6600  0.5465
 1758TIP3    H226766   3.784   1.531   6.060 -0.4604  0.6069  0.1394
 1759TIP3   OH226767   1.885   2.467   0.727 -0.0365  0.1694 -0.2190
 1759TIP3    H126768   1.939   2.477   0.805 -2.0984  0.1124  1.2864
 1759TIP3    H226769   1.901   2.378   0.698  0.3648  0.0199  0.4419
 1760TIP3   OH226770   4.926   3.146  15.608  0.1666  0.3010  0.1123
 1760TIP3    H126771   4.909   3.235  15.636  1.9618  0.9311 -0.6458
 1760TIP3    H226772   4.929   3.095  15.689  0.2402  1.1381  0.6413
 1761TIP3   OH226773   1.269   3.869  15.035  0.0933  0.1521 -0.2187
 1761TIP3    H126774   1.359   3.852  15.009 -0.4398 -0.8310 -1.5291
 1761TIP3    H226775   1.265   3.964  15.047  0.7619  0.5002 -2.3754
 1762TIP3   OH226776   5.733   3.746  16.111  0.9314 -0.1973 -0.5822
 1762TIP3    H126777   5.713   3.760  16.204  0.3594 -1.2679 -0.5377
 1762TIP3    H226778   5.663   3.792  16.064  0.9843 -0.0111 -0.4791
 1763TIP3   OH226779   0.392   5.610   3.676  0.3436  0.6245 -0.0738
 1763TIP3    H126780   0.314   5.556   3.688 -0.7613  1.4877 -2.7418
 1763TIP3    H226781   0.431   5.578   3.595 -0.3043  3.6520 -1.7181
 1764TIP3   OH226782   2.276   6.624   0.507 -0.0923  0.1362 -0.1259
 1764TIP3    H126783   2.341   6.656   0.569  0.6653 -1.0720 -0.2587
 1764TIP3    H226784   2.239   6.546   0.549  0.8798 -1.0847 -1.3870
 1765TIP3   OH226785   4.452   1.589   3.268  0.4886 -0.2452 -0.4970
 1765TIP3    H126786   4.510   1.637   3.327 -0.5229  1.3776 -0.7590
 1765TIP3    H226787   4.507   1.569   3.192  1.0741  0.0489 -0.1564
 1766TIP3   OH226788   4.385   2.391  11.995 -0.6929 -0.1717 -0.2412
 1766TIP3    H126789   4.324   2.405  12.067 -0.1095  0.5012  0.1304
 1766TIP3    H226790   4.462   2.442  12.018 -0.7739  0.6802 -1.7029
 1767TIP3   OH226791   0.658   1.199  12.518 -0.2314  0.1842 -0.0474
 1767TIP3    H126792   0.565   1.220  12.514 -0.2477 -0.0240 -1.4456
 1767TIP3    H226793   0.682   1.177  12.428  1.2008  0.3378  0.2591
 1768TIP3   OH226794   5.608   6.125  14.835 -0.5615 -0.4211  0.0960
 1768TIP3    H126795   5.598   6.168  14.920 -2.0991 -1.2297  0.3740
 1768TIP3    H226796   5.566   6.040  14.847  0.2943 -1.0470 -1.1322
 1769TIP3   OH226797   5.670   5.754  12.047 -0.3842 -0.2044 -0.1244
 1769TIP3    H126798   5.712   5.813  11.983 -0.1774 -0.5515 -0.3113
 1769TIP3    H226799   5.578   5.756  12.024 -0.7722  1.8463  1.2916
 1770TIP3   OH226800   3.555   1.451  12.803 -0.0724  0.0870  0.5242
 1770TIP3    H126801   3.593   1.406  12.728 -1.8307  2.1541 -1.8030
 1770TIP3    H226802   3.630   1.487  12.850  1.0564 -0.4050 -0.8275
 1771TIP3   OH226803   5.321   6.297   0.501 -0.1921 -0.3797 -0.1732
 1771TIP3    H126804   5.359   6.212   0.523 -0.9381 -1.0425 -1.3296
 1771TIP3    H226805   5.258   6.314   0.571  0.9306 -0.1042  0.8032
 1772TIP3   OH226806   5.081   0.404   0.311  0.0730 -0.7439  0.0244
 1772TIP3    H126807   5.143   0.475   0.295  1.2166 -0.6497  3.8672
 1772TIP3    H226808   5.100   0.340   0.242  0.1585  1.8280 -2.5457
 1773TIP3   OH226809   3.955   3.884  10.432 -0.3343 -0.2200  0.6266
 1773TIP3    H126810   3.934   3.836  10.512  0.0382 -0.4014  0.6163
 1773TIP3    H226811   4.012   3.956  10.462  0.0008 -0.4292  0.4920
 1774TIP3   OH226812   5.949   4.957   4.557  0.0057 -0.9648 -0.0009
 1774TIP3    H126813   5.925   5.049   4.547  1.4146 -0.5274  0.3935
 1774TIP3    H226814   5.865   4.911   4.565 -0.7115  0.4522  1.1887
 1775TIP3   OH226815   2.332   3.724  16.993  0.1042  0.6185 -0.8430
 1775TIP3    H126816   2.405   3.764  17.039 -0.9414  1.3349  0.2466
 1775TIP3    H226817   2.296   3.661  17.055  0.5981 -0.7193 -1.8663
 1776TIP3   OH226818   4.095   0.487  17.161  0.6174 -0.7518 -0.0048
 1776TIP3    H126819   4.109   0.498  17.067  1.7517  1.1451  0.3322
 1776TIP3    H226820   4.183   0.468  17.195  0.7694  1.5288  0.9971
 1777TIP3   OH226821   0.432   2.485   6.989  0.2880  0.6972  0.0149
 1777TIP3    H126822   0.517   2.525   6.973  0.2772  0.2248 -1.3058
 1777TIP3    H226823   0.427   2.412   6.928 -0.7906  0.2887  0.5529
 1778TIP3   OH226824   2.739   2.826   4.725  0.0052 -0.2338  0.6451
 1778TIP3    H126825   2.761   2.737   4.755 -0.5132 -0.4047  0.5362
 1778TIP3    H226826   2.687   2.812   4.646 -0.0692  0.1713  0.6214
 1779TIP3   OH226827   5.682   1.160   5.382  0.5751  0.5062 -0.1566
 1779TIP3    H126828   5.711   1.152   5.291 -0.6401  0.8182 -0.5873
 1779TIP3    H226829   5.704   1.075   5.421  2.0387  0.7218 -0.4387
 1780TIP3   OH226830   0.288   4.276   0.590  0.1256 -0.4703  0.4772
 1780TIP3    H126831   0.369   4.229   0.608 -0.2506 -1.7447 -0.9896
 1780TIP3    H226832   0.302   4.316   0.504  0.1536  1.5315  1.3586
 1781TIP3   OH226833   1.063   2.299   3.062 -0.0068 -0.6619  0.2385
 1781TIP3    H126834   1.067   2.235   2.991  1.0592  0.0541 -0.3795
 1781TIP3    H226835   0.989   2.355   3.040  1.2325  0.4867 -1.1578
 1782TIP3   OH226836   5.901   6.087   1.166  0.1422  0.0348 -0.1856
 1782TIP3    H126837   5.990   6.120   1.157  0.5810 -0.5653  1.6091
 1782TIP3    H226838   5.897   6.012   1.107  1.1418 -0.5026  0.4022
 1783TIP3   OH226839   0.824   5.176   1.314  0.0246  0.6498 -0.3005
 1783TIP3    H126840   0.796   5.263   1.339 -0.9132  0.0294  0.9305
 1783TIP3    H226841   0.907   5.163   1.360  0.0854  0.8416 -0.3591
 1784TIP3   OH226842   5.194   5.275   2.605  0.4184 -1.1782  0.3790
 1784TIP3    H126843   5.246   5.346   2.644 -0.3788 -1.8932  2.9939
 1784TIP3    H226844   5.114   5.273   2.657 -0.2275 -3.0314 -0.5967
 1785TIP3   OH226845   1.471   2.613  14.743  0.1743  0.6415 -0.2336
 1785TIP3    H126846   1.453   2.663  14.823 -0.3031 -0.5269  0.4174
 1785TIP3    H226847   1.411   2.649  14.678 -0.7173  0.4012  0.4449
 1786TIP3   OH226848   2.155   0.071  16.286 -0.0889  0.6292 -0.3313
 1786TIP3    H126849   2.247   0.096  16.293 -0.0375  0.4676 -0.4290
 1786TIP3    H226850   2.112   0.146  16.247 -0.0935  0.9177  0.2155
 1787TIP3   OH226851   1.669   1.421  10.654  0.5013 -0.3018 -0.7327
 1787TIP3    H126852   1.633   1.508  10.638  1.3589 -0.1053 -1.6646
 1787TIP3    H226853   1.758   1.424  10.619  0.8039 -1.3374 -0.1249
 1788TIP3   OH226854   3.912   0.336   2.211  0.2094 -0.1916  0.4886
 1788TIP3    H126855   4.005   0.336   2.188  0.1537  1.4019  0.1336
 1788TIP3    H226856   3.907   0.282   2.290  0.9152 -3.0104 -1.2398
 1789TIP3   OH226857   1.600   0.537   2.675  0.5608  0.7461 -0.0160
 1789TIP3    H126858   1.549   0.534   2.756  1.2470 -1.8948  0.4248
 1789TIP3    H226859   1.677   0.590   2.697 -0.0900  1.4715  0.5326
 1790TIP3   OH226860   3.736   0.907   3.648  0.6285 -0.1503 -0.4089
 1790TIP3    H126861   3.662   0.936   3.701  0.2401 -2.1968  0.2258
 1790TIP3    H226862   3.792   0.985   3.641 -1.8532  1.6953 -1.4962
 1791TIP3   OH226863   2.696   6.588  13.836 -0.0916 -0.4926  0.2683
 1791TIP3    H126864   2.693   6.655  13.905  1.9155 -1.9953  1.9395
 1791TIP3    H226865   2.781   6.601  13.794 -1.0851  0.0770 -1.6698
 1792TIP3   OH226866   5.730   5.149   4.834  0.3098 -0.0876  0.1481
 1792TIP3    H126867   5.824   5.167   4.830  0.4617 -0.8087  0.3875
 1792TIP3    H226868   5.722   5.054   4.823 -0.2898 -0.2125  1.3918
 1793TIP3   OH226869   5.907   4.668   2.295  0.4031 -0.1310 -0.5079
 1793TIP3    H126870   5.816   4.678   2.322  0.4944 -1.6924  0.5028
 1793TIP3    H226871   5.905   4.680   2.200 -1.1766 -1.9418 -0.7532
 1794TIP3   OH226872   6.394   6.338   2.914  0.0701 -0.4123  0.3929
 1794TIP3    H126873   6.385   6.283   2.992  0.4466  1.9146  2.2170
 1794TIP3    H226874   6.403   6.427   2.949 -0.9841  0.9104 -2.3733
 1795TIP3   OH226875   0.501   6.177   2.348 -0.6184  0.3201 -0.5574
 1795TIP3    H126876   0.465   6.091   2.371  0.7080 -0.2608 -0.5395
 1795TIP3    H226877   0.522   6.218   2.432 -0.0351  0.1114 -0.5992
 1796TIP3   OH226878   5.865   3.868  14.635 -0.8508 -0.0986 -0.2296
 1796TIP3    H126879   5.785   3.846  14.589 -0.8515 -0.8346  0.1056
 1796TIP3    H226880   5.917   3.787  14.632  0.3560  0.6914 -1.4135
 1797TIP3   OH226881   3.816   3.728  13.047  0.1201 -0.4364 -0.0524
 1797TIP3    H126882   3.837   3.670  12.974 -2.9151 -2.5091  0.5682
 1797TIP3    H226883   3.845   3.680  13.125  0.4527  0.3421  0.3201
 1798TIP3   OH226884   5.059   2.296   2.122  0.8740  0.3762 -0.1790
 1798TIP3    H126885   5.136   2.246   2.149 -0.1998 -0.9776  0.4801
 1798TIP3    H226886   5.030   2.340   2.202 -0.5889 -1.2941  0.2751
 1799TIP3   OH226887   4.944   3.680   0.262  0.4503  0.7398  0.1728
 1799TIP3    H126888   4.874   3.616   0.274  0.7418  0.5327  0.8116
 1799TIP3    H226889   4.904   3.750   0.210 -0.5025  1.0550  1.2887
 1800TIP3   OH226890   2.645   4.854  12.678 -0.1527 -0.8531 -0.5190
 1800TIP3    H126891   2.555   4.825  12.693 -0.8136 -0.0232 -2.5902
 1800TIP3    H226892   2.639   4.912  12.603  1.6624  1.7127  1.1469
 1801TIP3   OH226893   4.682   5.910  15.204  0.5429 -0.0343 -0.2824
 1801TIP3    H126894   4.588   5.918  15.222  0.4814  0.7800 -0.8998
 1801TIP3    H226895   4.721   5.989  15.242  0.9472 -0.2736 -0.2003
 1802TIP3   OH226896   2.463   5.863   0.421  0.6772 -0.6298  0.2582
 1802TIP3    H126897   2.396   5.875   0.488 -0.6793  0.0982 -1.1460
 1802TIP3    H226898   2.517   5.942   0.427 -0.2295  0.0601 -0.3197
 1803TIP3   OH226899   5.068   3.970  11.440  0.4676  0.0914  0.4786
 1803TIP3    H126900   5.021   4.001  11.517 -0.8605 -1.9537  0.5711
 1803TIP3    H226901   5.015   3.998  11.366  0.0473 -0.6740  0.4862
 1804TIP3   OH226902   0.676   5.001   2.774  0.0112  0.1469  0.3343
 1804TIP3    H126903   0.691   5.092   2.746  1.5439 -0.0639  0.3847
 1804TIP3    H226904   0.761   4.973   2.809 -0.7842 -0.8989  1.5019
 1805TIP3   OH226905   2.510   3.238   4.491 -0.1358  0.3595 -0.4001
 1805TIP3    H126906   2.554   3.306   4.543  1.6609 -0.2404 -1.0774
 1805TIP3    H226907   2.469   3.181   4.556 -0.9143  1.5670  0.2113
 1806TIP3   OH226908   1.026   6.181   5.234  0.1151 -0.0534 -0.1557
 1806TIP3    H126909   0.962   6.174   5.163 -1.0207 -2.3365  0.9983
 1806TIP3    H226910   1.000   6.260   5.281 -1.8864 -0.8734  0.2395
 1807TIP3   OH226911   5.326   5.820   2.522 -1.0521  0.2664  0.0676
 1807TIP3    H126912   5.255   5.879   2.547 -0.8132  1.3982 -1.7834
 1807TIP3    H226913   5.311   5.741   2.575 -2.3564  1.3216  1.3519
 1808TIP3   OH226914   3.135   2.037   1.677  0.0045 -0.4051 -0.3774
 1808TIP3    H126915   3.071   2.049   1.747 -1.1003 -0.1939 -1.3802
 1808TIP3    H226916   3.127   2.117   1.625  1.0246 -0.4248 -0.5705
 1809TIP3   OH226917   0.751   1.592   5.699 -0.0808  0.2617  0.0356
 1809TIP3    H126918   0.831   1.600   5.750 -0.9441 -0.6104  1.5959
 1809TIP3    H226919   0.722   1.502   5.713 -1.4107  0.5998 -0.3825
 1810TIP3   OH226920   4.541   4.751  15.846 -0.0530  0.9072  0.3384
 1810TIP3    H126921   4.483   4.732  15.773  0.1817 -1.8592  0.7554
 1810TIP3    H226922   4.625   4.775  15.806 -0.3649  0.9675 -0.2803
 1811TIP3   OH226923   0.228   0.727  12.249 -0.0845 -0.5522  0.9094
 1811TIP3    H126924   0.222   0.726  12.345  1.0697  0.5000  1.0287
 1811TIP3    H226925   0.300   0.667  12.228  0.1783 -0.1968  0.7715
 1812TIP3   OH226926   5.304   4.595  12.081 -0.1816  0.1705  0.5216
 1812TIP3    H126927   5.384   4.626  12.123  0.4784  2.0266 -1.9153
 1812TIP3    H226928   5.250   4.674  12.071 -0.4162 -0.2316 -1.7960
 1813TIP3   OH226929   0.890   5.230  14.685 -0.1062  0.0184  0.3307
 1813TIP3    H126930   0.811   5.226  14.630  0.0805  1.9468 -0.1416
 1813TIP3    H226931   0.931   5.314  14.663  1.1612 -0.1499  1.8443
 1814TIP3   OH226932   5.438   0.255   6.310  0.0527  0.4986  0.4847
 1814TIP3    H126933   5.423   0.173   6.357  0.9188 -0.3478 -0.6547
 1814TIP3    H226934   5.399   0.322   6.366 -0.9415 -0.7163  1.2972
 1815TIP3   OH226935   2.806   4.780  13.539  0.0010  0.5424  0.2151
 1815TIP3    H126936   2.742   4.748  13.475  0.5820  0.6201 -0.4239
 1815TIP3    H226937   2.891   4.758  13.500  0.3627  0.2963  1.1236
 1816TIP3   OH226938   5.277   6.026   3.961 -0.2327 -0.4636  0.1057
 1816TIP3    H126939   5.343   6.011   4.029 -1.3478  0.1195  1.3691
 1816TIP3    H226940   5.232   6.106   3.988 -0.7940 -0.2853 -1.2672
 1817TIP3   OH226941   0.117   4.226  12.979  0.3244  0.1102  0.4714
 1817TIP3    H126942   0.054   4.275  12.927 -0.5373 -1.9621 -0.5668
 1817TIP3    H226943   0.105   4.257  13.068  0.2357  2.1295 -0.1937
 1818TIP3   OH226944   1.076   5.900  16.677  0.4841 -0.0327  0.2240
 1818TIP3    H126945   1.168   5.887  16.655  0.0194 -0.9027 -1.3626
 1818TIP3    H226946   1.029   5.888  16.594 -1.2559 -1.9778  1.3716
 1819TIP3   OH226947   5.840   5.175  12.817 -0.6915  0.2468 -0.1268
 1819TIP3    H126948   5.830   5.107  12.884 -0.3790 -0.0657 -0.3918
 1819TIP3    H226949   5.764   5.162  12.760 -0.0343 -0.6533 -0.8423
 1820TIP3   OH226950   0.362   0.380  12.563  0.7399  0.3931  0.3746
 1820TIP3    H126951   0.290   0.375  12.626  1.0578 -0.9133  0.6626
 1820TIP3    H226952   0.417   0.452  12.595  0.2818  0.5027  0.9257
 1821TIP3   OH226953   3.312   1.599   1.164 -0.1775 -0.0018 -0.1731
 1821TIP3    H126954   3.353   1.563   1.085 -1.3424  0.3365 -0.9507
 1821TIP3    H226955   3.226   1.557   1.168 -0.4719  0.6440  0.4300
 1822TIP3   OH226956   3.466   1.215   4.817 -0.5898  0.3253 -0.0333
 1822TIP3    H126957   3.534   1.228   4.883 -1.8657 -0.1314  1.4292
 1822TIP3    H226958   3.508   1.164   4.748 -0.7099 -5.1418  3.3389
 1823TIP3   OH226959   1.072   5.155   2.547 -0.0445 -0.1132  0.4293
 1823TIP3    H126960   1.015   5.123   2.617  1.3327  1.1522  2.2495
 1823TIP3    H226961   1.090   5.246   2.571  0.1081  0.5270 -1.8751
 1824TIP3   OH226962   0.767   3.004   5.825  0.1314 -0.5167  0.2105
 1824TIP3    H126963   0.808   2.961   5.901 -2.4154 -1.1327  1.3454
 1824TIP3    H226964   0.794   3.095   5.832  1.1894 -0.8587  0.9550
 1825TIP3   OH226965   0.308   4.700   6.001  0.6576  0.5201  0.4560
 1825TIP3    H126966   0.307   4.773   5.938  1.3783  0.7970  0.7556
 1825TIP3    H226967   0.215   4.680   6.016  0.0857  4.3055  3.7095
 1826TIP3   OH226968   4.644   5.832  14.588  0.3550  0.1564  0.7960
 1826TIP3    H126969   4.624   5.824  14.495  0.6459 -0.4725  0.7811
 1826TIP3    H226970   4.568   5.878  14.625  1.1948  2.3828 -0.0885
 1827TIP3   OH226971   3.034   6.069   1.290 -0.2145 -0.1103  1.0767
 1827TIP3    H126972   2.987   6.141   1.332 -1.5176 -0.4699  0.3044
 1827TIP3    H226973   2.988   6.055   1.208  1.6735 -0.0695 -0.0449
 1828TIP3   OH226974   3.141   3.650  13.843  0.1351 -0.5718  0.1694
 1828TIP3    H126975   3.183   3.645  13.930  2.2521 -0.2336 -0.7667
 1828TIP3    H226976   3.167   3.568  13.800 -2.1805 -1.4716  0.3163
 1829TIP3   OH226977   1.978   5.993  11.425 -0.1388 -0.0826 -0.3372
 1829TIP3    H126978   2.011   6.023  11.340  1.4165 -0.0146  0.2569
 1829TIP3    H226979   1.947   5.904  11.408  1.0231 -0.4203 -0.8022
 1830TIP3   OH226980   4.013   1.926  10.677  0.1345  0.4954  0.4730
 1830TIP3    H126981   4.097   1.968  10.659  0.1216  0.7433  0.9816
 1830TIP3    H226982   3.953   1.999  10.695 -0.5155  0.4140 -1.1366
 1831TIP3   OH226983   3.168   1.212   3.530 -0.1993 -0.0223  0.2511
 1831TIP3    H126984   3.096   1.149   3.529 -1.3664  1.2024  2.2222
 1831TIP3    H226985   3.215   1.195   3.448 -2.3130 -1.3040 -0.7849
 1832TIP3   OH226986   4.934   6.116   5.501 -0.4570 -0.0088  0.3793
 1832TIP3    H126987   4.874   6.082   5.567 -0.0046  1.9441  1.8995
 1832TIP3    H226988   4.883   6.117   5.421 -1.9226  0.0406  1.2701
 1833TIP3   OH226989   3.338   0.632   2.227 -0.2493  0.2637 -0.1388
 1833TIP3    H126990   3.419   0.582   2.237 -0.4288 -0.0375 -0.1787
 1833TIP3    H226991   3.272   0.567   2.200 -0.3990  0.5887 -0.5612
 1834TIP3   OH226992   5.649   3.475  10.760 -0.2489  0.8263 -0.4694
 1834TIP3    H126993   5.719   3.458  10.696 -2.3294 -1.2958 -2.3931
 1834TIP3    H226994   5.572   3.493  10.706 -1.5022  1.8024  1.5439
 1835TIP3   OH226995   2.380   3.026   0.667  0.5109 -0.0571 -0.7269
 1835TIP3    H126996   2.395   2.933   0.685 -0.9834 -0.4686 -1.4671
 1835TIP3    H226997   2.301   3.048   0.715 -0.2290  0.3108 -2.0477
 1836TIP3   OH226998   5.206   1.902  11.143 -0.4299  0.0291 -0.0715
 1836TIP3    H126999   5.252   1.845  11.081  0.0885  0.7112 -0.3241
 1836TIP3    H227000   5.117   1.868  11.145 -0.6995  0.5388 -1.8750
 1837TIP3   OH227001   3.754   5.145  12.515  0.7789 -0.2053  0.3596
 1837TIP3    H127002   3.666   5.168  12.486  1.5212  1.3228 -0.8457
 1837TIP3    H227003   3.790   5.227  12.548  2.4324 -0.3079 -1.0632
 1838TIP3   OH227004   1.406   6.096  11.490 -0.2496 -0.5766  0.6730
 1838TIP3    H127005   1.475   6.088  11.557  1.3254 -0.3953 -0.8451
 1838TIP3    H227006   1.402   6.009  11.450  1.4346  0.1973 -1.3649
 1839TIP3   OH227007   1.539   3.484  13.618  0.4457 -0.3143  0.4683
 1839TIP3    H127008   1.508   3.396  13.598  0.4336 -0.4003  0.8678
 1839TIP3    H227009   1.563   3.481  13.711 -0.0399  0.2467  0.6156
 1840TIP3   OH227010   0.215   0.640  14.045 -0.5451 -0.7139 -0.2826
 1840TIP3    H127011   0.264   0.573  14.092  3.5966  1.4513 -0.9765
 1840TIP3    H227012   0.222   0.718  14.100  0.9722  0.8442 -2.4909
 1841TIP3   OH227013   4.798   6.722  16.442 -0.0308 -0.5685  0.4749
 1841TIP3    H127014   4.755   6.798  16.402  0.2571 -1.0095 -0.7021
 1841TIP3    H227015   4.745   6.648  16.415  0.7742 -0.9887  0.0147
 1842TIP3   OH227016   3.110   1.601  11.761 -0.8621  0.7019 -0.2855
 1842TIP3    H127017   3.200   1.575  11.739 -0.5860  0.2795  1.2078
 1842TIP3    H227018   3.078   1.530  11.816 -2.3496  0.5544 -1.2989
 1843TIP3   OH227019   0.822   0.681   5.820 -0.0376 -0.1292 -0.8297
 1843TIP3    H127020   0.812   0.678   5.916 -2.5565  1.0560 -0.9730
 1843TIP3    H227021   0.839   0.590   5.796 -0.5517 -0.6677  0.6654
 1844TIP3   OH227022   1.985   1.072   0.849 -0.0871  0.0269  0.0553
 1844TIP3    H127023   2.057   1.098   0.792  0.3884 -1.8053 -0.2514
 1844TIP3    H227024   1.923   1.145   0.846  1.3791  1.2939 -0.3054
 1845TIP3   OH227025   1.382   6.025   1.834  0.2492 -0.1501 -0.7741
 1845TIP3    H127026   1.399   5.992   1.746  1.3489 -1.5108 -0.0956
 1845TIP3    H227027   1.452   5.988   1.888 -0.2597  0.8335  0.6361
 1846TIP3   OH227028   4.664   0.205   2.438  0.7563  0.3017 -0.0900
 1846TIP3    H127029   4.708   0.130   2.478  2.2107  0.2232 -1.7107
 1846TIP3    H227030   4.735   0.258   2.403 -0.3979  0.3914 -2.4511
 1847TIP3   OH227031   1.222   0.117   2.526 -0.0217  0.1039 -0.1970
 1847TIP3    H127032   1.144   0.062   2.534  1.2798 -2.1123 -1.4354
 1847TIP3    H227033   1.203   0.175   2.452 -0.0210 -1.4681 -1.5116
 1848TIP3   OH227034   5.061   5.506  17.135 -0.0417  0.2647  0.2560
 1848TIP3    H127035   5.143   5.552  17.118 -0.3496  0.4154 -0.9070
 1848TIP3    H227036   5.079   5.452  17.212  0.8266  1.0807  0.6413
 1849TIP3   OH227037   5.756   4.018   0.787 -0.2853 -0.4508 -0.0379
 1849TIP3    H127038   5.791   3.933   0.761 -0.5692 -0.5130 -0.2186
 1849TIP3    H227039   5.823   4.054   0.845  0.8264  0.1516 -1.6523
 1850TIP3   OH227040   3.538   5.425   0.885 -0.4367 -1.3178 -0.3510
 1850TIP3    H127041   3.590   5.347   0.867 -0.8054 -1.3074 -1.5221
 1850TIP3    H227042   3.595   5.480   0.940  0.8386 -1.2520 -1.6997
 1851TIP3   OH227043   6.649   1.496  17.090  0.1329 -0.3842  0.0878
 1851TIP3    H127044   6.631   1.403  17.080  2.9873 -0.7308 -3.8171
 1851TIP3    H227045   6.575   1.539  17.048 -0.5704 -0.8720  0.7841
 1852TIP3   OH227046   0.175   0.025   1.915 -0.6257 -0.3493  0.0451
 1852TIP3    H127047   0.235   0.078   1.862 -0.6640 -0.5941 -0.2443
 1852TIP3    H227048   0.122   0.089   1.963  0.3549 -0.1182  0.8758
 1853TIP3   OH227049   6.520   5.171  15.324  0.1030  0.1622  0.3097
 1853TIP3    H127050   6.467   5.143  15.249  0.7904  1.0797 -0.5454
 1853TIP3    H227051   6.597   5.114  15.322  0.7246  1.0027 -0.4584
 1854TIP3   OH227052   3.994   6.107  15.521  0.3209 -0.7431 -0.1498
 1854TIP3    H127053   3.924   6.134  15.461 -0.3545 -3.0055 -0.4512
 1854TIP3    H227054   3.965   6.137  15.607  0.5234  1.0829 -0.6552
 1855TIP3   OH227055   0.918   5.833   5.027  0.0024 -0.2032  0.7770
 1855TIP3    H127056   0.860   5.860   5.098 -0.3755 -0.1953  0.4662
 1855TIP3    H227057   0.903   5.739   5.018 -1.0509  0.0462 -0.2778
 1856TIP3   OH227058   0.743   1.971  13.782  0.2123  0.5247 -0.2151
 1856TIP3    H127059   0.783   1.980  13.868 -2.3348  0.3421  1.0944
 1856TIP3    H227060   0.740   1.877  13.767 -2.6010  0.2497  1.3006
 1857TIP3   OH227061   5.305   1.029   3.474 -0.6296  0.0076 -0.4027
 1857TIP3    H127062   5.280   1.116   3.506  0.3325 -0.1720  0.8837
 1857TIP3    H227063   5.388   1.044   3.429 -1.9198  0.2483 -2.9014
 1858TIP3   OH227064   6.020   1.268  14.205  0.2631  0.0833 -0.0017
 1858TIP3    H127065   6.106   1.230  14.188 -0.3251 -0.4854 -2.0345
 1858TIP3    H227066   5.986   1.218  14.279  1.6063  0.2275  0.7423
 1859TIP3   OH227067   6.556   5.567   3.434  0.2610  0.4069 -0.3153
 1859TIP3    H127068   6.537   5.576   3.527 -1.0111 -1.8534 -0.2780
 1859TIP3    H227069   6.513   5.641   3.393  0.6909  1.3358  0.8418
 1860TIP3   OH227070   3.970   1.480   3.067 -0.2787 -0.1201 -0.6649
 1860TIP3    H127071   4.010   1.561   3.099 -3.0956  1.1138  0.1380
 1860TIP3    H227072   4.021   1.410   3.106  1.3944  1.2920 -0.2043
 1861TIP3   OH227073   2.163   6.806  14.805 -0.3890 -0.3125  0.4627
 1861TIP3    H127074   2.233   6.772  14.749 -1.7013 -0.4678 -1.1697
 1861TIP3    H227075   2.207   6.863  14.867  0.9891  1.3383 -1.8864
 1862TIP3   OH227076   0.655   0.694   2.980  0.3855  0.2061  0.2323
 1862TIP3    H127077   0.712   0.652   2.916 -0.4672 -1.1609  0.3311
 1862TIP3    H227078   0.705   0.689   3.062 -0.0327 -1.4429  0.4261
 1863TIP3   OH227079   3.750   2.633  14.945  0.3803 -1.1283 -0.5051
 1863TIP3    H127080   3.689   2.681  14.889 -0.7183  0.1240  1.6359
 1863TIP3    H227081   3.696   2.599  15.017  1.8338 -2.0545  0.2072
 1864TIP3   OH227082   4.562   0.538   3.188 -0.4281 -0.6679  0.2268
 1864TIP3    H127083   4.561   0.575   3.276  1.5954  1.0014 -0.3708
 1864TIP3    H227084   4.645   0.489   3.184 -0.0344  0.0558 -0.9996
 1865TIP3   OH227085   1.556   4.667  14.030  0.0347 -0.2141 -0.2386
 1865TIP3    H127086   1.519   4.748  14.065 -1.1280 -1.4004  1.4860
 1865TIP3    H227087   1.532   4.668  13.938  0.7639  1.7592 -0.4549
 1866TIP3   OH227088   5.587   6.211  13.517  0.0855  0.5698 -0.2715
 1866TIP3    H127089   5.652   6.259  13.466 -0.3058  0.1307 -1.2035
 1866TIP3    H227090   5.631   6.192  13.600  0.4278  2.0449 -0.0951
 1867TIP3   OH227091   1.580   6.228  14.919  0.2756 -0.4290 -0.5958
 1867TIP3    H127092   1.613   6.153  14.868 -0.4373 -1.1220 -0.0675
 1867TIP3    H227093   1.592   6.202  15.010 -0.9979 -0.3889 -0.3913
 1868TIP3   OH227094   5.845   5.058   3.223  0.1309  0.1564  0.6465
 1868TIP3    H127095   5.868   5.043   3.314 -0.3677  0.5479  0.8338
 1868TIP3    H227096   5.900   5.132   3.196  2.0497 -1.4078 -0.0707
 1869TIP3   OH227097   3.113   6.252  13.022  0.1210 -0.4528 -0.7643
 1869TIP3    H127098   3.034   6.281  13.067  1.3325 -0.1176  1.2517
 1869TIP3    H227099   3.141   6.328  12.970 -0.6930 -0.4827 -1.2647
 1870TIP3   OH227100   1.596   4.855  11.897 -0.1315 -0.6280  0.2519
 1870TIP3    H127101   1.620   4.942  11.929 -1.5746 -0.4694  0.9955
 1870TIP3    H227102   1.678   4.819  11.863  0.2156  1.6693 -1.6829
 1871TIP3   OH227103   6.617   5.926  12.263  0.0839 -0.2876  0.4665
 1871TIP3    H127104   6.690   5.931  12.324 -1.3619 -0.0041  2.2906
 1871TIP3    H227105   6.624   6.005  12.209  1.7252 -0.8438 -0.1747
 1872TIP3   OH227106   3.587   3.395  13.442  0.2829 -0.1401 -0.1524
 1872TIP3    H127107   3.663   3.390  13.501  1.0296  2.1522 -0.8134
 1872TIP3    H227108   3.516   3.353  13.491  0.9670  1.2404  2.2352
 1873TIP3   OH227109   2.164   5.888   4.330  0.2766  0.8161 -0.3308
 1873TIP3    H127110   2.232   5.882   4.397  0.6740  1.7250 -0.6286
 1873TIP3    H227111   2.165   5.980   4.304  0.1663  0.4704 -1.6209
 1874TIP3   OH227112   6.315   3.593   2.828 -0.5682  0.0753  0.0241
 1874TIP3    H127113   6.232   3.596   2.876 -0.2875 -3.2575  0.9841
 1874TIP3    H227114   6.377   3.557   2.891  0.5598 -1.4807 -1.8752
 1875TIP3   OH227115   2.040   5.195  16.403 -0.5084  0.1450  0.1452
 1875TIP3    H127116   1.958   5.199  16.452 -0.7941 -1.8637 -0.1116
 1875TIP3    H227117   2.013   5.176  16.313  0.2316 -0.1651 -0.0126
 1876TIP3   OH227118   0.548   5.135   4.310 -0.3678  0.1415  0.2733
 1876TIP3    H127119   0.627   5.178   4.343  1.4671 -1.1288 -2.0734
 1876TIP3    H227120   0.552   5.148   4.215 -1.8243 -1.7786 -0.1061
 1877TIP3   OH227121   5.994   6.496  13.577 -0.1284  0.3300  0.6192
 1877TIP3    H127122   6.076   6.462  13.539 -2.1339 -1.1938 -2.8474
 1877TIP3    H227123   5.957   6.421  13.623 -0.2663  0.5915  0.9338
 1878TIP3   OH227124   4.297   6.818  10.526 -0.3248  0.3402  0.1018
 1878TIP3    H127125   4.230   6.758  10.560 -0.0216  0.7281  1.4500
 1878TIP3    H227126   4.291   6.895  10.582  2.8235 -0.5547  1.8728
 1879TIP3   OH227127   3.179   1.794   4.575  0.2737  0.3077 -0.0397
 1879TIP3    H127128   3.226   1.782   4.657 -0.3804  0.1159  0.3054
 1879TIP3    H227129   3.232   1.747   4.510  0.5293  0.0468  0.3553
 1880TIP3   OH227130   5.353   6.461  15.004  0.4082  0.1109  0.4622
 1880TIP3    H127131   5.416   6.519  14.961 -1.3465  1.0932 -0.8953
 1880TIP3    H227132   5.273   6.512  15.010 -0.5711 -1.4317  1.2815
 1881TIP3   OH227133   2.926   5.488  11.429 -0.4085  0.3162 -0.0830
 1881TIP3    H127134   2.898   5.577  11.449  1.8738  1.0514  0.1246
 1881TIP3    H227135   2.980   5.463  11.503  1.3996 -0.0705 -1.4556
 1882TIP3   OH227136   5.435   5.661   3.338  0.0582  0.3728  0.1225
 1882TIP3    H127137   5.497   5.631   3.272 -1.2952 -2.1775 -0.1130
 1882TIP3    H227138   5.463   5.616   3.418 -0.4867  0.5344  0.4056
 1883TIP3   OH227139   4.171   6.738   0.767  0.6030 -0.2686 -0.1983
 1883TIP3    H127140   4.095   6.702   0.812 -0.6072  1.5650 -0.6484
 1883TIP3    H227141   4.210   6.663   0.722 -1.7584 -1.0865 -1.0817
 1884TIP3   OH227142   1.699   3.660   1.106 -0.3491 -0.3728 -0.0418
 1884TIP3    H127143   1.661   3.572   1.111 -0.8817 -0.1369  0.1806
 1884TIP3    H227144   1.774   3.651   1.048  0.4370 -1.2732  1.0706
 1885TIP3   OH227145   6.337   2.623   4.519  0.3154  0.3959  0.3442
 1885TIP3    H127146   6.250   2.660   4.509 -0.3445 -1.0232  0.5405
 1885TIP3    H227147   6.339   2.549   4.458  0.8741 -0.4288  1.3209
 1886TIP3   OH227148   3.372   6.674   2.202  0.0764 -0.6198  0.0512
 1886TIP3    H127149   3.421   6.735   2.257  1.7460 -0.1451 -1.8287
 1886TIP3    H227150   3.288   6.718   2.187  0.2490  0.0048  0.8198
 1887TIP3   OH227151   4.385   0.921   5.824  0.2180 -0.2649  0.5450
 1887TIP3    H127152   4.360   0.841   5.778 -0.2058  0.4125 -0.4449
 1887TIP3    H227153   4.309   0.944   5.876  0.0141 -0.0550  0.1646
 1888TIP3   OH227154   3.265   3.256  12.358 -0.0476  0.2510 -0.5797
 1888TIP3    H127155   3.266   3.351  12.362  2.6782  0.2836  0.4466
 1888TIP3    H227156   3.286   3.227  12.447  0.5448 -1.2368 -1.1518
 1889TIP3   OH227157   1.248   5.591   4.051  0.0241  0.1506  0.4123
 1889TIP3    H127158   1.160   5.629   4.043 -2.0141 -3.8701  0.9037
 1889TIP3    H227159   1.260   5.577   4.145 -0.4590 -2.4017  0.1797
 1890TIP3   OH227160   4.272   5.605  13.378  0.2211 -0.0284 -0.5672
 1890TIP3    H127161   4.209   5.534  13.365 -1.5547  1.3050  0.2031
 1890TIP3    H227162   4.320   5.580  13.458 -1.7875  0.5034  0.8946
 1891TIP3   OH227163   0.629   1.717  14.239  0.1580  0.1233  0.3309
 1891TIP3    H127164   0.564   1.769  14.286  0.9813  0.2135  1.3839
 1891TIP3    H227165   0.626   1.631  14.281 -1.9015 -1.0947 -2.0238
 1892TIP3   OH227166   1.190   5.891   4.157 -0.1924 -0.1866 -0.3684
 1892TIP3    H127167   1.190   5.978   4.198 -1.6008  0.5375 -1.7874
 1892TIP3    H227168   1.123   5.842   4.204  2.1991 -1.3927  2.0209
 1893TIP3   OH227169   6.431   0.680  16.867 -0.5377 -0.2508  0.2002
 1893TIP3    H127170   6.406   0.688  16.960 -0.8235 -0.9463  0.1868
 1893TIP3    H227171   6.379   0.747  16.823  1.4436  1.8380  0.8542
 1894TIP3   OH227172   3.541   3.447   0.409 -1.0309  0.0327  0.0348
 1894TIP3    H127173   3.541   3.541   0.395  0.8247  0.1941  0.8785
 1894TIP3    H227174   3.584   3.435   0.494  0.5031 -1.6432 -0.9117
 1895TIP3   OH227175   3.073   3.850  15.116 -0.0029  0.6588 -0.8647
 1895TIP3    H127176   3.148   3.818  15.065  2.3155  0.3769  2.3732
 1895TIP3    H227177   3.031   3.771  15.149 -0.5723  0.8463 -1.1369
 1896TIP3   OH227178   1.217   3.855  16.624 -0.3460 -0.2503 -0.0851
 1896TIP3    H127179   1.201   3.790  16.556  0.4508 -1.8417  1.1907
 1896TIP3    H227180   1.135   3.859  16.673 -1.4499  1.9835 -1.9083
 1897TIP3   OH227181   6.313   2.812  12.888  0.2728  0.2672 -0.1291
 1897TIP3    H127182   6.338   2.819  12.796  1.6028 -0.1983  0.1720
 1897TIP3    H227183   6.375   2.868  12.934 -0.9912  1.2672  0.4184
 1898TIP3   OH227184   5.055   0.664   3.819  0.0983 -0.4900  0.3606
 1898TIP3    H127185   4.991   0.614   3.869  0.3053 -0.7323  0.3831
 1898TIP3    H227186   5.138   0.619   3.834  0.4080  0.2404  0.9196
 1899TIP3   OH227187   0.250   1.872  15.763 -0.0545 -0.5271 -0.1483
 1899TIP3    H127188   0.179   1.932  15.784  0.0976 -0.1903 -0.5711
 1899TIP3    H227189   0.248   1.807  15.833 -0.8833 -0.6178 -0.2530
 1900TIP3   OH227190   5.656   5.967  16.601 -0.6081 -0.1428  0.2318
 1900TIP3    H127191   5.665   6.050  16.554  0.4138 -1.4751 -2.1009
 1900TIP3    H227192   5.590   5.919  16.552  0.3958 -1.5448  0.1834
 1901TIP3   OH227193   4.161   4.236  17.207 -0.0913 -0.0035  0.1199
 1901TIP3    H127194   4.072   4.214  17.234  0.0535 -2.1959 -0.9760
 1901TIP3    H227195   4.174   4.326  17.238 -2.5710  0.2859  0.5173
 1902TIP3   OH227196   4.243   2.059  10.402  0.4636  0.4566 -0.0416
 1902TIP3    H127197   4.213   2.007  10.477 -0.5438  0.9030 -0.1247
 1902TIP3    H227198   4.322   2.103  10.434  0.5863 -0.1044  0.4433
 1903TIP3   OH227199   0.691   1.403   3.246  0.0657 -0.7445  0.3503
 1903TIP3    H127200   0.730   1.483   3.209 -0.5006 -0.2200  0.8609
 1903TIP3    H227201   0.733   1.395   3.332 -0.2192 -0.7430  0.4877
 1904TIP3   OH227202   5.274   6.764  12.311  0.5572 -0.0708  0.0229
 1904TIP3    H127203   5.264   6.684  12.259 -0.3769 -0.1453  0.3002
 1904TIP3    H227204   5.356   6.803  12.280  1.5809 -1.6725  0.6379
 1905TIP3   OH227205   5.029   4.611   3.666  0.5665  0.5416 -0.2850
 1905TIP3    H127206   5.114   4.566   3.672  0.4666  0.2987 -0.6794
 1905TIP3    H227207   5.013   4.620   3.572 -1.6737 -2.9208 -0.4119
 1906TIP3   OH227208   3.941   2.825   4.141 -0.1822 -0.9439 -0.4159
 1906TIP3    H127209   4.021   2.815   4.191 -0.9231 -1.5257  0.6979
 1906TIP3    H227210   3.902   2.737   4.142 -1.1694 -0.5119 -0.3555
 1907TIP3   OH227211   2.800   3.849  10.896 -0.1550  0.0614 -0.1565
 1907TIP3    H127212   2.735   3.791  10.857  0.5938 -1.2128  0.4326
 1907TIP3    H227213   2.782   3.846  10.990 -1.5258  2.5955 -0.2433
 1908TIP3   OH227214   4.701   2.657  15.854 -0.0818 -0.1964  0.3407
 1908TIP3    H127215   4.748   2.597  15.912  1.1243 -0.7390 -1.1330
 1908TIP3    H227216   4.705   2.616  15.768  1.1408  2.1514 -0.8192
 1909TIP3   OH227217   1.435   0.359   0.921  0.2972 -0.4701  0.0313
 1909TIP3    H127218   1.349   0.325   0.943 -0.4477  1.2809 -0.0249
 1909TIP3    H227219   1.496   0.292   0.952 -0.9823 -0.8339  1.9038
 1910TIP3   OH227220   6.066   1.077   0.310 -0.7755  0.1464  0.0291
 1910TIP3    H127221   6.129   1.063   0.381  1.9622 -1.4733 -2.4419
 1910TIP3    H227222   6.035   0.989   0.288 -0.0970  0.3450 -1.9105
 1911TIP3   OH227223   3.190   1.599   0.871 -0.2983 -1.1943  0.2468
 1911TIP3    H127224   3.275   1.558   0.886 -0.6814 -1.4677  1.8425
 1911TIP3    H227225   3.205   1.659   0.798  0.6843 -2.8965 -1.0315
 1912TIP3   OH227226   2.908   5.247  14.350  0.5130  0.1446 -0.1859
 1912TIP3    H127227   2.925   5.295  14.269 -0.1902  0.7944  0.0432
 1912TIP3    H227228   2.846   5.301  14.398  0.6119 -0.4299  0.6140
 1913TIP3   OH227229   5.012   3.037   1.119 -0.2478  0.1477  0.2924
 1913TIP3    H127230   5.046   2.967   1.175  0.7030 -0.5438 -1.0959
 1913TIP3    H227231   5.080   3.051   1.053 -1.5537  0.5272 -1.0469
 1914TIP3   OH227232   6.466   0.142  11.293  0.4341 -0.2574 -0.0554
 1914TIP3    H127233   6.513   0.060  11.273  1.2459  0.3018 -0.4891
 1914TIP3    H227234   6.403   0.151  11.222  0.5869 -0.3198 -0.1996
 1915TIP3   OH227235   5.511   3.399   3.119 -0.1072 -0.3986 -0.9421
 1915TIP3    H127236   5.580   3.355   3.070  0.2919 -0.8103 -0.0331
 1915TIP3    H227237   5.450   3.430   3.052  2.6148  3.0144 -2.1509
 1916TIP3   OH227238   0.329   4.483  12.499  0.2007 -0.4208 -0.5000
 1916TIP3    H127239   0.389   4.557  12.491  0.1982 -0.4156 -0.4726
 1916TIP3    H227240   0.352   4.443  12.583 -0.6035  0.2718  0.0719
 1917TIP3   OH227241   2.673   3.777   2.033  0.1557 -0.3611 -0.1476
 1917TIP3    H127242   2.661   3.693   2.078  2.3543  0.4557  2.1805
 1917TIP3    H227243   2.606   3.777   1.965 -1.9710 -2.6450  1.7523
 1918TIP3   OH227244   0.515   2.712   4.760 -0.4302  0.7040  0.1517
 1918TIP3    H127245   0.611   2.714   4.767 -0.4951  0.5991  1.1495
 1918TIP3    H227246   0.497   2.635   4.706  0.0473  0.6487  0.0687
 1919TIP3   OH227247   6.281   2.407   4.801  0.8397 -0.0417  0.3380
 1919TIP3    H127248   6.188   2.384   4.792  0.9487 -0.0990 -0.9209
 1919TIP3    H227249   6.287   2.450   4.886 -0.6863  1.5572 -0.2780
 1920TIP3   OH227250   5.303   6.339  16.075 -0.2628 -0.3703 -0.4834
 1920TIP3    H127251   5.337   6.342  15.986  1.2217  0.5370  0.0687
 1920TIP3    H227252   5.287   6.246  16.092  2.0490 -0.8858 -0.7963
 1921TIP3   OH227253   3.558   4.245   5.955  0.1527  0.0033  0.3573
 1921TIP3    H127254   3.492   4.312   5.974  1.6020  1.1662  1.5005
 1921TIP3    H227255   3.604   4.278   5.877 -0.6774 -0.8907 -0.5432
 1922TIP3   OH227256   4.944   1.793   5.964  0.2823  0.4486 -0.3467
 1922TIP3    H127257   5.013   1.819   5.903 -1.1251  2.5008 -1.1706
 1922TIP3    H227258   4.863   1.811   5.918 -0.8376  0.9330  1.6932
 1923TIP3   OH227259   1.487   2.260   1.810 -0.4239 -0.0662  0.2552
 1923TIP3    H127260   1.497   2.355   1.802 -0.4241  0.1519  2.3227
 1923TIP3    H227261   1.410   2.239   1.757  1.1572  0.6097 -2.5331
 1924TIP3   OH227262   1.419   5.435  15.547  0.0760  0.0067 -0.3923
 1924TIP3    H127263   1.326   5.450  15.535  0.2445  0.4940 -1.1496
 1924TIP3    H227264   1.453   5.419  15.459  0.9002  0.9580 -0.2662
 1925TIP3   OH227265   6.406   6.171   6.037 -0.0961  0.1698 -0.3801
 1925TIP3    H127266   6.364   6.093   5.998 -0.5873  0.2110  0.0487
 1925TIP3    H227267   6.353   6.244   6.005 -0.5116  0.2044  0.3541
 1926TIP3   OH227268   4.378   5.397  11.418 -0.2933 -0.5319 -0.8368
 1926TIP3    H127269   4.417   5.404  11.505 -2.8430  0.9455  0.3228
 1926TIP3    H227270   4.414   5.316  11.381  0.6382 -1.3780  1.7221
 1927TIP3   OH227271   5.987   1.036  13.015  0.2609 -0.8989  0.3681
 1927TIP3    H127272   5.934   1.086  12.953  2.0778 -0.7151 -1.1124
 1927TIP3    H227273   6.063   1.091  13.032  0.3730 -1.4675  1.8711
 1928TIP3   OH227274   0.564   4.205  16.556 -0.1082 -0.3721 -0.0808
 1928TIP3    H127275   0.544   4.116  16.529  1.5337  0.0030 -3.0206
 1928TIP3    H227276   0.652   4.222  16.520 -0.4268  2.4577  0.2224
 1929TIP3   OH227277   5.225   3.970  14.092 -0.3610  0.5066  0.0545
 1929TIP3    H127278   5.186   4.056  14.106 -1.3245  0.2873 -1.1187
 1929TIP3    H227279   5.152   3.909  14.102 -0.4058  0.0902 -2.3839
 1930TIP3   OH227280   1.009   4.305  14.215 -0.1091  0.2345  0.2452
 1930TIP3    H127281   1.094   4.312  14.173  0.4294 -1.2978  0.9872
 1930TIP3    H227282   1.026   4.321  14.308 -0.7192  0.4411  0.3277
 1931TIP3   OH227283   3.740   6.836  15.100  0.2070  0.3429 -0.2952
 1931TIP3    H127284   3.749   6.822  15.194  0.1862  0.0102 -0.3423
 1931TIP3    H227285   3.830   6.849  15.069  0.4851 -2.0399 -0.6168
 1932TIP3   OH227286   1.627   5.199   1.116 -0.0620  0.5529 -0.2894
 1932TIP3    H127287   1.649   5.283   1.155 -2.3313  0.5659  1.1639
 1932TIP3    H227288   1.573   5.155   1.182  2.3051 -2.7664 -0.3123
 1933TIP3   OH227289   6.215   3.060   0.441  0.1117 -0.1196 -0.6827
 1933TIP3    H127290   6.310   3.070   0.448  0.0457  0.4931 -0.6387
 1933TIP3    H227291   6.180   3.147   0.458 -0.3999 -0.0836 -1.7933
 1934TIP3   OH227292   5.517   5.571   3.674 -0.5963  0.7868 -0.7963
 1934TIP3    H127293   5.550   5.643   3.727  1.2154 -0.1381 -0.6092
 1934TIP3    H227294   5.591   5.544   3.621 -0.9928 -1.4656 -0.2777
 1935TIP3   OH227295   6.729   1.228   3.368  0.5977  0.2461  0.0764
 1935TIP3    H127296   6.800   1.275   3.323  1.5779  0.9267  2.2123
 1935TIP3    H227297   6.755   1.136   3.365  1.3567  0.4443  0.4437
 1936TIP3   OH227298   6.643   6.528  11.251 -0.4355 -0.4260 -0.0164
 1936TIP3    H127299   6.709   6.459  11.256 -1.0554 -1.1937 -1.5624
 1936TIP3    H227300   6.575   6.491  11.195 -1.0989  1.1969 -0.3318
 1937TIP3   OH227301   2.278   1.749   2.527  0.0304 -0.0268  0.1156
 1937TIP3    H127302   2.206   1.809   2.544 -0.8760 -1.2840  0.9179
 1937TIP3    H227303   2.356   1.803   2.530 -0.9229  1.6283 -2.1000
 1938TIP3   OH227304   1.620   3.126   2.846  0.2183 -0.2078 -0.0997
 1938TIP3    H127305   1.539   3.176   2.840 -0.6133 -1.4037  0.6994
 1938TIP3    H227306   1.656   3.149   2.932 -1.3739 -2.6312  1.3307
 1939TIP3   OH227307   3.987   3.359   3.283  0.0490 -0.5188 -0.5289
 1939TIP3    H127308   3.913   3.398   3.237 -0.2957 -0.4584  0.0676
 1939TIP3    H227309   3.985   3.398   3.370  0.2533 -1.1769 -0.2228
 1940TIP3   OH227310   1.384   3.623  13.230  0.2442 -0.2075  0.6638
 1940TIP3    H127311   1.476   3.642  13.211  0.0913 -0.0191  0.0997
 1940TIP3    H227312   1.345   3.608  13.144 -0.2331 -0.3806  0.9110
 1941TIP3   OH227313   1.719   5.847   1.844  0.1373  0.1614 -0.2170
 1941TIP3    H127314   1.792   5.786   1.855 -0.1748 -0.1735  0.0046
 1941TIP3    H227315   1.700   5.847   1.751  0.0634 -0.1633 -0.2005
 1942TIP3   OH227316   5.309   2.587   6.419 -0.2531 -0.1528 -1.0252
 1942TIP3    H127317   5.386   2.630   6.459 -1.1425  0.3334  0.2372
 1942TIP3    H227318   5.255   2.562   6.494 -0.5579 -2.0219 -1.8152
 1943TIP3   OH227319   4.725   2.603  11.353  0.1077 -0.1605 -0.3371
 1943TIP3    H127320   4.723   2.529  11.293  1.9596  0.5443 -1.3699
 1943TIP3    H227321   4.636   2.610  11.387 -0.2268 -2.5388 -0.5661
 1944TIP3   OH227322   3.949   1.341  12.866  0.6076  0.3274  0.1003
 1944TIP3    H127323   4.033   1.360  12.908  1.2299  1.7051 -1.6799
 1944TIP3    H227324   3.973   1.307  12.780 -0.6786  0.3537 -0.2771
 1945TIP3   OH227325   6.112   1.068  15.113 -0.1889  0.2812 -0.2546
 1945TIP3    H127326   6.100   1.144  15.170 -2.1008  0.6326 -1.0614
 1945TIP3    H227327   6.195   1.030  15.142 -0.1615  1.5297  1.4820
 1946TIP3   OH227328   5.362   2.553  16.618  0.1905  0.1636  0.3641
 1946TIP3    H127329   5.368   2.457  16.614  0.1897  0.1903 -0.5807
 1946TIP3    H227330   5.439   2.583  16.570  0.5232  0.6467  1.1915
 1947TIP3   OH227331   0.310   5.419  15.917  0.0655 -0.3949  0.4229
 1947TIP3    H127332   0.243   5.487  15.924 -1.5621 -1.9993  1.6337
 1947TIP3    H227333   0.379   5.458  15.864 -0.0721  2.7258  2.2655
 1948TIP3   OH227334   4.846   5.562  10.963 -0.1615  0.4294  0.5045
 1948TIP3    H127335   4.806   5.495  11.019 -0.1882  1.5651  1.9122
 1948TIP3    H227336   4.896   5.513  10.898 -0.0614 -0.9533  1.5808
 1949TIP3   OH227337   0.232   6.427  13.405  0.4683  0.2195 -0.0326
 1949TIP3    H127338   0.237   6.483  13.483  1.2765 -0.7050  0.6128
 1949TIP3    H227339   0.193   6.482  13.338  1.7223  1.7404  0.4271
 1950TIP3   OH227340   1.044   2.492   0.385  0.4329  0.1015 -0.1019
 1950TIP3    H127341   1.094   2.481   0.304 -0.2031 -0.0664 -0.4821
 1950TIP3    H227342   0.959   2.525   0.356 -0.0607 -0.6820  0.4325
 1951TIP3   OH227343   1.965   1.096  12.429 -0.0577 -0.2391 -0.6114
 1951TIP3    H127344   2.042   1.132  12.386 -0.1897 -1.1321 -1.6330
 1951TIP3    H227345   1.997   1.065  12.514  1.0315 -1.8796 -1.5823
 1952TIP3   OH227346   1.913   5.015   3.288 -0.1975  0.4912  0.0552
 1952TIP3    H127347   1.983   5.080   3.289  1.2012 -0.9377  0.0248
 1952TIP3    H227348   1.897   4.997   3.195 -0.5292  0.7362  0.0639
 1953TIP3   OH227349   6.416   4.756   2.681  0.6704 -0.1994 -0.0128
 1953TIP3    H127350   6.447   4.732   2.768  1.0929 -1.4466 -0.4768
 1953TIP3    H227351   6.491   4.799   2.639  0.9847 -0.9748 -0.2716
 1954TIP3   OH227352   5.891   0.322  16.671  0.0081 -0.6547 -0.4039
 1954TIP3    H127353   5.901   0.284  16.758  1.5575 -1.7852 -1.0315
 1954TIP3    H227354   5.979   0.321  16.634 -0.4063  0.8805 -1.5730
 1955TIP3   OH227355   4.834   6.007   2.678 -0.5027 -0.2859 -0.4982
 1955TIP3    H127356   4.921   5.973   2.656  0.2746  1.2498  0.0457
 1955TIP3    H227357   4.799   5.945   2.741  0.3305 -0.7707 -0.5013
 1956TIP3   OH227358   2.089   2.617   2.149  0.4384 -0.2842  0.2191
 1956TIP3    H127359   2.112   2.604   2.057  2.7240  1.9603  0.3516
 1956TIP3    H227360   2.013   2.675   2.147 -0.6032 -1.5993 -0.1942
 1957TIP3   OH227361   4.348   0.109   2.110 -0.5218  0.4411  0.3002
 1957TIP3    H127362   4.355   0.049   2.036  0.9393  0.8451  0.0752
 1957TIP3    H227363   4.416   0.081   2.171 -0.1208  1.5584  0.4012
 1958TIP3   OH227364   0.474   2.123  11.227  0.5201  0.1816  0.6278
 1958TIP3    H127365   0.519   2.203  11.201  0.6857 -0.4332 -1.0970
 1958TIP3    H227366   0.511   2.102  11.313 -1.2842  3.2201  2.3344
 1959TIP3   OH227367   6.257   0.203  11.495  0.0368  0.6025 -0.0937
 1959TIP3    H127368   6.178   0.225  11.545 -0.1916 -1.0270  0.3053
 1959TIP3    H227369   6.269   0.278  11.437 -1.1076  1.4324  0.6722
 1960TIP3   OH227370   0.791   5.787   2.866  0.1587  0.2964 -0.1409
 1960TIP3    H127371   0.821   5.875   2.844 -1.0034  0.7080 -0.1019
 1960TIP3    H227372   0.712   5.799   2.917  0.2394 -0.7671  0.2733
 1961TIP3   OH227373   2.129   0.055   3.072  0.2446 -0.3974 -0.0118
 1961TIP3    H127374   2.082  -0.022   3.042 -0.7277 -0.7177  2.1452
 1961TIP3    H227375   2.062   0.110   3.112  1.0135  1.3204 -0.9690
 1962TIP3   OH227376   5.417   1.580  11.775  0.4391  0.2663  0.0162
 1962TIP3    H127377   5.441   1.490  11.755 -0.3120  0.2837 -1.0575
 1962TIP3    H227378   5.451   1.595  11.863  1.0728 -0.8750 -0.0138
 1963TIP3   OH227379   1.399   3.893  11.674 -0.7623  0.2485 -0.5998
 1963TIP3    H127380   1.382   3.963  11.611 -0.1898  0.9816  0.0298
 1963TIP3    H227381   1.468   3.841  11.634  0.0241  1.0640 -0.3343
 1964TIP3   OH227382   1.880   3.637   5.105 -0.0648  0.1141 -0.2371
 1964TIP3    H127383   1.930   3.615   5.184 -0.6299 -0.9707 -0.1776
 1964TIP3    H227384   1.800   3.678   5.138 -1.2258 -2.1054 -0.1086
 1965TIP3   OH227385   2.427   1.747  16.478 -0.6347  0.3531 -0.4580
 1965TIP3    H127386   2.481   1.763  16.400 -0.2993  0.2557 -0.2462
 1965TIP3    H227387   2.489   1.736  16.549 -0.9661  1.2231 -0.0231
 1966TIP3   OH227388   2.248   6.806   5.015 -0.0004 -0.2396 -0.2913
 1966TIP3    H127389   2.215   6.824   5.103  2.2730  1.3297  0.3041
 1966TIP3    H227390   2.196   6.862   4.958 -0.0258  0.3631  0.3187
 1967TIP3   OH227391   6.827   0.097  14.475 -0.0156  0.0452  0.4133
 1967TIP3    H127392   6.784   0.087  14.560  0.3115 -0.1570  0.5556
 1967TIP3    H227393   6.913   0.056  14.486  0.1473  0.2905  0.0779
 1968TIP3   OH227394   4.994   1.120  12.151 -0.4145  0.0556  0.6991
 1968TIP3    H127395   4.925   1.178  12.184  0.4783  1.5722  0.0229
 1968TIP3    H227396   4.955   1.033  12.150 -2.5724  0.9808 -0.3680
 1969TIP3   OH227397   5.486   2.806  13.173 -0.9433 -0.3316 -0.0767
 1969TIP3    H127398   5.420   2.782  13.108 -0.8574 -1.3648  0.2038
 1969TIP3    H227399   5.509   2.724  13.215 -1.2319  0.3627  1.4947
 1970TIP3   OH227400   5.382   1.844   2.627  0.3723 -0.3287  0.3274
 1970TIP3    H127401   5.393   1.938   2.639  0.9408 -0.2843 -0.4650
 1970TIP3    H227402   5.341   1.814   2.708  1.8515  0.3180  1.3676
 1971TIP3   OH227403   2.333   5.083  12.068 -0.1300 -0.4440  0.2561
 1971TIP3    H127404   2.254   5.030  12.057 -0.7894  0.8807 -2.0147
 1971TIP3    H227405   2.348   5.084  12.163 -2.6165 -1.0211  0.7253
 1972TIP3   OH227406   1.738   3.494   4.306 -0.1352  0.3457  0.3045
 1972TIP3    H127407   1.791   3.425   4.267 -0.1200  0.3654  0.2906
 1972TIP3    H227408   1.650   3.480   4.271  0.2360  1.4407 -1.1478
 1973TIP3   OH227409   1.641   6.314   2.684 -0.0476 -0.2256  0.0547
 1973TIP3    H127410   1.611   6.401   2.658  0.4767 -0.2190 -0.5542
 1973TIP3    H227411   1.627   6.311   2.779 -0.3896  0.3890  0.0281
 1974TIP3   OH227412   1.175   0.761  13.178  0.4879 -0.7507  0.8027
 1974TIP3    H127413   1.124   0.840  13.196  1.1091  0.0221 -0.6250
 1974TIP3    H227414   1.247   0.763  13.241  0.6824  0.0033  0.5598
 1975TIP3   OH227415   6.029   5.329  14.308 -0.2592  0.1332  0.5590
 1975TIP3    H127416   5.936   5.307  14.301  0.4084 -2.6212 -1.7370
 1975TIP3    H227417   6.041   5.402  14.248 -0.7556 -0.4095 -0.2299
 1976TIP3   OH227418   4.902   3.677  15.895  0.4004  0.0742 -0.0263
 1976TIP3    H127419   4.921   3.712  15.983  0.2441  0.3146 -0.0891
 1976TIP3    H227420   4.981   3.697  15.844  0.7419 -0.6055  0.2185
 1977TIP3   OH227421   1.406   3.964  16.420  0.9286  0.1191  0.0530
 1977TIP3    H127422   1.462   3.979  16.497 -0.4459 -1.0432  1.3481
 1977TIP3    H227423   1.465   3.926  16.355  2.0691  0.8543  0.6255
 1978TIP3   OH227424   2.408   5.155  14.366  0.7938  0.0556  1.0105
 1978TIP3    H127425   2.365   5.241  14.368  0.9704  0.1668  0.3124
 1978TIP3    H227426   2.395   5.124  14.276  3.3238  0.7168  0.3414
 1979TIP3   OH227427   4.430   5.118  16.001  0.2230  0.1845 -0.3067
 1979TIP3    H127428   4.371   5.066  16.055  2.4766 -0.3351  1.8561
 1979TIP3    H227429   4.453   5.193  16.056 -1.2784  2.4689 -2.5538
 1980TIP3   OH227430   6.759   4.246   3.028  0.0738  0.2731  0.2718
 1980TIP3    H127431   6.721   4.281   2.948 -1.8955 -1.9615  0.1438
 1980TIP3    H227432   6.692   4.259   3.095  0.1508 -1.2729  0.6811
 1981TIP3   OH227433   1.108   1.656  14.931 -0.1225 -0.2103  0.6365
 1981TIP3    H127434   1.136   1.678  15.020  0.4005  0.3600  0.3425
 1981TIP3    H227435   1.190   1.635  14.886 -0.4304 -0.9231  0.4020
 1982TIP3   OH227436   0.337   1.075  13.930 -0.0464 -0.1730 -0.0347
 1982TIP3    H127437   0.345   1.117  14.016  1.6957 -0.1107 -0.1812
 1982TIP3    H227438   0.245   1.086  13.906 -1.0254 -1.7170  2.5644
 1983TIP3   OH227439   3.288   0.256  10.792 -0.0842 -0.9938  0.4266
 1983TIP3    H127440   3.309   0.349  10.787  1.0090 -1.2681 -0.4805
 1983TIP3    H227441   3.280   0.228  10.701  1.1729 -2.1125  0.6244
 1984TIP3   OH227442   4.026   1.259  12.209 -0.0866 -0.1597  0.3303
 1984TIP3    H127443   4.041   1.312  12.130 -1.3121  1.6810  1.2534
 1984TIP3    H227444   4.083   1.183  12.198 -0.5702 -0.2306 -2.5504
 1985TIP3   OH227445   1.804   5.509  13.425 -0.4445 -0.2306  0.2030
 1985TIP3    H127446   1.855   5.590  13.412  0.0373 -0.1938  2.1026
 1985TIP3    H227447   1.714   5.539  13.434 -0.3525  0.0320  0.2567
 1986TIP3   OH227448   0.131   5.878   4.277  0.3425  0.1610 -0.0657
 1986TIP3    H127449   0.197   5.947   4.277  0.0076  0.4905 -0.8397
 1986TIP3    H227450   0.180   5.797   4.258  0.9155 -0.0248  1.9639
 1987TIP3   OH227451   5.400   4.020   2.779 -0.1782 -0.0175 -0.2976
 1987TIP3    H127452   5.467   4.068   2.827  1.4361 -1.1296 -1.3485
 1987TIP3    H227453   5.423   3.928   2.792 -0.6210 -0.3806 -1.8643
 1988TIP3   OH227454   3.929   4.682   2.226 -0.5364 -0.4765 -0.3246
 1988TIP3    H127455   3.937   4.766   2.271  0.1191 -0.5689 -0.2509
 1988TIP3    H227456   3.841   4.681   2.189 -1.0894 -0.4113  0.9803
 1989TIP3   OH227457   1.598   4.209  14.089 -0.5750 -0.5007 -0.3280
 1989TIP3    H127458   1.687   4.217  14.123 -1.2968 -0.0831  1.5905
 1989TIP3    H227459   1.548   4.173  14.163 -1.9129 -1.1523 -1.5172
 1990TIP3   OH227460   3.202   5.664   1.414 -0.2151  0.8614 -0.4866
 1990TIP3    H127461   3.180   5.571   1.422  2.1183  0.3656  0.8201
 1990TIP3    H227462   3.120   5.705   1.384 -1.7040 -1.3716  0.2833
 1991TIP3   OH227463   3.826   5.383  13.976  0.4152 -0.3357  0.4018
 1991TIP3    H127464   3.781   5.299  13.977  0.7201 -0.5097 -0.0157
 1991TIP3    H227465   3.810   5.420  14.063 -0.3931 -0.4610  0.3193
 1992TIP3   OH227466   1.886   5.980   1.137  0.3102  0.4090  0.2497
 1992TIP3    H127467   1.979   5.956   1.141  0.3814 -0.0146 -2.3062
 1992TIP3    H227468   1.886   6.074   1.117  0.2758 -0.0250 -1.9631
 1993TIP3   OH227469   2.854   5.974  12.785  0.1052 -0.3161 -0.4330
 1993TIP3    H127470   2.814   5.897  12.825 -1.3348  0.7426  0.2399
 1993TIP3    H227471   2.906   5.939  12.712 -1.3129 -1.8188 -0.7719
 1994TIP3   OH227472   5.595   0.669  14.085 -0.3010  0.3837  0.3737
 1994TIP3    H127473   5.531   0.626  14.028 -1.5190  1.3556  0.9645
 1994TIP3    H227474   5.578   0.633  14.172  1.2698 -0.7774  0.2458
 1995TIP3   OH227475   0.921   0.238  13.815 -0.2797  0.0784  0.2222
 1995TIP3    H127476   0.828   0.260  13.823 -0.3366  0.0804 -0.3713
 1995TIP3    H227477   0.944   0.267  13.726  0.8478  2.1746  1.1107
 1996TIP3   OH227478   5.010   6.716   1.389 -0.2914 -0.4811 -0.1831
 1996TIP3    H127479   5.056   6.795   1.414  0.1721 -0.4034 -1.2201
 1996TIP3    H227480   4.917   6.739   1.395 -0.1599  0.0732 -0.2566
 1997TIP3   OH227481   4.183   5.461  16.154  0.1661  0.6544 -0.0450
 1997TIP3    H127482   4.227   5.465  16.239  0.2273 -0.7804  0.0204
 1997TIP3    H227483   4.091   5.449  16.176  0.2298 -0.1271 -0.1526
 1998TIP3   OH227484   0.005   6.537   3.545  0.0944 -0.5986  0.0654
 1998TIP3    H127485   0.007   6.483   3.466 -1.0046 -0.3835 -0.1328
 1998TIP3    H227486  -0.041   6.617   3.518  2.7656  1.0481 -0.0028
 1999TIP3   OH227487   2.223   2.143   3.598 -0.3283  0.1208 -0.1917
 1999TIP3    H127488   2.199   2.058   3.634  1.5701 -1.2540 -1.9282
 1999TIP3    H227489   2.160   2.158   3.528 -0.1229 -0.3389 -0.4847
 2000TIP3   OH227490   0.714   6.781   4.075 -0.0247 -0.1206  0.1643
 2000TIP3    H127491   0.681   6.751   4.160  1.7917  0.7189  1.2159
 2000TIP3    H227492   0.726   6.701   4.025  0.0854 -0.7455  1.1559
 2001TIP3   OH227493   1.116   0.830  14.525 -0.0848  0.3578  0.0389
 2001TIP3    H127494   1.201   0.790  14.543 -0.8894 -1.1442  0.7712
 2001TIP3    H227495   1.097   0.883  14.603  0.2857  0.9042 -0.2388
 2002TIP3   OH227496   0.478   1.257   1.066 -0.3035 -0.1432 -0.0585
 2002TIP3    H127497   0.427   1.178   1.054 -1.3477  0.3137  1.1869
 2002TIP3    H227498   0.413   1.326   1.079  0.6031  0.6179  0.6035
 2003TIP3   OH227499   6.426   5.669  12.806  0.0872 -0.1159 -0.3348
 2003TIP3    H127500   6.368   5.631  12.740  0.3296 -2.0244  0.4968
 2003TIP3    H227501   6.503   5.612  12.806  0.3303  0.1772  1.2101
 2004TIP3   OH227502   4.356   5.014  16.419 -0.0281  0.3799 -1.0291
 2004TIP3    H127503   4.431   4.955  16.424  0.3526  0.9587  1.2742
 2004TIP3    H227504   4.394   5.102  16.426 -0.9385  0.6414  1.8791
 2005TIP3   OH227505   2.626   3.642   0.781  0.5520 -0.0233 -0.0352
 2005TIP3    H127506   2.713   3.677   0.762  0.4457 -0.6197 -1.7584
 2005TIP3    H227507   2.566   3.711   0.753  0.4020 -0.8389 -1.9021
 2006TIP3   OH227508   1.388   4.992  12.261 -0.2231  0.6640 -0.3931
 2006TIP3    H127509   1.383   4.969  12.168 -0.9017  1.5926 -0.5992
 2006TIP3    H227510   1.482   5.006  12.277 -0.0308 -0.1343 -0.7727
 2007TIP3   OH227511   4.201   5.119   5.363  0.3373 -0.7196 -0.2339
 2007TIP3    H127512   4.138   5.183   5.329  0.7061  0.7710  1.7227
 2007TIP3    H227513   4.147   5.056   5.411  0.2122 -0.1793  0.3425
 2008TIP3   OH227514   4.782   6.077   6.100 -0.2459 -0.0073  0.9469
 2008TIP3    H127515   4.699   6.078   6.147 -0.6856 -0.4071  0.2000
 2008TIP3    H227516   4.849   6.073   6.169 -0.9126 -2.0898  1.5520
 2009TIP3   OH227517   4.322   5.122  11.237  0.5195  0.1339  0.1976
 2009TIP3    H127518   4.352   5.196  11.184  0.7516  0.2989  0.5558
 2009TIP3    H227519   4.346   5.044  11.186  3.5526  0.1370  1.4004
 2010TIP3   OH227520   3.688   0.800   4.721 -0.0711  0.0687 -0.0931
 2010TIP3    H127521   3.627   0.739   4.680  0.1930  0.4649 -1.1043
 2010TIP3    H227522   3.761   0.746   4.750 -0.2370 -0.2031 -0.1757
 2011TIP3   OH227523   4.537   5.776  15.740  0.3009  0.6941  0.0645
 2011TIP3    H127524   4.540   5.846  15.806  0.2070 -0.8580  1.7828
 2011TIP3    H227525   4.609   5.717  15.764 -1.0463 -1.0147  0.0999
 2012TIP3   OH227526   5.872   5.450   2.876  0.2455 -0.0658  0.6457
 2012TIP3    H127527   5.789   5.402   2.870 -1.1767  2.0492  2.1456
 2012TIP3    H227528   5.872   5.507   2.799  0.4684 -0.2737  0.4896
 2013TIP3   OH227529   6.736   6.625  11.736  0.2675 -0.4779 -0.4649
 2013TIP3    H127530   6.671   6.631  11.666 -1.5507 -2.9230  0.8406
 2013TIP3    H227531   6.714   6.697  11.795 -0.1153 -0.2135 -0.9144
 2014TIP3   OH227532   5.825   6.468  16.567 -0.0593  0.4064 -0.9762
 2014TIP3    H127533   5.849   6.386  16.523  1.3613  1.7708 -2.9397
 2014TIP3    H227534   5.864   6.537  16.513 -2.8359  2.5398 -0.5143
 2015TIP3   OH227535   2.318   5.681  14.247  0.0278  0.2516 -0.1905
 2015TIP3    H127536   2.396   5.668  14.193 -0.7912  1.5007 -1.7437
 2015TIP3    H227537   2.249   5.632  14.202 -0.1480 -0.8342  1.1689
 2016TIP3   OH227538   0.080   5.376   2.965  0.3715  0.0635  0.3217
 2016TIP3    H127539  -0.010   5.350   2.944 -0.2004  0.3419  2.2923
 2016TIP3    H227540   0.133   5.325   2.904 -0.9521 -2.5153  1.1485
 2017TIP3   OH227541   0.176   4.151  13.451  0.5285 -0.3005  0.0288
 2017TIP3    H127542   0.104   4.094  13.423  1.0633 -1.0123  0.0636
 2017TIP3    H227543   0.133   4.230  13.483 -0.2711 -0.9460  0.5941
 2018TIP3   OH227544   1.964   2.490   5.378  0.4070  0.2970 -0.4922
 2018TIP3    H127545   1.881   2.453   5.409  0.6426  0.2780  0.1359
 2018TIP3    H227546   1.939   2.561   5.319 -0.0537 -0.3274 -1.0631
 2019TIP3   OH227547   2.272   2.350   3.846  0.7964 -0.7024  0.0324
 2019TIP3    H127548   2.343   2.308   3.896  0.7178 -0.1381  0.6269
 2019TIP3    H227549   2.200   2.286   3.849  1.5345 -1.6438 -1.2821
 2020TIP3   OH227550   6.748   2.505   5.979 -0.1324 -0.1686 -0.3852
 2020TIP3    H127551   6.720   2.429   5.927  0.5021  0.1683 -1.2472
 2020TIP3    H227552   6.668   2.555   5.994 -0.9477 -1.9589  1.8908
 2021TIP3   OH227553   1.662   2.112  13.170  0.4473  0.2433  0.1599
 2021TIP3    H127554   1.755   2.126  13.151  0.3937  2.4638  1.1976
 2021TIP3    H227555   1.618   2.130  13.088  0.8538  0.1069 -0.0948
 2022TIP3   OH227556   4.123   6.497  14.217 -0.4750 -0.1501  0.3971
 2022TIP3    H127557   4.166   6.568  14.264 -0.4636  0.9170 -1.1640
 2022TIP3    H227558   4.045   6.536  14.179  0.4118 -0.4685 -1.9218
 2023TIP3   OH227559   0.065   0.171   5.543 -0.2529 -0.9645  0.2325
 2023TIP3    H127560   0.116   0.112   5.487 -0.9217 -1.7796  0.4583
 2023TIP3    H227561  -0.019   0.126   5.555  0.1433 -1.2178  2.5065
 2024TIP3   OH227562   3.178   0.695  15.363 -0.8858  0.2104  0.3340
 2024TIP3    H127563   3.147   0.735  15.444 -2.2020 -4.4596  2.4690
 2024TIP3    H227564   3.108   0.711  15.300 -1.3492  1.1348  1.0560
 2025TIP3   OH227565   4.911   6.099  15.328 -0.1929  0.4117  0.6465
 2025TIP3    H127566   4.958   6.156  15.388 -1.7191  1.5479  0.8096
 2025TIP3    H227567   4.907   6.014  15.373 -0.7981  1.0846  1.9147
 2026TIP3   OH227568   3.691   4.450   3.171 -0.3067  0.3344  0.2730
 2026TIP3    H127569   3.628   4.418   3.236 -1.2331  1.4504 -0.0559
 2026TIP3    H227570   3.718   4.535   3.204  0.9222 -0.0459  0.3121
 2027TIP3   OH227571   3.573   3.921  12.873 -0.0681  0.1977 -0.3395
 2027TIP3    H127572   3.500   3.984  12.874  0.6245  1.0501 -1.3611
 2027TIP3    H227573   3.543   3.849  12.928 -2.1334  0.0471 -1.5315
 2028TIP3   OH227574   1.280   1.121   0.619  0.1167 -0.2983 -0.0827
 2028TIP3    H127575   1.185   1.111   0.608  0.1271  0.0731 -0.5620
 2028TIP3    H227576   1.312   1.032   0.635 -0.2581 -0.4892 -0.3776
 2029TIP3   OH227577   2.447   2.418  16.831  0.1257 -0.1602 -0.5154
 2029TIP3    H127578   2.501   2.423  16.910 -0.0991  0.5611 -0.4055
 2029TIP3    H227579   2.509   2.399  16.761  0.2428 -1.5199 -0.0756
 2030TIP3   OH227580   4.880   6.718  16.059 -0.0667 -0.2352  0.2192
 2030TIP3    H127581   4.953   6.735  15.999 -0.9518  2.0276 -0.3059
 2030TIP3    H227582   4.838   6.803  16.070 -2.9730 -1.5643  0.0880
 2031TIP3   OH227583   4.747   1.798  11.549  0.1490 -0.5210  0.1963
 2031TIP3    H127584   4.756   1.845  11.466 -0.9157 -0.2493  0.2120
 2031TIP3    H227585   4.774   1.709  11.530  2.1489  0.0573  0.1486
 2032TIP3   OH227586   0.611   5.151   4.036  0.1668 -0.3694 -0.1328
 2032TIP3    H127587   0.554   5.125   3.964  0.8797 -0.6952 -0.5990
 2032TIP3    H227588   0.699   5.147   3.999  0.5990 -1.0964  0.9006
 2033TIP3   OH227589   1.149   3.810   4.719  0.3248  0.6042 -0.8667
 2033TIP3    H127590   1.055   3.799   4.735  0.4321  0.6137 -0.1741
 2033TIP3    H227591   1.184   3.721   4.718  0.3494  0.6142 -0.8692
 2034TIP3   OH227592   1.119   1.873   0.750 -0.2161  0.2241  0.4971
 2034TIP3    H127593   1.205   1.832   0.741 -0.9905 -1.3452 -0.0623
 2034TIP3    H227594   1.117   1.904   0.840  0.7796 -0.0788  0.6393
 2035TIP3   OH227595   2.564   2.170  16.080  0.5645 -0.3004 -0.3570
 2035TIP3    H127596   2.515   2.110  16.024 -1.2182  1.0316 -0.2977
 2035TIP3    H227597   2.618   2.221  16.020  0.1275 -0.2040 -0.6712
 2036TIP3   OH227598   1.970   6.495   3.518  0.9748  0.3818  0.7301
 2036TIP3    H127599   1.893   6.547   3.498  0.2440 -0.4234  1.3520
 2036TIP3    H227600   2.034   6.518   3.450 -0.2582  0.1168 -0.5560
 2037TIP3   OH227601   4.355   3.455  12.380  0.5267  0.3987  0.4362
 2037TIP3    H127602   4.328   3.444  12.471 -1.6993 -0.6425 -0.2763
 2037TIP3    H227603   4.406   3.377  12.360  2.4208  1.3777  1.1848
 2038TIP3   OH227604   5.692   1.159   1.331 -0.1651 -0.0070  0.4688
 2038TIP3    H127605   5.716   1.126   1.244 -2.6787 -0.0070 -0.3044
 2038TIP3    H227606   5.761   1.125   1.389  0.6287 -1.4973 -1.2330
 2039TIP3   OH227607   0.019   2.823   5.087  0.1881  0.2068 -0.0997
 2039TIP3    H127608   0.065   2.875   5.021 -0.6789  0.2017 -0.7275
 2039TIP3    H227609   0.050   2.858   5.171  2.0333 -0.4414 -0.4685
 2040TIP3   OH227610   3.269   1.011   2.267 -0.1923  0.7271 -0.9643
 2040TIP3    H127611   3.355   0.974   2.245 -0.1008 -0.5430  1.1488
 2040TIP3    H227612   3.210   0.936   2.263 -0.9263  1.3100 -1.0627
 2041TIP3   OH227613   6.309   5.262   1.324  0.0046  0.6606  0.1246
 2041TIP3    H127614   6.293   5.345   1.280 -0.4023 -0.0956 -1.1904
 2041TIP3    H227615   6.347   5.206   1.257 -0.6226 -0.5264  0.7316
 2042TIP3   OH227616   0.288   6.630   2.640 -0.0171 -0.8204 -0.3897
 2042TIP3    H127617   0.358   6.642   2.576 -0.1850 -1.1414 -0.6403
 2042TIP3    H227618   0.210   6.613   2.587 -0.3768 -0.0447 -0.1285
 2043TIP3   OH227619   0.525   0.475   5.988  0.1288 -0.3002 -0.2061
 2043TIP3    H127620   0.456   0.432   6.039  0.6289 -0.5823  0.2341
 2043TIP3    H227621   0.597   0.413   5.988 -0.0736 -0.5738 -1.7839
 2044TIP3   OH227622   6.205   5.834  13.746  0.4091 -0.1953 -0.6113
 2044TIP3    H127623   6.224   5.883  13.667  0.1153 -0.8147 -1.0753
 2044TIP3    H227624   6.286   5.836  13.797  0.8611 -0.5002 -1.3121
 2045TIP3   OH227625   6.140   4.219   0.794 -0.3262  0.1606 -0.5183
 2045TIP3    H127626   6.110   4.210   0.703  0.0222 -1.2105 -0.5294
 2045TIP3    H227627   6.234   4.206   0.790 -0.4915 -1.7311  0.2010
 2046TIP3   OH227628   3.929   5.024   4.606  0.2318  0.3828  0.1835
 2046TIP3    H127629   3.961   5.078   4.534  2.3299 -1.8759 -0.7108
 2046TIP3    H227630   3.984   5.048   4.680 -0.0774  0.7612  0.2922
 2047TIP3   OH227631   1.369   0.441   3.226  0.2484  0.0968 -0.4363
 2047TIP3    H127632   1.330   0.395   3.151  0.7887 -0.3977 -0.4161
 2047TIP3    H227633   1.319   0.522   3.232 -1.5963 -1.0228  0.3066
 2048TIP3   OH227634   6.569   0.891  15.473  0.2211  0.0489 -0.0985
 2048TIP3    H127635   6.535   0.955  15.536 -2.2308  0.7578 -1.9794
 2048TIP3    H227636   6.603   0.944  15.401 -2.1436 -0.6474 -1.8372
 2049TIP3   OH227637   5.044   1.836  16.649  0.0433  0.1410  0.2847
 2049TIP3    H127638   5.013   1.897  16.716  0.9896  1.4910 -0.4503
 2049TIP3    H227639   5.139   1.836  16.659  0.0417 -1.5348  0.5099
 2050TIP3   OH227640   2.025   4.233  12.059  0.1263  0.7399  0.2189
 2050TIP3    H127641   2.015   4.196  11.971  0.0185 -0.8461  0.8659
 2050TIP3    H227642   1.936   4.247  12.090  0.0906 -0.8400  0.9112
 2051TIP3   OH227643   1.676   4.622   5.152  0.1166 -0.0173  0.5908
 2051TIP3    H127644   1.686   4.528   5.138 -1.4469 -0.0215 -0.8254
 2051TIP3    H227645   1.726   4.663   5.082 -1.1084  0.1335 -0.2248
 2052TIP3   OH227646   1.063   1.041   2.017  0.1782  0.0688  0.8334
 2052TIP3    H127647   1.014   1.055   1.936  1.0679 -0.8458  0.1047
 2052TIP3    H227648   1.023   1.101   2.080 -1.1660  0.1097 -0.0096
 2053TIP3   OH227649   5.082   4.084  14.805  0.6283 -0.4606 -0.1445
 2053TIP3    H127650   5.169   4.123  14.812  0.6477 -0.8820  3.6247
 2053TIP3    H227651   5.098   3.990  14.796  0.5071 -0.3927 -1.2830
 2054TIP3   OH227652   0.482   4.723  13.977 -0.1887 -0.3664  0.1996
 2054TIP3    H127653   0.557   4.683  14.020  0.1932 -0.1378 -0.2496
 2054TIP3    H227654   0.462   4.664  13.904 -1.0962 -0.9791  0.9073
 2055TIP3   OH227655   6.513   3.557  15.061 -0.2084 -0.1865  0.1268
 2055TIP3    H127656   6.529   3.651  15.059  0.4787 -0.2881 -1.9223
 2055TIP3    H227657   6.421   3.548  15.036 -0.2908 -0.0548  0.3830
 2056TIP3   OH227658   3.705   0.288   1.365  0.5045  0.3898 -0.0462
 2056TIP3    H127659   3.668   0.312   1.449 -0.5540 -3.4828  0.8235
 2056TIP3    H227660   3.800   0.292   1.379  0.3501 -0.4098  1.4618
 2057TIP3   OH227661   0.381   0.393   6.185  0.2699  0.5178 -0.2461
 2057TIP3    H127662   0.285   0.398   6.181  0.2920  0.9348 -0.2197
 2057TIP3    H227663   0.401   0.396   6.279  0.2758 -0.2293 -0.2128
 2058TIP3   OH227664   1.657   6.506  11.765  0.1494  0.0499  0.5322
 2058TIP3    H127665   1.578   6.495  11.712 -0.0049 -0.6722  0.9037
 2058TIP3    H227666   1.628   6.492  11.855  0.2886  1.8661  0.8986
 2059TIP3   OH227667   1.373   4.886  12.999 -0.0215 -0.4666  0.1676
 2059TIP3    H127668   1.468   4.877  12.988 -0.0997 -2.2541  0.7497
 2059TIP3    H227669   1.363   4.937  13.079  0.4397 -0.3822  0.1732
 2060TIP3   OH227670   3.637   5.427   4.318 -1.2512  0.1982 -0.5460
 2060TIP3    H127671   3.587   5.436   4.237  0.5510 -0.0702 -1.7502
 2060TIP3    H227672   3.692   5.350   4.304 -2.6052 -1.3305  1.9391
 2061TIP3   OH227673   5.525   0.997  12.434 -0.5961  0.1399 -0.1176
 2061TIP3    H127674   5.497   0.907  12.451 -1.7134  0.4724 -0.1326
 2061TIP3    H227675   5.585   1.017  12.506  1.3679 -1.3065 -1.2436
 2062TIP3   OH227676   1.040   6.342  13.465  0.6621 -0.0052 -0.4372
 2062TIP3    H127677   0.945   6.345  13.478  0.6496 -1.0016 -0.2142
 2062TIP3    H227678   1.061   6.425  13.421  0.1628  1.7160  2.3159
 2063TIP3   OH227679   6.282   2.768  14.322 -0.5257 -0.4503  0.3070
 2063TIP3    H127680   6.308   2.682  14.354 -0.0551 -0.6591 -0.5954
 2063TIP3    H227681   6.364   2.814  14.304 -0.7690 -0.1886 -0.1671
 2064TIP3   OH227682   2.055   2.759  14.685 -0.0762 -0.2115  0.2630
 2064TIP3    H127683   2.057   2.800  14.599  1.4157 -1.1356 -0.1902
 2064TIP3    H227684   1.998   2.683  14.674  0.7619 -0.7984 -0.1714
 2065TIP3   OH227685   5.902   3.860   5.858 -0.3535  0.1825 -0.1444
 2065TIP3    H127686   5.965   3.802   5.816  0.0685  0.6180 -0.1253
 2065TIP3    H227687   5.818   3.816   5.847  0.0779 -0.8935  0.7129
 2066TIP3   OH227688   2.119   4.088  16.834  1.0212  0.0170 -0.0960
 2066TIP3    H127689   2.084   3.999  16.830  1.5439 -0.2240  0.5400
 2066TIP3    H227690   2.213   4.076  16.852  1.2291  0.6789 -0.7154
 2067TIP3   OH227691   5.355   6.386  15.756  0.5929 -0.0255  0.1029
 2067TIP3    H127692   5.417   6.458  15.767  0.5509 -0.1323  1.0871
 2067TIP3    H227693   5.387   6.338  15.679  0.8078  0.8422 -0.3604
 2068TIP3   OH227694   2.418   0.129   0.796 -0.1441  0.5676  0.0338
 2068TIP3    H127695   2.384   0.115   0.884  0.9368 -1.4860  0.1686
 2068TIP3    H227696   2.508   0.097   0.799  0.2087  1.2774 -1.6055
 2069TIP3   OH227697   4.560   5.008   0.898  0.1450  0.8863 -0.2586
 2069TIP3    H127698   4.493   5.063   0.939 -1.3325  1.1830 -2.7970
 2069TIP3    H227699   4.537   4.919   0.923 -0.1436  1.1158  0.3031
 2070TIP3   OH227700   5.181   3.448   0.708  0.4608 -0.4503  0.1424
 2070TIP3    H127701   5.111   3.465   0.644  0.3942  0.5403  0.4761
 2070TIP3    H227702   5.135   3.434   0.791  0.5106 -2.2437 -0.0770
 2071TIP3   OH227703   3.750   5.437   3.990  0.2040  0.7054 -0.2981
 2071TIP3    H127704   3.821   5.495   4.016  0.9130 -0.2758 -0.0081
 2071TIP3    H227705   3.770   5.353   4.031 -0.9929  0.3355 -0.4099
 2072TIP3   OH227706   6.609   1.939  16.305  0.3166  0.6311  0.0686
 2072TIP3    H127707   6.572   2.010  16.253  1.2263  1.8118  0.9801
 2072TIP3    H227708   6.558   1.939  16.386  0.9394  0.8993  0.4699
 2073TIP3   OH227709   5.474   4.888   3.356 -0.0030 -0.1051  1.0864
 2073TIP3    H127710   5.506   4.977   3.338  0.9223 -0.5147  0.6760
 2073TIP3    H227711   5.428   4.896   3.439  0.8523  0.5884  1.5113
 2074TIP3   OH227712   0.965   0.210   4.787  0.3393 -0.1135 -0.0734
 2074TIP3    H127713   1.008   0.125   4.772  2.6690  0.7540  1.2332
 2074TIP3    H227714   0.977   0.258   4.705  0.5199 -0.4235 -0.2287
 2075TIP3   OH227715   1.633   5.639   4.935  0.1856 -0.2973 -0.4216
 2075TIP3    H127716   1.580   5.586   4.875 -0.1533 -0.0577 -0.3404
 2075TIP3    H227717   1.585   5.636   5.018  0.7477 -0.7781 -0.1053
 2076TIP3   OH227718   0.961   0.019  11.170  0.4694 -0.0226  0.1126
 2076TIP3    H127719   0.958   0.109  11.201  0.8406 -0.0590  0.2604
 2076TIP3    H227720   0.879   0.007  11.122 -1.0075 -0.5089  2.5799
 2077TIP3   OH227721   0.745   2.796   1.435  0.0381 -0.0109 -0.2563
 2077TIP3    H127722   0.753   2.766   1.344 -0.9032  0.6286 -0.5644
 2077TIP3    H227723   0.651   2.804   1.450  0.1611 -0.6615  0.9712
 2078TIP3   OH227724   4.062   4.014  12.463 -0.0303  0.8485  0.0235
 2078TIP3    H127725   4.026   3.928  12.441 -1.1900  1.4253 -0.4220
 2078TIP3    H227726   4.066   4.014  12.559 -0.6533  0.5403  0.0519
 2079TIP3   OH227727   2.120   0.070  17.021 -0.0528 -0.6949  0.3804
 2079TIP3    H127728   2.030   0.041  17.032  0.1992 -1.7190 -0.2169
 2079TIP3    H227729   2.157   0.067  17.110 -0.9654  1.0725  0.8808
 2080TIP3   OH227730   3.614   1.433  17.058  0.4785  0.0364  1.0080
 2080TIP3    H127731   3.566   1.445  16.976 -0.1851 -0.4012  1.3226
 2080TIP3    H227732   3.553   1.465  17.125  0.8710  0.0363  1.3645
 2081TIP3   OH227733   4.405   1.668  14.801 -0.5383  0.1235 -0.4202
 2081TIP3    H127734   4.316   1.646  14.828 -0.6051  0.8064 -0.0491
 2081TIP3    H227735   4.457   1.653  14.880 -0.2409 -0.7142 -0.7635
 2082TIP3   OH227736   0.165   5.438   3.723 -0.5451  0.0960 -0.2744
 2082TIP3    H127737   0.085   5.471   3.764 -0.7528  0.0282 -0.6197
 2082TIP3    H227738   0.134   5.383   3.651 -0.1820  0.6183 -0.8349
 2083TIP3   OH227739   4.894   4.232  14.008 -0.1764 -0.7933 -0.2124
 2083TIP3    H127740   4.934   4.155  13.968 -1.4957 -2.4156  1.4508
 2083TIP3    H227741   4.800   4.217  14.000 -0.4885  1.1924 -0.7963
 2084TIP3   OH227742   5.735   0.474   3.426 -0.1814 -0.5329 -0.0357
 2084TIP3    H127743   5.686   0.536   3.372  1.1859 -2.1284 -3.3720
 2084TIP3    H227744   5.805   0.527   3.465  0.0310  0.3636 -1.5331
 2085TIP3   OH227745   1.980   0.145   4.507  0.1400 -0.6468 -0.6578
 2085TIP3    H127746   1.968   0.067   4.454 -0.5461 -1.0355  0.0415
 2085TIP3    H227747   2.024   0.208   4.450 -1.1379 -0.8258 -1.8739
 2086TIP3   OH227748   1.697   5.396   1.320  0.3044  0.3976 -0.5167
 2086TIP3    H127749   1.778   5.346   1.326 -0.1169 -0.1188  1.6955
 2086TIP3    H227750   1.675   5.419   1.410 -2.1793  0.2524 -0.9868
 2087TIP3   OH227751   2.865   6.330  13.692  0.0757 -0.6323 -0.1244
 2087TIP3    H127752   2.809   6.293  13.760 -1.8171 -1.2091 -1.8943
 2087TIP3    H227753   2.940   6.270  13.688 -0.6995 -1.6579  0.1836
 2088TIP3   OH227754   6.188   1.689  12.353  0.1766  0.0103  0.3741
 2088TIP3    H127755   6.240   1.716  12.277 -1.1102  0.9115 -0.2269
 2088TIP3    H227756   6.246   1.702  12.427  0.9491  0.6123 -0.3174
 2089TIP3   OH227757   5.410   6.104  15.594 -0.5415  0.4293 -0.1115
 2089TIP3    H127758   5.439   6.190  15.563  1.3817  0.0283  0.4429
 2089TIP3    H227759   5.488   6.065  15.634 -0.8858 -2.2057 -1.6985
 2090TIP3   OH227760   2.413   6.691  11.477 -0.4548 -0.3498  0.1740
 2090TIP3    H127761   2.479   6.623  11.465  0.8623  0.5918  1.5265
 2090TIP3    H227762   2.400   6.694  11.572 -1.9161 -0.0030 -0.0175
 2091TIP3   OH227763   4.126   1.492  13.012 -0.4334 -0.0359 -0.1917
 2091TIP3    H127764   4.217   1.501  13.040 -0.3877 -0.2251 -0.2756
 2091TIP3    H227765   4.100   1.580  12.986  0.0445 -0.1512 -1.1249
 2092TIP3   OH227766   6.628   0.022  16.084  0.5473 -0.2454  0.0512
 2092TIP3    H127767   6.573  -0.025  16.022  1.0344 -0.7210 -0.0247
 2092TIP3    H227768   6.679   0.083  16.031  0.4083 -0.1068  0.0748
 2093TIP3   OH227769   0.624   5.258   1.799  0.4193  0.5678  0.2210
 2093TIP3    H127770   0.633   5.213   1.715  0.8157  0.6036  0.2413
 2093TIP3    H227771   0.712   5.255   1.837  0.3897  1.1139  0.3446
 2094TIP3   OH227772   1.617   6.607   5.195  0.1059 -0.3833  0.5549
 2094TIP3    H127773   1.589   6.558   5.118 -0.5960  2.8862 -1.4594
 2094TIP3    H227774   1.536   6.627   5.242 -0.1336  1.6781 -0.5804
 2095TIP3   OH227775   4.157   2.467   5.000 -0.6031 -0.2140  0.4370
 2095TIP3    H127776   4.075   2.514   5.014 -0.5398  0.1107 -0.2152
 2095TIP3    H227777   4.153   2.392   5.058 -0.7015  0.6170  1.5309
 2096TIP3   OH227778   5.951   0.125  14.220 -0.4570  0.3933  0.4662
 2096TIP3    H127779   5.978   0.200  14.168  0.7602 -1.1448 -1.2618
 2096TIP3    H227780   5.887   0.079  14.164 -0.4036 -0.3946  1.0300
 2097TIP3   OH227781   5.689   1.870   4.552 -0.1265  0.4890 -0.0564
 2097TIP3    H127782   5.676   1.777   4.532 -0.9097  0.7010 -0.5561
 2097TIP3    H227783   5.707   1.872   4.646 -1.6350 -0.0268  0.2674
 2098TIP3   OH227784   0.348   2.839  11.113  0.1954 -0.8880 -0.5623
 2098TIP3    H127785   0.331   2.874  11.025  0.9308 -0.3362 -0.4898
 2098TIP3    H227786   0.405   2.763  11.097  0.7500 -0.4820 -0.5276
 2099TIP3   OH227787   5.838   2.143   2.665 -0.1812  0.1119 -0.8559
 2099TIP3    H127788   5.876   2.059   2.640  0.8445  0.0430  0.7827
 2099TIP3    H227789   5.876   2.163   2.751 -0.8439  1.9764 -0.9316
 2100TIP3   OH227790   3.993   6.272  14.641  0.1152 -0.1655 -0.4238
 2100TIP3    H127791   3.954   6.254  14.726 -3.5014 -3.7963 -2.5228
 2100TIP3    H227792   3.957   6.357  14.616  1.5639  1.1757  1.6109
 2101TIP3   OH227793   4.778   5.325   3.252  0.4674  0.1187  0.0472
 2101TIP3    H127794   4.756   5.232   3.256  2.2926 -0.3241  2.7270
 2101TIP3    H227795   4.740   5.363   3.332  0.2021  1.5989 -0.7309
 2102TIP3   OH227796   3.940   6.520   0.278  0.5574  0.5673 -1.0962
 2102TIP3    H127797   3.938   6.551   0.187 -0.8774 -0.2958 -1.3936
 2102TIP3    H227798   3.856   6.476   0.290  1.0576 -0.0399  0.4100
 2103TIP3   OH227799   3.130   1.169   1.698  0.7576  0.3520 -0.0062
 2103TIP3    H127800   3.149   1.256   1.662  0.5130  0.7544  0.8160
 2103TIP3    H227801   3.085   1.187   1.781 -1.0979 -0.5421 -0.7527
 2104TIP3   OH227802   1.876   0.328   4.767 -0.2776 -0.3638 -0.2149
 2104TIP3    H127803   1.865   0.233   4.759  0.0164 -0.3207 -1.4100
 2104TIP3    H227804   1.971   0.340   4.775 -0.3300 -0.1793  0.1448
 2105TIP3   OH227805   5.549   6.793  11.210 -0.0155 -0.0781  0.3313
 2105TIP3    H127806   5.556   6.710  11.163  1.7790  0.7235 -0.9739
 2105TIP3    H227807   5.581   6.859  11.147 -1.2302  1.5837  1.3711
 2106TIP3   OH227808   3.263   1.899   6.391 -0.4325  0.3056  0.6135
 2106TIP3    H127809   3.276   1.807   6.413  1.6051  0.9409  2.3639
 2106TIP3    H227810   3.199   1.930   6.455  0.0096  0.4536  0.9846
 2107TIP3   OH227811   2.018   2.896   3.593  0.1791  0.1430 -0.1993
 2107TIP3    H127812   2.012   2.873   3.500  0.6747 -0.1537 -0.1598
 2107TIP3    H227813   2.025   2.811   3.637  0.1479  0.2948  0.0955
 2108TIP3   OH227814   3.971   2.355  15.354 -0.1577  0.5639  0.2444
 2108TIP3    H127815   4.031   2.284  15.329 -0.7185  0.1883 -0.0474
 2108TIP3    H227816   3.943   2.393  15.271  0.2463  1.2262  0.4043
 2109TIP3   OH227817   4.186   1.605  11.952  0.3460  0.2551 -0.0858
 2109TIP3    H127818   4.208   1.663  11.879  0.5063  1.4410  0.8624
 2109TIP3    H227819   4.124   1.542  11.915 -0.5580  1.5978 -0.9556
 2110TIP3   OH227820   5.271   2.817   3.513  0.8574 -0.0956  0.1643
 2110TIP3    H127821   5.301   2.855   3.596 -0.9920 -1.7927  1.7042
 2110TIP3    H227822   5.336   2.751   3.491  2.3906  1.6667 -0.8440
 2111TIP3   OH227823   2.778   0.894  14.538 -0.7470 -0.1610  0.3766
 2111TIP3    H127824   2.791   0.930  14.451 -0.3654 -0.6379  0.2296
 2111TIP3    H227825   2.760   0.801  14.523 -0.8246 -0.2142  0.7925
 2112TIP3   OH227826   3.374   1.864  12.582  0.2608 -0.1996  0.0359
 2112TIP3    H127827   3.376   1.815  12.665 -1.6461  0.4564  0.5277
 2112TIP3    H227828   3.450   1.922  12.586  1.4068 -1.6789  0.3409
 2113TIP3   OH227829   1.779   3.072  15.122 -0.5147  0.0658 -0.2407
 2113TIP3    H127830   1.720   3.105  15.054 -0.2226  1.4304  0.1294
 2113TIP3    H227831   1.857   3.127  15.115 -0.3778  0.0651  1.0210
 2114TIP3   OH227832   5.268   3.877  16.051 -0.3147  0.0937 -0.3241
 2114TIP3    H127833   5.219   3.840  16.125 -1.0962  2.2158  0.2949
 2114TIP3    H227834   5.341   3.923  16.092 -0.3917  0.7572 -0.9175
 2115TIP3   OH227835   4.290   0.877   0.311  0.4292 -0.1636  0.0578
 2115TIP3    H127836   4.245   0.847   0.389  0.6870 -1.1178 -0.1522
 2115TIP3    H227837   4.231   0.943   0.273  0.7123  1.0041  1.5284
 2116TIP3   OH227838   2.298   2.486   6.367  0.3127 -0.1427 -0.1525
 2116TIP3    H127839   2.271   2.453   6.452  1.4799 -2.5759 -0.6544
 2116TIP3    H227840   2.223   2.468   6.309  1.3485 -3.3135 -0.6947
 2117TIP3   OH227841   4.913   2.317  13.692  0.6144 -0.3642 -0.3197
 2117TIP3    H127842   4.866   2.389  13.651 -1.4600 -1.0947  0.6384
 2117TIP3    H227843   4.984   2.359  13.741 -0.3533  1.0014 -0.0570
 2118TIP3   OH227844   1.551   5.978   4.732 -0.1127 -0.2011  0.3546
 2118TIP3    H127845   1.627   6.027   4.762  0.1590 -0.7163  0.5203
 2118TIP3    H227846   1.479   6.012   4.785  0.0362  0.1535  0.3310
 2119TIP3   OH227847   4.865   4.572   5.594  0.7664 -0.0817 -0.2303
 2119TIP3    H127848   4.839   4.585   5.502 -1.0754 -1.2552  0.0685
 2119TIP3    H227849   4.960   4.559   5.590  1.2920  3.1964 -1.5577
 2120TIP3   OH227850   6.799   5.646   1.895 -0.4133 -0.3017  0.1780
 2120TIP3    H127851   6.846   5.568   1.864  0.4721  0.4166 -0.3271
 2120TIP3    H227852   6.749   5.615   1.971  0.0594 -1.3233  0.0869
 2121TIP3   OH227853   1.021   2.386  14.391  0.6360 -0.7411 -0.4044
 2121TIP3    H127854   1.060   2.299  14.391  0.7449 -0.6951  0.2612
 2121TIP3    H227855   0.939   2.376  14.342  0.3269 -1.3620  0.2174
 2122TIP3   OH227856   3.961   0.795  16.801 -0.3119 -0.6554  0.1728
 2122TIP3    H127857   3.876   0.758  16.778 -1.4797  1.6092  0.5820
 2122TIP3    H227858   4.019   0.769  16.729 -2.0106 -0.0366 -1.4880
 2123TIP3   OH227859   3.888   2.711   3.115  0.3366  0.0363 -0.4691
 2123TIP3    H127860   3.914   2.703   3.207  0.9820 -0.2750 -0.6693
 2123TIP3    H227861   3.792   2.710   3.117  0.2279  3.0579  0.4711
 2124TIP3   OH227862   2.655   3.179  14.469  0.0803  0.1287 -0.6642
 2124TIP3    H127863   2.644   3.137  14.554 -0.2361  0.1601 -0.6884
 2124TIP3    H227864   2.694   3.110  14.414 -0.4677 -0.1467 -0.7125
 2125TIP3   OH227865   2.573   5.936   0.128  0.2868 -0.5517 -0.9465
 2125TIP3    H127866   2.615   5.867   0.076  2.4222 -0.1495  0.1479
 2125TIP3    H227867   2.642   6.001   0.143 -1.5882  1.8136 -1.8073
 2126TIP3   OH227868   4.558   4.309   4.152  0.1308  0.4387  0.0209
 2126TIP3    H127869   4.652   4.323   4.159  0.0650  0.6593  0.4313
 2126TIP3    H227870   4.550   4.232   4.094  0.4903  1.9737 -2.2127
 2127TIP3   OH227871   6.059   2.846   4.686  0.0829  0.0855 -0.0752
 2127TIP3    H127872   6.039   2.789   4.761 -2.4071  0.0895 -0.6524
 2127TIP3    H227873   6.099   2.789   4.622  0.9796 -0.2105  0.7295
 2128TIP3   OH227874   0.214   5.058   2.995  0.1619  0.0551  0.5543
 2128TIP3    H127875   0.240   5.088   3.082  1.0421 -0.7765  0.5807
 2128TIP3    H227876   0.265   5.112   2.935  1.4086 -1.0461  0.5967
 2129TIP3   OH227877   2.684   5.127  10.872  0.6251 -0.0274 -0.0404
 2129TIP3    H127878   2.759   5.097  10.924  0.6093  0.7647  0.4549
 2129TIP3    H227879   2.721   5.146  10.786  0.8143 -0.5195 -0.0739
 2130TIP3   OH227880   6.660   1.210   1.058  0.1256 -0.2550  0.2414
 2130TIP3    H127881   6.716   1.276   1.098 -1.3996  1.8800 -0.9147
 2130TIP3    H227882   6.649   1.144   1.126  1.4308  0.8428  1.6102
 2131TIP3   OH227883   4.296   4.602  13.196  0.1506 -0.5191 -0.2850
 2131TIP3    H127884   4.371   4.657  13.221 -1.0071  0.7659  0.4834
 2131TIP3    H227885   4.222   4.639  13.244 -1.4179 -0.4128 -2.6309
 2132TIP3   OH227886   3.569   5.079  15.474  0.0018  0.7439  0.2287
 2132TIP3    H127887   3.560   5.149  15.410 -1.3759  1.1093  0.7676
 2132TIP3    H227888   3.536   5.001  15.430  0.5944  0.6430 -0.0407
 2133TIP3   OH227889   0.324   3.187   3.747 -0.0505  0.2500 -0.0050
 2133TIP3    H127890   0.234   3.193   3.779  0.2952 -1.0999  1.3368
 2133TIP3    H227891   0.341   3.093   3.743  0.9829  0.4659 -1.2272
 2134TIP3   OH227892   5.643   6.277   4.979 -0.5698  0.7987 -0.4552
 2134TIP3    H127893   5.686   6.340   4.921 -0.3217 -0.6957 -1.9761
 2134TIP3    H227894   5.712   6.214   5.001 -0.9073  0.8227  0.7051
 2135TIP3   OH227895   6.458   5.441   5.995 -0.1185  0.1604 -0.1614
 2135TIP3    H127896   6.534   5.397   5.957 -0.8968 -0.3725 -1.1351
 2135TIP3    H227897   6.483   5.533   5.997  0.9138 -0.1198  0.4073
 2136TIP3   OH227898   1.981   3.510  15.073 -0.3273  0.2482  0.0298
 2136TIP3    H127899   2.046   3.567  15.115 -0.0072 -1.4915  2.0475
 2136TIP3    H227900   2.030   3.466  15.003  0.2930  0.0516  0.5768
 2137TIP3   OH227901   6.778   3.234   6.874 -0.5177 -0.2760  0.4075
 2137TIP3    H127902   6.796   3.247   6.967 -0.4668 -0.3694  0.4111
 2137TIP3    H227903   6.801   3.142   6.858  0.9808  0.1394 -0.0345
 2138TIP3   OH227904   6.655   4.206   0.086  0.1095 -0.0575  0.1551
 2138TIP3    H127905   6.682   4.252   0.007 -3.3308 -0.1602 -1.2162
 2138TIP3    H227906   6.589   4.262   0.126  0.9644 -0.5439  2.3934
 2139TIP3   OH227907   3.353   2.060  15.759 -0.3413 -0.1593  0.8127
 2139TIP3    H127908   3.315   1.976  15.733 -0.6173  0.4679 -0.9088
 2139TIP3    H227909   3.406   2.087  15.684 -1.3853  1.8602  0.7320
 2140TIP3   OH227910   2.538   2.243  16.523 -0.5779 -0.1998 -0.1312
 2140TIP3    H127911   2.548   2.173  16.589  0.4200 -1.2713 -1.3600
 2140TIP3    H227912   2.447   2.269  16.530 -0.8202 -1.2021  0.7849
 2141TIP3   OH227913   0.277   4.490  11.051  0.1072 -0.7654 -0.6541
 2141TIP3    H127914   0.355   4.435  11.064  0.7273  0.2481  0.0870
 2141TIP3    H227915   0.307   4.579  11.069 -1.0984 -0.2845 -0.9146
 2142TIP3   OH227916   5.511   6.256  15.074  0.3948  0.4895 -0.3102
 2142TIP3    H127917   5.593   6.303  15.090 -0.3685  1.3134  1.4918
 2142TIP3    H227918   5.452   6.322  15.037  0.6859 -0.2533 -2.2124
 2143TIP3   OH227919   5.820   4.884   4.220 -0.1904  0.5077  0.1238
 2143TIP3    H127920   5.861   4.819   4.163 -0.5288 -0.5948  1.1012
 2143TIP3    H227921   5.891   4.914   4.277 -0.3294 -0.0299  0.5847
 2144TIP3   OH227922   0.342   6.120   0.330 -0.1442 -0.2280  0.1037
 2144TIP3    H127923   0.413   6.169   0.288  0.0544 -0.2193  0.4472
 2144TIP3    H227924   0.351   6.140   0.423 -0.3637 -0.5291  0.1905
 2145TIP3   OH227925   5.459   1.495  10.878  0.4072  0.3105  0.2714
 2145TIP3    H127926   5.547   1.507  10.841 -0.5264  1.0108 -1.8653
 2145TIP3    H227927   5.434   1.406  10.853 -0.3272  0.8730 -1.1111
 2146TIP3   OH227928   1.914   4.471   2.026  0.3782  0.9187  0.6787
 2146TIP3    H127929   1.963   4.471   1.944 -2.0644  1.0603 -0.8654
 2146TIP3    H227930   1.975   4.434   2.090  1.8757 -0.6525 -1.5095
 2147TIP3   OH227931   3.161   5.605   2.703 -0.2307  0.1872  0.7704
 2147TIP3    H127932   3.158   5.510   2.688  1.1075 -0.0549  1.8186
 2147TIP3    H227933   3.240   5.634   2.659  0.0067  0.6069  1.4522
 2148TIP3   OH227934   6.299   5.271   3.295  0.0079 -0.8114  0.1757
 2148TIP3    H127935   6.273   5.180   3.281 -0.0309 -0.4864 -2.3319
 2148TIP3    H227936   6.219   5.315   3.323 -0.6644 -1.0363 -1.3346
 2149TIP3   OH227937   5.033   6.818  14.769  0.3465 -0.2331  0.3228
 2149TIP3    H127938   5.055   6.743  14.715 -1.4113 -0.6109  0.0509
 2149TIP3    H227939   5.048   6.894  14.713  1.0757 -0.4418  0.2253
 2150TIP3   OH227940   3.656   0.343   1.808 -0.0178  0.0731  0.1662
 2150TIP3    H127941   3.656   0.438   1.800 -1.0761  0.0392 -0.5225
 2150TIP3    H227942   3.656   0.326   1.902 -0.1777  0.7611  0.2949
 2151TIP3   OH227943   1.573   3.153  16.320 -0.0940 -0.1330  0.0316
 2151TIP3    H127944   1.596   3.235  16.362 -0.5007 -0.3614  0.7183
 2151TIP3    H227945   1.585   3.169  16.226 -0.6913  0.8745  0.1179
 2152TIP3   OH227946   4.781   0.739   4.946 -0.2758 -0.1352 -0.1556
 2152TIP3    H127947   4.710   0.802   4.938 -1.0229 -0.7629  1.2131
 2152TIP3    H227948   4.816   0.731   4.857 -1.7507  0.3817 -0.8144
 2153TIP3   OH227949   2.691   5.582  16.176 -0.1559 -0.1287  0.3912
 2153TIP3    H127950   2.603   5.577  16.215 -0.4187  1.0098 -0.0085
 2153TIP3    H227951   2.680   5.546  16.088 -0.4164  0.7536  0.0533
 2154TIP3   OH227952   4.143   5.505  11.039 -0.0999 -0.4400 -0.0982
 2154TIP3    H127953   4.183   5.555  11.110 -0.2951 -2.2647  1.3462
 2154TIP3    H227954   4.153   5.562  10.962 -0.4212  1.8574  1.4520
 2155TIP3   OH227955   6.828   4.626  10.334 -0.1689 -0.3623 -0.6724
 2155TIP3    H127956   6.876   4.573  10.397 -0.9477 -0.5641 -0.2386
 2155TIP3    H227957   6.770   4.563  10.290 -0.6974  0.0265 -0.5425
 2156TIP3   OH227958   1.461   3.214  14.637 -0.0915 -0.1955 -0.5750
 2156TIP3    H127959   1.423   3.148  14.695 -0.0296 -0.1674 -0.5026
 2156TIP3    H227960   1.555   3.195  14.638  0.1943  1.1458  1.0218
 2157TIP3   OH227961   1.629   0.285   0.418 -0.1067  0.4241  0.0139
 2157TIP3    H127962   1.540   0.299   0.449 -0.0038  0.9971  0.0774
 2157TIP3    H227963   1.650   0.195   0.441 -0.6915  0.2704 -0.0535
 2158TIP3   OH227964   0.293   0.518  12.966 -0.6312 -0.2862 -0.2728
 2158TIP3    H127965   0.383   0.519  12.933 -0.7366 -0.8554 -0.5982
 2158TIP3    H227966   0.277   0.608  12.995  0.1142 -0.2252 -0.0070
 2159TIP3   OH227967   6.569   4.048  13.615 -0.3399  0.1005  0.5711
 2159TIP3    H127968   6.648   4.040  13.562  0.1740 -1.4452  1.5052
 2159TIP3    H227969   6.585   4.125  13.670  0.2292  0.1683  0.3146
 2160TIP3   OH227970   1.506   4.246  10.733  0.9367  0.2191 -0.0017
 2160TIP3    H127971   1.582   4.300  10.759  0.1274  1.1954  0.4083
 2160TIP3    H227972   1.435   4.309  10.721 -0.0502 -0.7586  0.5008
 2161TIP3   OH227973   1.303   0.483   4.751  0.0614 -0.5418 -0.5085
 2161TIP3    H127974   1.288   0.396   4.712  0.7884  0.0945 -2.2941
 2161TIP3    H227975   1.348   0.464   4.834 -2.4901 -1.9955  0.6943
 2162TIP3   OH227976   5.549   2.723  10.630  0.2693 -0.5117 -0.0534
 2162TIP3    H127977   5.583   2.643  10.670 -0.7967 -1.1868 -0.4492
 2162TIP3    H227978   5.512   2.772  10.704  0.7390 -0.4802  0.1611
 2163TIP3   OH227979   6.686   5.191   3.850 -0.6053 -0.2884  0.0564
 2163TIP3    H127980   6.719   5.277   3.825 -1.2021 -0.3915 -1.1050
 2163TIP3    H227981   6.598   5.208   3.884  0.0923 -0.1790  1.9892
 2164TIP3   OH227982   4.786   6.725  15.212 -0.1756 -0.0856  0.1755
 2164TIP3    H127983   4.732   6.646  15.218 -0.9032  0.3343 -0.7323
 2164TIP3    H227984   4.773   6.757  15.123  3.1760 -1.1019 -0.8347
 2165TIP3   OH227985   0.396   3.837  17.129 -0.1367 -0.4645 -0.1230
 2165TIP3    H127986   0.436   3.904  17.074  0.8756 -1.1388 -0.2567
 2165TIP3    H227987   0.419   3.754  17.085 -0.1035 -0.9629  0.8082
 2166TIP3   OH227988   5.577   1.802   5.295  0.2676 -0.4164 -0.4405
 2166TIP3    H127989   5.496   1.751   5.304  0.3971 -0.8205 -1.4993
 2166TIP3    H227990   5.550   1.892   5.314 -0.4962 -0.5014 -1.0799
 2167TIP3   OH227991   1.559   4.060   0.700 -0.3048  0.2634  0.3307
 2167TIP3    H127992   1.618   4.007   0.754  0.6858  1.8842  0.8972
 2167TIP3    H227993   1.613   4.133   0.669 -1.9515  1.7227  0.7316
 2168TIP3   OH227994   1.810   1.195  16.413 -0.3006  0.4003  0.6563
 2168TIP3    H127995   1.805   1.213  16.319  0.2236 -1.1823  0.3034
 2168TIP3    H227996   1.722   1.167  16.437 -0.0809 -0.5846  0.3268
 2169TIP3   OH227997   3.158   1.758  16.637  0.3485  0.4763 -0.2383
 2169TIP3    H127998   3.074   1.726  16.602 -0.1100  1.1995  0.1719
 2169TIP3    H227999   3.204   1.678  16.664  0.3124 -0.0249 -1.5763
 2170TIP3   OH228000   6.416   5.663  13.073  0.2491  0.1940 -0.0470
 2170TIP3    H128001   6.424   5.673  12.978 -1.4752 -0.4207 -0.2797
 2170TIP3    H228002   6.343   5.719  13.098 -2.9410 -3.5691  0.0457
 2171TIP3   OH228003   1.993   3.388   2.552  0.2686 -0.2528 -0.2031
 2171TIP3    H128004   1.945   3.379   2.470 -0.3025  1.2497 -0.0512
 2171TIP3    H228005   1.928   3.421   2.614  1.2339  0.7455  0.2932
 2172TIP3   OH228006   6.514   2.438  13.657  0.3965  0.0103 -0.3997
 2172TIP3    H128007   6.526   2.444  13.562  2.0199 -2.2429 -0.4314
 2172TIP3    H228008   6.518   2.344  13.675  1.8366  0.4748  2.0841
 2173TIP3   OH228009   4.839   6.329  15.203 -0.4079  0.3384  0.6100
 2173TIP3    H128010   4.748   6.334  15.235 -0.3175 -1.5973  1.2728
 2173TIP3    H228011   4.878   6.257  15.253  1.1689  0.3872 -0.4926
 2174TIP3   OH228012   1.797   2.894  11.004 -0.0421 -0.1407  0.4508
 2174TIP3    H128013   1.854   2.874  11.078 -0.6901 -0.7959  0.7942
 2174TIP3    H228014   1.710   2.902  11.043 -0.4837 -1.0272 -0.2963
 2175TIP3   OH228015   5.102   1.117   4.603  0.3703 -0.3336 -0.0020
 2175TIP3    H128016   5.155   1.196   4.592  0.8522 -0.5386  0.7946
 2175TIP3    H228017   5.012   1.147   4.592  0.6474 -0.4162 -4.1180
 2176TIP3   OH228018   4.507   6.502  17.007 -0.2398  0.2022 -0.0136
 2176TIP3    H128019   4.470   6.587  17.030  0.0790  0.7573 -1.4318
 2176TIP3    H228020   4.442   6.438  17.039 -1.2434  1.0476 -0.2996
 2177TIP3   OH228021   5.644   6.236   5.269  0.4649  0.0416 -0.6869
 2177TIP3    H128022   5.663   6.156   5.220 -0.5043 -0.2212 -0.6532
 2177TIP3    H228023   5.694   6.304   5.224 -0.0741 -0.2702 -1.7800
 2178TIP3   OH228024   0.337   3.652  14.692 -0.1452  0.9652  0.6575
 2178TIP3    H128025   0.428   3.628  14.709 -0.3554 -0.1449  0.2470
 2178TIP3    H228026   0.294   3.643  14.778 -0.3706 -0.8597  0.3795
 2179TIP3   OH228027   1.441   1.422  11.209 -0.4604 -0.1371  0.1908
 2179TIP3    H128028   1.517   1.384  11.167 -0.5942 -0.7952  0.5334
 2179TIP3    H228029   1.477   1.488  11.269 -0.1985 -0.0641 -0.0452
 2180TIP3   OH228030   1.988   6.433  11.345 -0.2913  0.0075 -0.1975
 2180TIP3    H128031   2.053   6.502  11.333 -1.1033  0.9777  0.7696
 2180TIP3    H228032   2.009   6.395  11.430 -0.9020  0.2615  0.0760
 2181TIP3   OH228033   6.797   4.349   2.486 -1.1445  0.1455  0.2079
 2181TIP3    H128034   6.734   4.370   2.417  0.9516  0.1638 -1.8311
 2181TIP3    H228035   6.854   4.283   2.447  1.1871  1.4124  1.2564
 2182TIP3   OH228036   3.724   3.514   1.776  0.5758 -0.1101 -0.1744
 2182TIP3    H128037   3.747   3.560   1.696  1.0917 -0.3970 -0.1950
 2182TIP3    H228038   3.633   3.488   1.763 -0.0406  1.7236  0.2364
 2183TIP3   OH228039   0.599   4.486  11.637 -0.6067 -0.0729  0.0335
 2183TIP3    H128040   0.578   4.398  11.606  0.4681 -0.0847 -0.7169
 2183TIP3    H228041   0.639   4.472  11.723 -2.2438 -0.1479  0.8194
 2184TIP3   OH228042   2.440   2.550  11.975  0.3693 -0.1458  0.2975
 2184TIP3    H128043   2.526   2.516  11.953 -0.0854 -0.7674 -0.5776
 2184TIP3    H228044   2.382   2.474  11.968 -0.1918  0.1705  1.2766
 2185TIP3   OH228045   1.842   6.739   5.080 -0.8468  0.3887  0.2702
 2185TIP3    H128046   1.855   6.773   5.168  0.9733  0.0041  0.1886
 2185TIP3    H228047   1.748   6.725   5.073 -1.0086  0.3300  2.1857
 2186TIP3   OH228048   6.648   0.665  15.602 -0.6730  0.3821 -0.4367
 2186TIP3    H128049   6.646   0.740  15.542 -2.1623 -0.1045 -1.0289
 2186TIP3    H228050   6.610   0.593  15.552 -1.1854 -0.2465  0.8237
 2187TIP3   OH228051   6.653   0.286  12.009 -0.1176  0.0589 -0.4165
 2187TIP3    H128052   6.741   0.298  12.044 -0.3878  3.6109 -0.6096
 2187TIP3    H228053   6.659   0.315  11.919 -1.4436  0.0852 -0.5142
 2188TIP3   OH228054   3.144   5.682   6.452  0.0886  0.9018 -0.0536
 2188TIP3    H128055   3.135   5.607   6.394 -1.4702  1.7625 -1.0004
 2188TIP3    H228056   3.239   5.693   6.462  0.3616 -0.4518 -0.8623
 2189TIP3   OH228057   5.672   0.311  13.959  0.1892 -0.2545 -0.6160
 2189TIP3    H128058   5.695   0.305  14.051 -0.8426  0.0232 -0.3172
 2189TIP3    H228059   5.715   0.236  13.917  1.5898  0.2522 -0.1263
 2190TIP3   OH228060   2.583   5.391   5.529 -0.2246 -0.4163  0.1770
 2190TIP3    H128061   2.525   5.468   5.525 -1.5146 -1.2723  1.3542
 2190TIP3    H228062   2.523   5.316   5.529  0.9780 -1.4109 -0.1238
 2191TIP3   OH228063   3.253   2.175  11.609  0.0154 -0.2108 -0.2588
 2191TIP3    H128064   3.309   2.099  11.624  0.2843  0.3847  2.0617
 2191TIP3    H228065   3.245   2.180  11.513  1.4088 -2.0958 -0.5336
 2192TIP3   OH228066   0.867   3.000   0.957 -0.3349 -0.5112 -0.8894
 2192TIP3    H128067   0.864   3.085   0.912  0.3663 -0.4193 -0.7855
 2192TIP3    H228068   0.776   2.977   0.972 -0.5628  1.3612  1.1975
 2193TIP3   OH228069   5.474   2.183  17.186 -0.0598  0.6164  0.0172
 2193TIP3    H128070   5.463   2.275  17.208 -0.3263  0.1535  2.0217
 2193TIP3    H228071   5.432   2.173  17.101 -1.1804  2.0864  0.3692
 2194TIP3   OH228072   4.156   1.821  15.385  0.1451 -0.0184  0.2433
 2194TIP3    H128073   4.076   1.836  15.436 -1.1213 -0.3237 -1.5577
 2194TIP3    H228074   4.125   1.804  15.296  2.3136  1.5045 -0.8955
 2195TIP3   OH228075   1.625   3.002  15.539 -0.8331 -0.0575 -0.2772
 2195TIP3    H128076   1.535   2.999  15.570 -0.2488  1.2344  1.7265
 2195TIP3    H228077   1.617   2.998  15.443 -3.2735  3.5376 -0.4126
 2196TIP3   OH228078   2.182   6.213  16.144  0.4723  0.1176 -0.5702
 2196TIP3    H128079   2.243   6.229  16.217  0.4698  0.7180 -0.6981
 2196TIP3    H228080   2.222   6.140  16.096 -0.5162 -1.6548  1.1407
 2197TIP3   OH228081   5.094   2.669  16.583  0.3070  0.4393  0.0265
 2197TIP3    H128082   5.075   2.617  16.505  1.7364 -0.0784 -0.0134
 2197TIP3    H228083   5.184   2.644  16.606  0.5879  2.0041  0.7191
 2198TIP3   OH228084   0.227   3.163   3.267 -0.1005 -0.0875 -0.1471
 2198TIP3    H128085   0.133   3.181   3.257  0.1411  1.4520  0.0517
 2198TIP3    H228086   0.263   3.180   3.180  0.0635 -0.1599 -0.0924
 2199TIP3   OH228087   0.202   6.086  11.030 -0.1096 -0.1533  0.3688
 2199TIP3    H128088   0.136   6.016  11.030  0.1859 -0.4967 -1.5004
 2199TIP3    H228089   0.156   6.163  11.063 -0.6805 -1.0169  1.6565
 2200TIP3   OH228090   0.921   2.844  17.070 -0.6245  0.2820  0.6061
 2200TIP3    H128091   0.839   2.869  17.113  0.6860  1.9370  2.3476
 2200TIP3    H228092   0.987   2.852  17.139  1.1396 -0.2375 -0.9332
 2201TIP3   OH228093   5.075   2.276   2.501  0.4964  0.6160 -0.2652
 2201TIP3    H128094   5.034   2.337   2.439  1.6280  0.3423 -1.3299
 2201TIP3    H228095   5.035   2.192   2.482 -0.1472  0.7779  0.3349
 2202TIP3   OH228096   0.708   1.079  12.781 -0.0332 -0.6885 -0.4524
 2202TIP3    H128097   0.776   1.137  12.816 -0.1648 -1.9163  2.0963
 2202TIP3    H228098   0.685   1.117  12.696  1.6312  1.5249 -0.0057
 2203TIP3   OH228099   3.875   2.788  14.080  0.0429 -0.4536  0.2877
 2203TIP3    H128100   3.842   2.874  14.108 -0.1905 -0.3706 -0.2278
 2203TIP3    H228101   3.933   2.808  14.006 -0.9252 -0.8285 -0.5923
 2204TIP3   OH228102   4.853   3.535   5.641 -0.0220  0.1444  0.7465
 2204TIP3    H128103   4.764   3.570   5.645  0.6902  1.9462  1.5511
 2204TIP3    H228104   4.895   3.584   5.570  1.0381  1.1005  1.9874
 2205TIP3   OH228105   0.288   4.496  13.477  0.1569 -0.3162  0.1968
 2205TIP3    H128106   0.353   4.426  13.485 -0.2071 -0.7422 -0.4668
 2205TIP3    H228107   0.207   4.457  13.510  0.1366  0.0758  0.6225
 2206TIP3   OH228108   2.251   1.147   1.440 -0.5746  0.0579  0.3117
 2206TIP3    H128109   2.288   1.081   1.382 -0.9305 -0.6926  0.9257
 2206TIP3    H228110   2.227   1.219   1.382 -1.0098 -0.7156 -0.4892
 2207TIP3   OH228111   1.293   1.836  13.000 -0.0788  0.8146  0.3437
 2207TIP3    H128112   1.244   1.879  13.070 -0.2915 -2.0982  2.1535
 2207TIP3    H228113   1.375   1.809  13.041  0.6498  0.7628 -1.0937
 2208TIP3   OH228114   6.192   4.033  14.410  0.0509 -0.6022 -0.4901
 2208TIP3    H128115   6.228   3.945  14.405 -0.5718 -0.9117  0.3699
 2208TIP3    H228116   6.267   4.089  14.429  0.6967 -0.7380 -2.4550
 2209TIP3   OH228117   3.559   5.497   5.159 -0.0474  0.4387 -0.0661
 2209TIP3    H128118   3.593   5.458   5.079 -0.4289  2.0215 -1.0434
 2209TIP3    H228119   3.465   5.508   5.143  0.0563  1.7995  0.1283
 2210TIP3   OH228120   1.521   0.633  14.579  0.3292  0.6832  0.4868
 2210TIP3    H128121   1.609   0.598  14.564 -0.1728 -0.5422  0.2542
 2210TIP3    H228122   1.505   0.691  14.504  1.2821  1.6573  1.0141
 2211TIP3   OH228123   1.057   4.696   3.505  0.1190 -0.2157 -0.5424
 2211TIP3    H128124   1.005   4.703   3.584  0.1933  0.1169 -0.5187
 2211TIP3    H228125   1.136   4.649   3.531  0.9429  1.3797  0.0038
 2212TIP3   OH228126   2.882   1.683   6.433  0.3414  0.4094 -0.1383
 2212TIP3    H128127   2.841   1.623   6.371  0.0687  0.4889 -0.0372
 2212TIP3    H228128   2.825   1.760   6.433  0.4509  0.4922  0.0557
 2213TIP3   OH228129   0.351   1.559   3.406 -0.0367  0.3509  0.0441
 2213TIP3    H128130   0.357   1.611   3.487  0.6842  1.4858 -0.7196
 2213TIP3    H228131   0.409   1.603   3.344  1.8768 -2.2871 -0.1826
 2214TIP3   OH228132   0.618   0.403  14.436 -0.5186 -0.1284 -0.3856
 2214TIP3    H128133   0.563   0.380  14.511 -0.3406 -1.6488 -0.6859
 2214TIP3    H228134   0.563   0.460  14.383 -1.3776 -0.6497 -0.0816
 2215TIP3   OH228135   6.652   3.829   5.285  0.2758 -0.5516  0.2377
 2215TIP3    H128136   6.729   3.822   5.341  0.6258  0.9797  0.0017
 2215TIP3    H228137   6.671   3.772   5.210  1.2692 -0.0800  0.1125
 2216TIP3   OH228138   4.309   0.588  11.382 -0.4840  0.2424  0.3255
 2216TIP3    H128139   4.326   0.501  11.417  2.4295  0.8433  0.6376
 2216TIP3    H228140   4.233   0.576  11.325 -0.2108 -2.4751  0.3955
 2217TIP3   OH228141   4.056   5.987  10.576 -0.3698  0.1251  0.2768
 2217TIP3    H128142   4.121   5.979  10.506 -0.5414  1.9339 -0.1297
 2217TIP3    H228143   4.043   5.897  10.606  1.9838 -0.3661  0.0703
 2218TIP3   OH228144   4.595   2.756  12.093  0.3082  0.0636  0.1563
 2218TIP3    H128145   4.615   2.814  12.166  2.8180  0.4589 -0.7559
 2218TIP3    H228146   4.544   2.810  12.032  1.2359  0.8377  0.0436
 2219TIP3   OH228147   2.548   5.745   1.086  0.5767  0.6171 -0.4700
 2219TIP3    H128148   2.522   5.693   1.009  1.6376  0.5389 -0.7920
 2219TIP3    H228149   2.468   5.751   1.139 -0.2909  0.9996 -1.7550
 2220TIP3   OH228150   6.366   6.166   3.852  0.6695  0.7990 -0.3571
 2220TIP3    H128151   6.421   6.111   3.908 -0.2316 -0.8054 -1.0066
 2220TIP3    H228152   6.309   6.213   3.913  0.9290  0.4595  0.1531
 2221TIP3   OH228153   6.426   3.626  14.172 -0.4374 -0.7827 -0.3567
 2221TIP3    H128154   6.493   3.641  14.106 -0.8706 -1.2526 -0.9201
 2221TIP3    H228155   6.397   3.536  14.157 -0.8742 -0.7356  0.1638
 2222TIP3   OH228156   5.317   1.815  16.661 -0.1157 -0.3993 -0.2464
 2222TIP3    H128157   5.347   1.753  16.594  2.2759  0.6852 -0.2695
 2222TIP3    H228158   5.377   1.802  16.734 -0.9663  0.3922  0.6219
 2223TIP3   OH228159   3.478   6.008   5.847  0.4046 -0.4100 -0.4193
 2223TIP3    H128160   3.535   5.931   5.841  0.5845 -0.2529 -0.8351
 2223TIP3    H228161   3.454   6.013   5.939 -1.4910 -2.3008 -0.7380
 2224TIP3   OH228162   5.081   3.708   5.086 -0.2550 -0.1456  0.3288
 2224TIP3    H128163   4.985   3.706   5.092 -0.2498 -2.5990  0.5927
 2224TIP3    H228164   5.098   3.730   4.994 -1.1471 -1.5443 -0.2044
 2225TIP3   OH228165   1.006   5.997   3.274  0.2431 -0.2179  0.7827
 2225TIP3    H128166   1.097   5.974   3.292  0.5126  0.9689  1.0617
 2225TIP3    H228167   1.007   6.092   3.262 -0.7777 -0.3138 -0.3567
 2226TIP3   OH228168   1.021   1.174   4.395  0.6536 -0.0156  0.5623
 2226TIP3    H128169   1.025   1.193   4.488  1.5053  1.1186  0.3127
 2226TIP3    H228170   1.006   1.259   4.353 -0.9494 -0.6665 -0.2740
 2227TIP3   OH228171   2.645   4.811   1.656 -0.4528  0.4373 -0.2954
 2227TIP3    H128172   2.626   4.740   1.717  0.1812  0.0185 -0.5691
 2227TIP3    H228173   2.672   4.767   1.576  0.7723  0.9686 -0.2077
 2228TIP3   OH228174   6.530   0.284  16.983 -0.2518  0.8529 -0.1096
 2228TIP3    H128175   6.619   0.287  16.949 -0.2701  0.8286 -0.1590
 2228TIP3    H228176   6.481   0.347  16.931 -0.4116  0.4053 -0.5047
 2229TIP3   OH228177   5.448   2.515   1.804 -0.3376 -0.1807  0.0890
 2229TIP3    H128178   5.437   2.560   1.720 -0.3058  1.0384  0.7134
 2229TIP3    H228179   5.360   2.491   1.830 -0.3327 -0.7038 -0.3633
 2230TIP3   OH228180   0.317   1.161   5.213 -0.4128 -0.0948  0.1000
 2230TIP3    H128181   0.308   1.203   5.128  1.0007 -0.2504 -0.1477
 2230TIP3    H228182   0.228   1.135   5.236 -0.9994  1.0785 -0.7349
 2231TIP3   OH228183   2.999   2.220  17.102 -0.2817  0.4126  0.3347
 2231TIP3    H128184   2.952   2.187  17.026 -0.4653  0.6809  0.3299
 2231TIP3    H228185   2.935   2.217  17.173 -0.1002  0.1281  0.4869
 2232TIP3   OH228186   1.009   4.113   1.035  0.2834  0.4258 -0.7994
 2232TIP3    H128187   0.944   4.068   1.087  0.3797 -0.4485 -1.4213
 2232TIP3    H228188   1.021   4.058   0.958  1.9909  0.3902 -0.5506
 2233TIP3   OH228189   3.437   3.684   2.037 -0.1301  0.2432  0.4903
 2233TIP3    H128190   3.481   3.638   2.109 -0.1971 -1.0954 -0.2930
 2233TIP3    H228191   3.496   3.756   2.015  1.8105 -1.5644 -0.6038
 2234TIP3   OH228192   2.512   1.643  12.799 -0.3033 -0.2675 -0.1092
 2234TIP3    H128193   2.506   1.626  12.706 -0.1792  2.6166 -0.7482
 2234TIP3    H228194   2.606   1.640  12.819 -0.4027 -1.9402  0.1912
 2235TIP3   OH228195   6.505   3.573  13.454  0.0186 -0.5463 -0.9104
 2235TIP3    H128196   6.506   3.657  13.501 -2.2397 -0.3999 -0.9881
 2235TIP3    H228197   6.488   3.508  13.523  2.1990 -1.0433 -0.7843
 2236TIP3   OH228198   2.212   3.772  13.621 -0.1094 -0.7371 -0.6775
 2236TIP3    H128199   2.228   3.865  13.641 -1.1632 -0.3923 -1.3467
 2236TIP3    H228200   2.183   3.735  13.704 -1.7960  0.0519 -0.8684
 2237TIP3   OH228201   5.022   0.453  15.381 -0.3378  0.4361  0.0059
 2237TIP3    H128202   4.952   0.394  15.355 -1.0608  0.6946  1.2583
 2237TIP3    H228203   5.013   0.529  15.325 -0.3328 -0.0140 -0.6096
 2238TIP3   OH228204   3.429   5.415  11.091 -0.2072  0.3484  0.2377
 2238TIP3    H128205   3.380   5.490  11.125  0.4545 -0.2827  2.7814
 2238TIP3    H228206   3.364   5.364  11.042 -1.6197  0.5546  1.8353
 2239TIP3   OH228207   5.507   6.475   0.424  0.5101 -0.4285  0.7101
 2239TIP3    H128208   5.461   6.556   0.400  0.6577 -0.5617 -0.0656
 2239TIP3    H228209   5.437   6.415   0.451  0.1745 -0.7241 -0.7338
 2240TIP3   OH228210   3.972   3.250   1.065  0.2342  0.1184  0.2101
 2240TIP3    H128211   3.892   3.240   1.013 -1.1465  1.5901  1.9364
 2240TIP3    H228212   3.962   3.186   1.136  1.1337 -0.4284 -0.1355
 2241TIP3   OH228213   0.357   0.812   5.004  0.7200 -0.9400  0.2313
 2241TIP3    H128214   0.334   0.767   5.085  0.0215 -2.7068 -0.8874
 2241TIP3    H228215   0.277   0.809   4.951  0.0663  3.1378  0.6708
 2242TIP3   OH228216   5.886   1.267  11.236  0.4927 -0.5533 -0.4814
 2242TIP3    H128217   5.923   1.283  11.149  1.4209  1.3285  0.2228
 2242TIP3    H228218   5.950   1.303  11.297 -0.8610 -0.4342  0.9312
 2243TIP3   OH228219   5.532   0.280  15.884  0.3211  0.1921 -0.3195
 2243TIP3    H128220   5.577   0.312  15.806  3.2281 -1.5286  0.4980
 2243TIP3    H228221   5.459   0.228  15.850  1.0677  0.1217 -1.8914
 2244TIP3   OH228222   4.594   0.079   4.215 -0.3259 -0.1510  0.5332
 2244TIP3    H128223   4.568   0.161   4.174  0.1654  1.4473  3.2078
 2244TIP3    H228224   4.550   0.011   4.163  0.1069  1.6456 -2.4205
 2245TIP3   OH228225   3.418   6.129  12.655  0.1216  0.1036  0.1576
 2245TIP3    H128226   3.507   6.142  12.625 -0.1634 -0.5310 -1.0152
 2245TIP3    H228227   3.368   6.203  12.619 -0.1729 -0.5320 -0.7830
 2246TIP3   OH228228   0.300   2.741  15.561 -0.1320  0.1267  0.2745
 2246TIP3    H128229   0.355   2.818  15.549 -0.2427  0.1107 -0.3889
 2246TIP3    H228230   0.360   2.672  15.590  0.1305  0.2219 -0.0311
 2247TIP3   OH228231   1.949   1.043  15.926 -0.3550  0.1932  0.2851
 2247TIP3    H128232   1.924   1.017  15.838  1.4746 -1.7136  0.2417
 2247TIP3    H228233   2.031   1.092  15.915 -0.8441  1.1957  0.8552
 2248TIP3   OH228234   2.092   2.111  14.858 -0.2995  0.1213  0.1083
 2248TIP3    H128235   2.099   2.201  14.890 -1.1642 -0.4581  2.0959
 2248TIP3    H228236   2.144   2.059  14.920 -1.4854 -0.9919  0.2105
 2249TIP3   OH228237   3.264   0.972  16.083 -0.4920  0.0276 -0.2164
 2249TIP3    H128238   3.174   0.988  16.055 -0.7924  0.9861  1.1674
 2249TIP3    H228239   3.303   1.059  16.086 -0.4994  0.0114  2.2559
 2250TIP3   OH228240   1.136   4.477   0.300 -0.1772  0.2378  0.0386
 2250TIP3    H128241   1.121   4.386   0.325  1.2804 -0.4052 -1.2463
 2250TIP3    H228242   1.137   4.476   0.204 -2.0881  1.9851 -0.0776
 2251TIP3   OH228243   3.032   0.801   6.254  0.1414 -0.0651  0.1271
 2251TIP3    H128244   2.983   0.735   6.205 -0.7932 -0.1584  1.1334
 2251TIP3    H228245   2.994   0.885   6.227 -0.3208 -0.1115  0.6096
 2252TIP3   OH228246   5.135   6.208   0.898 -0.2084 -0.5478 -0.2151
 2252TIP3    H128247   5.102   6.287   0.941 -0.5821 -2.0076  2.4045
 2252TIP3    H228248   5.217   6.236   0.858 -0.8665  1.4067 -0.3231
 2253TIP3   OH228249   4.288   6.278   4.576  0.4669 -0.4013 -0.0491
 2253TIP3    H128250   4.229   6.213   4.616  1.6075 -2.0164 -0.8740
 2253TIP3    H228251   4.234   6.321   4.510 -0.8536  0.8946  1.7642
 2254TIP3   OH228252   1.246   0.758   0.075 -0.6298 -0.7822 -0.6467
 2254TIP3    H128253   1.306   0.702   0.025 -1.3000 -0.8923 -1.3561
 2254TIP3    H228254   1.270   0.847   0.051 -1.5037 -0.8516 -1.8644
 2255TIP3   OH228255   4.627   2.347   6.028  0.4489  0.3180  0.0024
 2255TIP3    H128256   4.589   2.435   6.028  2.4463  1.2324  0.9143
 2255TIP3    H228257   4.587   2.304   6.104 -1.9496 -0.2880 -1.4980
 2256TIP3   OH228258   1.197   0.865  10.413 -0.3991 -0.5044  0.2894
 2256TIP3    H128259   1.238   0.946  10.384  1.4134 -0.1890  3.2730
 2256TIP3    H228260   1.116   0.893  10.455 -0.1158 -0.3120  0.7101
 2257TIP3   OH228261   5.022   4.678  15.221 -0.2296  0.3024  0.0702
 2257TIP3    H128262   4.948   4.636  15.177  1.9678 -1.3235 -2.3988
 2257TIP3    H228263   5.050   4.614  15.287 -0.2333  0.3387  0.1067
 2258TIP3   OH228264   4.014   6.785  11.271 -0.4143 -0.1001  0.2135
 2258TIP3    H128265   3.926   6.806  11.304 -0.4371 -1.7408  1.3357
 2258TIP3    H228266   4.040   6.861  11.220 -2.6598  0.2586 -0.4901
 2259TIP3   OH228267   5.270   3.176   3.290  0.3416  0.1626  0.0095
 2259TIP3    H128268   5.363   3.182   3.310  0.8391 -1.3659 -1.5693
 2259TIP3    H228269   5.242   3.267   3.278  1.5104  0.6711  0.9163
 2260TIP3   OH228270   3.910   3.440   6.343 -0.3184 -0.2806 -0.3494
 2260TIP3    H128271   3.973   3.509   6.324 -1.7382  1.3266  0.4580
 2260TIP3    H228272   3.871   3.418   6.258 -0.1466  0.2230 -0.5601
 2261TIP3   OH228273   0.876   1.048  11.047  0.1562 -0.7272 -0.0040
 2261TIP3    H128274   0.900   1.135  11.078  0.8221 -0.7788 -0.3538
 2261TIP3    H228275   0.823   1.011  11.117 -1.4118  0.5213 -0.4836
 2262TIP3   OH228276   4.863   1.422  12.003  0.3250  0.3034  0.2456
 2262TIP3    H128277   4.772   1.412  12.033  0.5970 -1.2346  0.6246
 2262TIP3    H228278   4.890   1.507  12.038 -0.4032 -0.0104  1.6301
 2263TIP3   OH228279   1.281   0.448  11.701  0.1628 -0.0430  0.0409
 2263TIP3    H128280   1.245   0.516  11.758  0.3979  0.4413 -0.3781
 2263TIP3    H228281   1.211   0.429  11.639 -0.4633 -1.2826  1.0651
 2264TIP3   OH228282   4.511   4.849  16.086  0.0880 -0.0765  0.2053
 2264TIP3    H128283   4.589   4.901  16.102  1.7102 -2.1529 -0.4913
 2264TIP3    H228284   4.515   4.826  15.993 -3.2589  2.5805 -0.8186
 2265TIP3   OH228285   0.531   2.077  16.337  0.1418 -0.4880 -0.3987
 2265TIP3    H128286   0.537   2.120  16.422 -1.5838 -0.1930 -0.3833
 2265TIP3    H228287   0.579   2.134  16.277  1.1519 -0.5683  0.3130
 2266TIP3   OH228288   4.708   1.318  17.205  0.0237  0.0144 -0.1591
 2266TIP3    H128289   4.757   1.400  17.207  0.4486 -0.1518 -1.7639
 2266TIP3    H228290   4.654   1.319  17.284  1.1188  1.1422  0.6086
 2267TIP3   OH228291   5.840   2.056  15.556  0.1895 -0.4787  0.1438
 2267TIP3    H128292   5.789   2.131  15.588  3.5046  2.1924 -0.2444
 2267TIP3    H228293   5.811   2.044  15.466 -1.2710 -0.5044  0.6024
 2268TIP3   OH228294   5.927   3.026  16.306  0.4404  0.0491 -0.4509
 2268TIP3    H128295   5.903   3.110  16.265 -0.1603 -0.1370 -0.4850
 2268TIP3    H228296   5.941   2.967  16.232  3.2416  0.6994 -0.5594
 2269TIP3   OH228297   6.523   3.822   0.289  0.1282  0.1315 -0.1225
 2269TIP3    H128298   6.566   3.769   0.356  0.2002 -1.7079 -1.5301
 2269TIP3    H228299   6.529   3.911   0.321  1.2407 -0.5551  1.7222
 2270TIP3   OH228300   2.479   5.834   0.758 -0.0278 -0.2037 -0.3544
 2270TIP3    H128301   2.497   5.914   0.807  0.4106 -0.4909 -0.0513
 2270TIP3    H228302   2.383   5.830   0.754 -0.0804  1.1418 -1.6814
 2271TIP3   OH228303   4.011   6.458  15.356 -0.6942 -0.8929 -0.1379
 2271TIP3    H128304   3.920   6.441  15.331 -1.2690  2.2207 -0.5212
 2271TIP3    H228305   4.016   6.432  15.448 -1.8502 -1.4025 -0.2013
 2272TIP3   OH228306   2.990   5.281  11.090 -0.2412  0.2974 -0.1548
 2272TIP3    H128307   2.907   5.275  11.138  0.9459 -0.9453  1.8835
 2272TIP3    H228308   2.986   5.367  11.047 -1.2166  1.7797  2.6258
 2273TIP3   OH228309   1.756   3.680   2.494  0.4377 -0.1736  0.2174
 2273TIP3    H128310   1.765   3.610   2.429  1.0998 -0.0208  0.1358
 2273TIP3    H228311   1.707   3.640   2.566 -0.0775 -0.4194 -0.2611
 2274TIP3   OH228312   5.040   0.735  16.688 -0.0884 -0.2705 -0.0968
 2274TIP3    H128313   4.959   0.738  16.637 -0.9090 -1.1079  1.0942
 2274TIP3    H228314   5.072   0.645  16.677  1.0337  0.2155 -1.0404
 2275TIP3   OH228315   5.554   0.099   5.762 -0.3354 -0.5686 -0.0361
 2275TIP3    H128316   5.595   0.140   5.686 -1.4369  0.8732  0.1013
 2275TIP3    H228317   5.592   0.011   5.766 -0.1908 -0.6511 -2.1959
 2276TIP3   OH228318   0.361   1.282  14.795  0.2456 -0.6251  0.1229
 2276TIP3    H128319   0.335   1.263  14.705  1.3009 -1.9258  0.0704
 2276TIP3    H228320   0.356   1.378  14.802 -0.4696 -0.5567 -1.1022
 2277TIP3   OH228321   1.466   2.892   3.339 -0.7955  0.6324  0.0937
 2277TIP3    H128322   1.456   2.830   3.267  1.3716 -0.4705  0.6586
 2277TIP3    H228323   1.471   2.837   3.417  1.8749  1.3656  0.5507
 2278TIP3   OH228324   1.831   5.915   0.627  0.4409 -0.6356 -0.0406
 2278TIP3    H128325   1.803   5.963   0.549  1.9139  1.4233  0.5772
 2278TIP3    H228326   1.758   5.858   0.648 -1.3196  1.0907 -1.0984
 2279TIP3   OH228327   4.432   2.333  13.137 -0.5497 -0.0796  0.1875
 2279TIP3    H128328   4.400   2.416  13.175 -0.3279 -0.4826  1.3037
 2279TIP3    H228329   4.518   2.355  13.103 -0.7045  0.2727  0.0147
 2280TIP3   OH228330   5.361   1.277  13.995 -0.0025 -0.3510  0.2411
 2280TIP3    H128331   5.315   1.242  14.071  0.8913  0.7518  1.3260
 2280TIP3    H228332   5.401   1.200  13.954  0.2491 -0.8572  1.4020
 2281TIP3   OH228333   2.772   3.904   1.781  0.0067  0.3611 -0.4414
 2281TIP3    H128334   2.757   3.903   1.876 -0.3113  2.5867 -0.4214
 2281TIP3    H228335   2.845   3.844   1.768 -2.0506 -2.6543  0.7507
 2282TIP3   OH228336   0.686   3.112  14.829 -0.6611  0.3062 -0.0983
 2282TIP3    H128337   0.626   3.187  14.821 -1.3031 -0.2598 -0.7778
 2282TIP3    H228338   0.691   3.076  14.740 -1.0462 -0.9777  0.3793
 2283TIP3   OH228339   0.397   2.527   3.306 -0.1396 -0.5565  1.0089
 2283TIP3    H128340   0.376   2.527   3.399 -0.2634  0.5849  0.9963
 2283TIP3    H228341   0.323   2.571   3.264  1.3208  1.8652  0.7628
 2284TIP3   OH228342   6.759   4.190  12.453  0.2272  0.4905  0.4388
 2284TIP3    H128343   6.853   4.177  12.465  0.1931 -0.4604 -0.2135
 2284TIP3    H228344   6.750   4.216  12.361 -0.3447 -2.0549 -0.3113
 2285TIP3   OH228345   2.632   6.130  12.745  0.1350  0.3493  0.0704
 2285TIP3    H128346   2.596   6.094  12.825 -1.3915  0.5061 -0.5117
 2285TIP3    H228347   2.722   6.098  12.742 -0.1372 -0.5826  1.2656
 2286TIP3   OH228348   0.360   0.476  10.533  0.4366  0.1348  0.0520
 2286TIP3    H128349   0.330   0.414  10.467  0.0143  0.5554 -0.1567
 2286TIP3    H228350   0.408   0.542  10.484  0.4356  0.2545  0.2107
 2287TIP3   OH228351   1.624   2.831  12.966 -0.2801 -0.2577 -0.1230
 2287TIP3    H128352   1.640   2.921  12.938 -0.4921 -0.1474  0.1104
 2287TIP3    H228353   1.551   2.838  13.028 -0.6959 -0.6573 -0.5611
 2288TIP3   OH228354   4.838   3.775   0.571  0.2724 -0.8524  0.2372
 2288TIP3    H128355   4.867   3.794   0.481  0.4180  0.5791  0.5639
 2288TIP3    H228356   4.746   3.751   0.561  0.1707 -0.2871 -0.2644
 2289TIP3   OH228357   1.895   0.637   4.601 -0.1745  0.0274 -0.0710
 2289TIP3    H128358   1.953   0.612   4.672  0.6176 -0.2990 -0.8251
 2289TIP3    H228359   1.885   0.558   4.548 -0.7295  0.2729 -0.3494
 2290TIP3   OH228360   3.102   3.353  12.083  0.2556 -0.6891  0.5007
 2290TIP3    H128361   3.194   3.354  12.107  0.1928  0.6279  0.7498
 2290TIP3    H228362   3.060   3.300  12.150  0.5583  0.3258  1.5298
 2291TIP3   OH228363   5.425   2.491  15.430  0.2033 -0.4598 -0.7561
 2291TIP3    H128364   5.359   2.547  15.388  0.6240 -0.8277 -1.9456
 2291TIP3    H228365   5.376   2.442  15.496 -0.1437  1.4620  0.4962
 2292TIP3   OH228366   3.699   2.031  16.870 -0.1255  0.0029  0.4050
 2292TIP3    H128367   3.747   2.074  16.800 -0.5388  0.5610  0.4609
 2292TIP3    H228368   3.693   1.940  16.843  0.5214  0.0317  0.1562
 2293TIP3   OH228369   1.284   4.270  16.820  0.3150  0.1087 -0.6244
 2293TIP3    H128370   1.277   4.223  16.737  1.6745 -0.8246 -0.2509
 2293TIP3    H228371   1.371   4.246  16.854  1.0964  2.9185 -0.4095
 2294TIP3   OH228372   6.374   3.550   1.642 -0.1286 -0.3016  0.0835
 2294TIP3    H128373   6.328   3.629   1.615 -0.8306 -0.7308  0.0122
 2294TIP3    H228374   6.315   3.507   1.704  0.5427 -0.4266  0.6555
 2295TIP3   OH228375   2.693   5.493  14.870 -0.0998 -0.0500  0.1722
 2295TIP3    H128376   2.730   5.573  14.832  0.7308 -0.1170  0.8270
 2295TIP3    H228377   2.766   5.453  14.916 -0.7568 -0.6999  0.6486
 2296TIP3   OH228378   0.798   1.698   4.940 -0.5223 -0.0588  0.3764
 2296TIP3    H128379   0.711   1.698   4.900 -1.3546 -2.0448  1.9798
 2296TIP3    H228380   0.830   1.609   4.927  1.4458  0.7204 -0.4472
 2297TIP3   OH228381   3.745   0.494   3.803 -0.1622 -0.4074 -0.0536
 2297TIP3    H128382   3.657   0.474   3.835  0.3029 -1.3509  0.7086
 2297TIP3    H228383   3.802   0.443   3.860  0.8403 -0.2770 -0.9295
 2298TIP3   OH228384   5.129   2.983   2.660 -0.5176 -0.2507  0.4209
 2298TIP3    H128385   5.037   2.970   2.638 -0.1065 -0.1271 -1.5021
 2298TIP3    H228386   5.177   2.931   2.595  0.8479  2.2653 -0.7337
 2299TIP3   OH228387   3.879   5.368   3.058 -0.0600  0.4215  0.1482
 2299TIP3    H128388   3.836   5.288   3.029 -0.4798  0.8260 -0.3803
 2299TIP3    H228389   3.865   5.430   2.986 -1.8343  1.7055  1.4771
 2300TIP3   OH228390   6.410   3.648   1.278  0.3409  0.7623 -0.2184
 2300TIP3    H128391   6.406   3.658   1.373  0.1479  1.5118 -0.3025
 2300TIP3    H228392   6.414   3.737   1.244  0.3424  0.5047 -0.9200
 2301TIP3   OH228393   3.026   1.876  15.905  0.2721 -0.2689  0.7134
 2301TIP3    H128394   2.936   1.858  15.875  0.4153 -1.5861  1.0281
 2301TIP3    H228395   3.040   1.968  15.882 -0.7651 -0.3421 -0.3364
 2302TIP3   OH228396   5.461   1.858   2.090 -0.1505 -0.8196  0.0313
 2302TIP3    H128397   5.553   1.865   2.116 -0.2039  0.2143 -0.0160
 2302TIP3    H228398   5.431   1.777   2.130  0.5250 -0.6774  0.8548
 2303TIP3   OH228399   4.627   1.963   2.629 -0.7209  0.0409  0.3252
 2303TIP3    H128400   4.614   1.902   2.557 -0.1082  1.5398 -1.1054
 2303TIP3    H228401   4.688   1.918   2.688  1.3008 -0.0047 -1.6728
 2304TIP3   OH228402   1.289   3.246   1.482  0.0016 -0.4156  0.2974
 2304TIP3    H128403   1.246   3.190   1.418  0.9650  0.2196 -0.9498
 2304TIP3    H228404   1.380   3.217   1.482  0.1709  0.0944  0.8175
 2305TIP3   OH228405   6.823   1.169  15.100  0.4109  0.0617 -0.4188
 2305TIP3    H128406   6.828   1.110  15.025 -2.7728 -3.4168  1.7618
 2305TIP3    H228407   6.899   1.147  15.154 -0.4875 -1.8770  0.1382
 2306TIP3   OH228408   2.883   4.758   6.235  0.6610  0.2300  0.7390
 2306TIP3    H128409   2.954   4.822   6.235  1.6173 -0.7685 -0.3642
 2306TIP3    H228410   2.897   4.706   6.314 -0.5534  1.7920  2.0293
 2307TIP3   OH228411   3.484   6.308   0.399 -0.7215 -0.0751  0.2137
 2307TIP3    H128412   3.458   6.262   0.479 -0.9329  1.9067  1.3466
 2307TIP3    H228413   3.403   6.315   0.348 -0.8353 -0.2860  0.3629
 2308TIP3   OH228414   0.993   4.699  10.953  0.2659 -0.1775 -0.0409
 2308TIP3    H128415   1.005   4.786  10.914  0.8006 -0.5117 -0.6235
 2308TIP3    H228416   1.043   4.640  10.898 -0.4490 -0.9351  0.0963
 2309TIP3   OH228417   3.644   2.279  16.284 -0.1341  0.0000  0.2644
 2309TIP3    H128418   3.728   2.313  16.255 -0.7265  2.3441  1.0881
 2309TIP3    H228419   3.661   2.240  16.370 -0.1818  2.4725  1.4955
 2310TIP3   OH228420   4.641   1.321   0.952  0.0141 -0.3343  0.1689
 2310TIP3    H128421   4.662   1.232   0.924 -1.3040 -0.1947 -1.3556
 2310TIP3    H228422   4.622   1.312   1.046 -3.2145 -2.2962 -0.5089
 2311TIP3   OH228423   6.774   2.716  16.143 -0.4246 -0.2052  0.4494
 2311TIP3    H128424   6.763   2.789  16.082  1.3723 -2.2068 -2.5614
 2311TIP3    H228425   6.866   2.719  16.168 -0.6963 -0.5520  1.5334
 2312TIP3   OH228426   5.478   0.028  15.999  0.1474  0.2326  0.0820
 2312TIP3    H128427   5.508   0.116  15.974 -1.2719  1.1819  1.5064
 2312TIP3    H228428   5.429   0.042  16.080 -1.6627 -1.6035 -0.6144
 2313TIP3   OH228429   4.162   2.178  15.303 -0.2435 -0.1067 -0.6854
 2313TIP3    H128430   4.179   2.164  15.397 -0.1973  1.1513 -0.4829
 2313TIP3    H228431   4.212   2.109  15.259 -2.7862 -2.7983  0.2839
 2314TIP3   OH228432   2.553   6.207  14.787 -0.3175  0.2577  0.4724
 2314TIP3    H128433   2.565   6.196  14.882  1.3107 -0.2306  0.2279
 2314TIP3    H228434   2.595   6.291  14.768  1.4238 -0.7134 -0.1502
 2315TIP3   OH228435   3.431   2.946  17.114  0.2087  0.2118  0.2970
 2315TIP3    H128436   3.491   2.945  17.188  0.9809  0.3941 -0.3252
 2315TIP3    H228437   3.384   3.029  17.122  0.6689  0.4765  0.2883
 2316TIP3   OH228438   1.844   4.600   5.753 -0.1139  0.7683  0.0030
 2316TIP3    H128439   1.838   4.694   5.768 -0.5506  0.9417 -1.1335
 2316TIP3    H228440   1.781   4.583   5.682 -0.1753 -0.4062  0.3175
 2317TIP3   OH228441   3.270   2.906  14.192  0.1745 -0.5285 -0.1609
 2317TIP3    H128442   3.329   2.932  14.263  0.2292 -2.0519  0.3827
 2317TIP3    H228443   3.328   2.899  14.116  0.3005  0.0781 -0.1325
 2318TIP3   OH228444   0.756   6.727   4.818  0.0477  0.1327  0.2166
 2318TIP3    H128445   0.768   6.765   4.905  1.5558  0.0797  0.0711
 2318TIP3    H228446   0.840   6.685   4.799 -0.2178  0.2351 -1.3035
 2319TIP3   OH228447   0.222   1.737   2.124  0.3982 -0.1764  0.7020
 2319TIP3    H128448   0.226   1.644   2.145  1.0792  0.3124  2.9444
 2319TIP3    H228449   0.269   1.781   2.195  0.2554  1.8833 -0.3809
 2320TIP3   OH228450   1.371   5.363  16.008  0.0427  0.2786 -0.0445
 2320TIP3    H128451   1.405   5.407  15.930 -2.0564 -0.0457 -1.1899
 2320TIP3    H228452   1.312   5.297  15.975  1.4923 -2.0724  1.7313
 2321TIP3   OH228453   1.876   3.188   6.538 -0.7931 -0.3814 -0.1729
 2321TIP3    H128454   1.937   3.150   6.601 -0.4022 -0.2228 -0.4526
 2321TIP3    H228455   1.898   3.281   6.536 -1.6972 -0.1369  0.4577
 2322TIP3   OH228456   0.013   1.976  16.401 -0.0081  0.1318 -0.3431
 2322TIP3    H128457  -0.071   1.931  16.387  0.5116 -0.9827  0.0082
 2322TIP3    H228458   0.025   2.029  16.322 -0.6250 -0.3730 -0.7870
 2323TIP3   OH228459   1.705   3.406  16.200 -0.0537  0.0938  0.2484
 2323TIP3    H128460   1.655   3.488  16.192 -0.4498 -0.1874 -0.2306
 2323TIP3    H228461   1.737   3.407  16.290 -0.8463  0.3308  0.5437
 2324TIP3   OH228462   2.934   4.753   0.052 -0.0567  0.3463 -0.7348
 2324TIP3    H128463   2.885   4.764  -0.030  0.4846 -0.7492 -1.2186
 2324TIP3    H228464   2.967   4.663   0.049  0.6335  0.5440  0.3288
 2325TIP3   OH228465   0.595   3.775   1.205 -0.2989 -0.1227 -0.1122
 2325TIP3    H128466   0.531   3.713   1.170 -0.5054 -0.2741  0.5138
 2325TIP3    H228467   0.643   3.724   1.271  0.8189 -0.1689 -0.9313
 2326TIP3   OH228468   3.136   2.695  11.616  0.1566 -0.1463  0.2427
 2326TIP3    H128469   3.100   2.649  11.540 -0.9124  0.5072  0.3277
 2326TIP3    H228470   3.135   2.787  11.590 -2.3845  0.3626  1.8233
 2327TIP3   OH228471   2.513   4.130  16.429  0.1196  0.2710  0.3367
 2327TIP3    H128472   2.518   4.073  16.506 -1.6912 -0.0251  0.2939
 2327TIP3    H228473   2.604   4.153  16.410  0.8034 -1.4806  1.1951
 2328TIP3   OH228474   0.078   3.260  14.031 -0.2226 -0.0825 -0.4804
 2328TIP3    H128475   0.070   3.201  14.106  0.8665 -0.2071 -0.4445
 2328TIP3    H228476   0.152   3.226  13.982 -2.5500 -1.6867 -3.1684
 2329TIP3   OH228477   3.650   3.271   2.059  0.1374 -0.1050 -0.1477
 2329TIP3    H128478   3.559   3.246   2.077 -0.6793  2.3104 -0.6048
 2329TIP3    H228479   3.688   3.288   2.146 -0.2732  0.2334 -0.0327
 2330TIP3   OH228480   0.776   0.471  14.035 -0.1251 -0.6569  0.0944
 2330TIP3    H128481   0.752   0.384  14.067 -1.6576 -0.0995  0.5443
 2330TIP3    H228482   0.693   0.518  14.028  0.6943  0.8771  0.1865
 2331TIP3   OH228483   3.567   1.391  13.089 -0.1658  0.2088 -0.4302
 2331TIP3    H128484   3.471   1.384  13.089 -0.5037  2.6602  2.1186
 2331TIP3    H228485   3.585   1.479  13.055  1.1502 -0.0412 -0.4457
 2332TIP3   OH228486   2.228   3.770  12.057 -0.0406  0.3115 -0.4090
 2332TIP3    H128487   2.213   3.694  12.000 -1.0971  1.5867 -1.9567
 2332TIP3    H228488   2.185   3.842  12.011  1.4315  1.9830  0.7069
 2333TIP3   OH228489   2.900   6.259   6.144 -0.0397  0.4426  0.5016
 2333TIP3    H128490   2.927   6.190   6.205 -2.8971 -0.5940  0.7734
 2333TIP3    H228491   2.888   6.214   6.060  1.2611  1.3284 -0.1949
 2334TIP3   OH228492   5.436   4.942  11.167 -0.1040  0.3298  0.0976
 2334TIP3    H128493   5.368   4.877  11.151 -0.1855  0.6553 -0.9672
 2334TIP3    H228494   5.389   5.025  11.173 -0.1087  0.2050  2.4233
 2335TIP3   OH228495   0.822   1.221  16.551 -0.2243  0.0803 -0.0302
 2335TIP3    H128496   0.890   1.283  16.577 -1.4562  0.9994  1.1218
 2335TIP3    H228497   0.853   1.136  16.583  0.8264  0.3162 -0.3979
 2336TIP3   OH228498   5.387   2.260   3.071 -0.1219  0.5154 -0.0837
 2336TIP3    H128499   5.398   2.347   3.034  2.4176  1.0782  1.7642
 2336TIP3    H228500   5.399   2.201   2.996 -1.9477  1.6738 -1.3759
 2337TIP3   OH228501   3.851   4.647   4.834 -0.8340 -0.0615  0.3810
 2337TIP3    H128502   3.784   4.621   4.771 -0.2663  0.6787 -0.5580
 2337TIP3    H228503   3.822   4.733   4.866  0.3844  0.9898 -1.1759
 2338TIP3   OH228504   6.472   4.195   4.138  0.5535  0.1579 -0.3066
 2338TIP3    H128505   6.512   4.255   4.201 -0.0608  1.3993 -1.0693
 2338TIP3    H228506   6.541   4.132   4.118  1.3155  0.7837  0.2766
 2339TIP3   OH228507   2.414   0.452   3.991  0.0003  0.3174  0.0301
 2339TIP3    H128508   2.503   0.418   3.993 -0.4362 -0.8794 -0.3097
 2339TIP3    H228509   2.376   0.428   4.075 -0.1489  0.4463  0.0017
 2340TIP3   OH228510   6.503   6.129  14.545 -0.9756 -0.7266  0.1549
 2340TIP3    H128511   6.469   6.188  14.612  0.7267  0.4206  0.0623
 2340TIP3    H228512   6.454   6.152  14.466  1.1722  2.2677 -0.4715
 2341TIP3   OH228513   5.681   1.967  11.167 -0.1350 -0.6905 -0.2786
 2341TIP3    H128514   5.733   1.889  11.188  1.2734  0.5889  1.2855
 2341TIP3    H228515   5.741   2.022  11.117 -1.1500 -0.6312 -1.4574
 2342TIP3   OH228516   1.342   4.917  15.289  0.2308  0.2005  0.3595
 2342TIP3    H128517   1.396   4.992  15.317  0.8773  0.4426 -1.4406
 2342TIP3    H228518   1.403   4.859  15.245  0.2678 -2.6567  3.7076
 2343TIP3   OH228519   3.629   4.597   4.690  0.0965  0.2913  0.1362
 2343TIP3    H128520   3.541   4.611   4.725 -0.2698  1.1326 -1.0823
 2343TIP3    H228521   3.623   4.514   4.643  0.7268 -1.1267  2.3782
 2344TIP3   OH228522   5.902   5.970   0.926  0.4035 -0.3511 -0.5154
 2344TIP3    H128523   5.933   5.903   0.865  0.8631 -0.6537  0.0363
 2344TIP3    H228524   5.851   6.030   0.872 -0.8499 -1.6790 -0.8536
 2345TIP3   OH228525   5.242   0.988  12.048  0.0117  0.5454  0.2692
 2345TIP3    H128526   5.252   1.078  12.019 -1.5529  0.6261 -0.1307
 2345TIP3    H228527   5.198   0.995  12.133 -1.0210  0.1602 -0.2151
 2346TIP3   OH228528   6.146   0.812   4.331  0.6150 -0.7273  0.2186
 2346TIP3    H128529   6.222   0.784   4.382 -0.6100 -2.6585  1.0925
 2346TIP3    H228530   6.073   0.811   4.394 -0.1789  1.0458 -0.5963
 2347TIP3   OH228531   4.286   2.423   2.849  0.0589 -0.7640 -0.1642
 2347TIP3    H128532   4.345   2.384   2.913  0.9766 -2.1158 -1.7243
 2347TIP3    H228533   4.199   2.415   2.888  0.7131 -0.3421  1.4321
 2348TIP3   OH228534   0.860   3.802   0.394  0.1959  0.2207 -0.2286
 2348TIP3    H128535   0.871   3.808   0.299  0.1387 -0.3966 -0.2757
 2348TIP3    H228536   0.768   3.779   0.406 -0.0947  1.4265  0.0259
 2349TIP3   OH228537   5.790   4.626  12.607  0.1685 -0.2941 -0.1945
 2349TIP3    H128538   5.875   4.581  12.612  0.8361  1.0443  2.0759
 2349TIP3    H228539   5.743   4.598  12.685 -3.2964 -4.0931 -3.1991
 2350TIP3   OH228540   3.579   0.035  12.979  0.2098  0.6638  0.1111
 2350TIP3    H128541   3.494   0.077  12.966 -0.0626 -0.4383 -2.1816
 2350TIP3    H228542   3.629   0.059  12.901  0.3435 -2.4442 -0.8961
 2351TIP3   OH228543   3.565   1.036  16.548 -0.5950 -0.0336 -0.2682
 2351TIP3    H128544   3.580   1.102  16.616  0.5563 -1.1492  0.6028
 2351TIP3    H228545   3.579   0.952  16.593 -3.8391 -1.0223 -0.8427
 2352TIP3   OH228546   6.594   3.970  11.814  0.0319 -0.3998  0.2162
 2352TIP3    H128547   6.606   4.065  11.816  0.0275 -0.4145  1.8191
 2352TIP3    H228548   6.500   3.958  11.799 -0.1199 -0.1317  0.9197
 2353TIP3   OH228549   0.925   5.977   0.315 -0.0701 -0.2873  0.0588
 2353TIP3    H128550   0.861   5.911   0.286 -2.0732  1.8120 -0.6025
 2353TIP3    H228551   0.994   5.974   0.248 -0.4987 -1.1621 -0.3716
 2354TIP3   OH228552   4.988   5.146   4.936 -0.7151  0.1110 -0.0345
 2354TIP3    H128553   4.949   5.165   5.021 -0.5820 -0.1516  0.0897
 2354TIP3    H228554   5.001   5.051   4.937  2.9963  0.4400  1.3202
 2355TIP3   OH228555   0.607   5.941   3.558  0.1075  0.1552  0.6208
 2355TIP3    H128556   0.563   6.014   3.603  1.1333  1.3012 -0.1993
 2355TIP3    H228557   0.700   5.953   3.576  0.2761 -1.1936  0.7921
 2356TIP3   OH228558   2.453   4.340  11.364  0.0493  0.3578  0.0484
 2356TIP3    H128559   2.409   4.308  11.443  0.0946 -0.4629 -0.2539
 2356TIP3    H228560   2.493   4.423  11.391 -0.7788  0.5906  0.6154
 2357TIP3   OH228561   4.648   0.793  12.352 -0.3457 -0.9927  0.4666
 2357TIP3    H128562   4.629   0.873  12.302  1.7411  0.4510  1.7910
 2357TIP3    H228563   4.675   0.729  12.286  0.9602  0.4031 -0.4339
 2358TIP3   OH228564   5.072   0.546   4.697 -0.0341 -0.6102 -0.3255
 2358TIP3    H128565   5.103   0.571   4.784  1.7976  0.8356 -1.3354
 2358TIP3    H228566   4.992   0.597   4.684  0.5535  0.3840 -0.1067
 2359TIP3   OH228567   0.459   6.559  15.064 -0.2903  0.7135  0.4103
 2359TIP3    H128568   0.496   6.471  15.054 -1.8230  0.1559 -0.7101
 2359TIP3    H228569   0.387   6.547  15.127 -0.1827  1.2828  0.6497
 2360TIP3   OH228570   6.593   4.351   3.927 -0.7741  0.8070  0.0696
 2360TIP3    H128571   6.657   4.419   3.905 -1.3339  1.6933  1.0994
 2360TIP3    H228572   6.644   4.270   3.930 -0.3488  0.8819 -2.6291
 2361TIP3   OH228573   6.389   0.812   4.085 -0.4002 -0.1664  0.0517
 2361TIP3    H128574   6.449   0.820   4.158  2.7437 -2.1477 -2.0596
 2361TIP3    H228575   6.397   0.894   4.038  1.9295 -0.8928 -0.9593
 2362TIP3   OH228576   4.998   2.903  14.012 -0.4614 -0.1164 -0.0077
 2362TIP3    H128577   4.942   2.829  13.990 -1.6082  0.2643  1.4631
 2362TIP3    H228578   4.996   2.959  13.934  0.0865 -1.3914 -0.9730
 2363TIP3   OH228579   3.875   3.724   4.443  0.1020 -0.3247  0.5231
 2363TIP3    H128580   3.830   3.699   4.524 -0.6517  0.3211  0.3247
 2363TIP3    H228581   3.883   3.819   4.448  1.7704 -0.4566  0.6903
 2364TIP3   OH228582   5.612   6.508  13.790 -0.1690  0.4239 -0.0652
 2364TIP3    H128583   5.619   6.416  13.815  0.1102  0.0707 -1.3967
 2364TIP3    H228584   5.590   6.553  13.872  0.8352 -0.6641  0.8370
 2365TIP3   OH228585   5.796   1.568  16.391 -0.6210  0.1427 -0.0075
 2365TIP3    H128586   5.705   1.588  16.370 -0.6540  0.0685  0.0661
 2365TIP3    H228587   5.793   1.529  16.478 -0.7721 -1.8050 -0.8122
 2366TIP3   OH228588   2.742   6.565   2.933 -0.1091 -0.0347 -0.3046
 2366TIP3    H128589   2.776   6.653   2.950  0.2472  0.1662 -1.9587
 2366TIP3    H228590   2.649   6.579   2.916 -0.0323  0.0291 -0.6668
 2367TIP3   OH228591   1.703   0.044   3.368 -0.2784 -0.1995  0.1117
 2367TIP3    H128592   1.741   0.124   3.332 -0.7579 -0.3726 -0.8114
 2367TIP3    H228593   1.633   0.021   3.307 -0.0422 -1.4177  0.2689
 2368TIP3   OH228594   5.935   2.267  12.193  0.1419 -0.2480 -0.1107
 2368TIP3    H128595   5.998   2.247  12.263  0.3398  0.3632 -0.1067
 2368TIP3    H228596   5.982   2.327  12.135 -0.1519 -0.4535 -0.5674
 2369TIP3   OH228597   5.068   6.059  13.080 -0.4301  0.0672  0.2396
 2369TIP3    H128598   5.057   5.991  13.014 -0.8276  0.5003 -0.1540
 2369TIP3    H228599   5.148   6.035  13.128  1.0939  0.8403 -1.7547
 2370TIP3   OH228600   1.867   3.675  14.258  0.2651  0.0796  0.1669
 2370TIP3    H128601   1.866   3.669  14.162  0.3617 -1.4566  0.2396
 2370TIP3    H228602   1.874   3.585  14.288 -0.2369  0.4965  1.6445
 2371TIP3   OH228603   1.687   6.355  16.574 -0.1163  0.1974 -0.6476
 2371TIP3    H128604   1.760   6.335  16.515 -0.8698 -1.8921 -0.9602
 2371TIP3    H228605   1.630   6.278  16.569 -1.7313  1.2468  0.5316
 2372TIP3   OH228606   5.938   5.740  16.941 -0.2287  0.1315  0.0728
 2372TIP3    H128607   5.876   5.794  16.891  0.0605 -0.0855 -0.5243
 2372TIP3    H228608   5.884   5.696  17.006 -0.6283  0.3240 -0.1245
 2373TIP3   OH228609   6.395   4.323   3.465 -0.2602  0.2726 -0.2733
 2373TIP3    H128610   6.319   4.371   3.433  2.0168  2.0077 -3.8455
 2373TIP3    H228611   6.423   4.372   3.542 -1.4422  1.0066 -0.2814
 2374TIP3   OH228612   5.096   3.699  15.306 -0.4389 -0.2227 -0.0563
 2374TIP3    H128613   5.069   3.764  15.371 -1.5287  0.2154 -0.9213
 2374TIP3    H228614   5.072   3.615  15.346 -0.4204 -0.0133  0.4117
 2375TIP3   OH228615   4.498   5.487   5.389 -0.5625  0.6076 -0.2084
 2375TIP3    H128616   4.407   5.468   5.412 -0.9795  0.3349 -1.8956
 2375TIP3    H228617   4.539   5.400   5.382 -0.2215  0.7210  0.3305
 2376TIP3   OH228618   1.622   2.439  12.743  0.2978 -0.8688  0.2152
 2376TIP3    H128619   1.610   2.516  12.688 -0.9360 -0.1445  1.4368
 2376TIP3    H228620   1.542   2.388  12.731  1.2079 -2.1448 -0.7816
 2377TIP3   OH228621   0.513   1.084   1.532 -0.1246  0.0970  0.2175
 2377TIP3    H128622   0.422   1.102   1.556  0.0778  1.0968  0.2934
 2377TIP3    H228623   0.541   1.162   1.484  0.6645 -0.2400  0.1182
 2378TIP3   OH228624   6.081   3.669   1.262 -0.1681  0.8549 -0.4421
 2378TIP3    H128625   6.168   3.695   1.292 -0.3708  1.6393 -0.5023
 2378TIP3    H228626   6.083   3.684   1.167 -0.9034  2.5672 -0.2342
 2379TIP3   OH228627   6.615   2.416  11.594  0.1056 -0.3021 -0.0483
 2379TIP3    H128628   6.543   2.444  11.537 -0.2868  1.9969  1.4337
 2379TIP3    H228629   6.575   2.410  11.681  1.5873  0.6382  0.7311
 2380TIP3   OH228630   3.799   1.707   2.548  0.0273 -0.3210  0.3225
 2380TIP3    H128631   3.761   1.754   2.474  0.7223 -0.9627 -0.4604
 2380TIP3    H228632   3.730   1.705   2.614 -0.0789  1.6436  0.3236
 2381TIP3   OH228633   6.267   5.683  16.813 -0.3878  0.3033  0.1211
 2381TIP3    H128634   6.199   5.725  16.865 -0.2822  0.5668  0.0470
 2381TIP3    H228635   6.248   5.590  16.819  0.9747  0.0993  2.6129
 2382TIP3   OH228636   6.840   2.454   3.223 -0.0701  0.1606  0.2668
 2382TIP3    H128637   6.905   2.460   3.153 -1.4132  0.7748 -0.9747
 2382TIP3    H228638   6.874   2.513   3.291 -0.5608  2.5564 -1.4455
 2383TIP3   OH228639   5.249   2.341   0.487 -0.0444  0.7034  0.6667
 2383TIP3    H128640   5.230   2.432   0.512  0.2064  0.6903  0.9003
 2383TIP3    H228641   5.268   2.346   0.393  0.6679  0.9989  0.8231
 2384TIP3   OH228642   5.141   5.659   0.555 -0.0834 -0.0484 -0.0028
 2384TIP3    H128643   5.169   5.602   0.484  2.3034  0.7465  0.2058
 2384TIP3    H228644   5.201   5.639   0.627 -1.2630  0.4690  1.1621
 2385TIP3   OH228645   4.277   3.377  13.688 -0.3148  0.0800  0.0413
 2385TIP3    H128646   4.196   3.369  13.739  0.3313  2.0255  1.4683
 2385TIP3    H228647   4.338   3.423  13.745  1.1670  0.4416 -1.7247
 2386TIP3   OH228648   3.109   1.664   3.887  0.1446 -0.1093  0.1781
 2386TIP3    H128649   3.098   1.758   3.872  0.7015  0.1062  1.0449
 2386TIP3    H228650   3.155   1.633   3.809 -1.7443 -0.0574 -1.0320
 2387TIP3   OH228651   3.151   5.794  13.711 -0.3631 -0.0094  0.0911
 2387TIP3    H128652   3.173   5.813  13.620 -1.2479  0.2065 -0.0877
 2387TIP3    H228653   3.227   5.747  13.745  1.0236  1.9868 -0.0720
 2388TIP3   OH228654   2.196   4.461  10.263  0.5175  0.9166  0.2407
 2388TIP3    H128655   2.209   4.482  10.356  1.1832  0.4797  0.2595
 2388TIP3    H228656   2.250   4.524  10.216  0.3832  0.9723  0.1598
 2389TIP3   OH228657   0.850   2.748  14.233 -0.0554 -0.4324 -0.1272
 2389TIP3    H128658   0.932   2.732  14.281 -1.1324 -0.5217  1.7995
 2389TIP3    H228659   0.786   2.768  14.302 -1.3613  0.9936 -1.6710
 2390TIP3   OH228660   1.807   6.775  14.349  0.4677  0.0862 -0.2658
 2390TIP3    H128661   1.752   6.697  14.356  0.4689 -0.0227 -1.2960
 2390TIP3    H228662   1.813   6.792  14.255  2.2211  0.0588 -0.2065
 2391TIP3   OH228663   1.672   1.671   5.463 -0.4370  0.5097  0.1947
 2391TIP3    H128664   1.584   1.687   5.428 -0.1084  0.9056 -0.4641
 2391TIP3    H228665   1.690   1.746   5.520 -0.4877  0.4778  0.2522
 2392TIP3   OH228666   0.859   1.300  12.845 -0.5424 -0.2743  0.3006
 2392TIP3    H128667   0.943   1.269  12.878  0.1947  1.5705  0.2920
 2392TIP3    H228668   0.847   1.386  12.887 -2.2774 -0.3494  0.0635
 2393TIP3   OH228669   3.019   4.989  12.264 -0.1267  0.2277 -0.3261
 2393TIP3    H128670   3.086   5.015  12.328  0.1306  0.1518 -0.5659
 2393TIP3    H228671   3.033   4.895  12.252 -1.8518 -0.3489  1.4938
 2394TIP3   OH228672   0.002   4.431  11.060 -0.7108 -0.0425 -0.0289
 2394TIP3    H128673   0.087   4.474  11.050 -0.8677  0.6681  1.4038
 2394TIP3    H228674  -0.022   4.403  10.971  1.2439 -0.7309 -0.3762
 2395TIP3   OH228675   4.736   1.107   4.087 -0.5732 -0.4366 -0.3253
 2395TIP3    H128676   4.770   1.151   4.165  1.1700 -0.9096 -0.7777
 2395TIP3    H228677   4.684   1.174   4.042  0.2264  0.5058  0.1206
 2396TIP3   OH228678   4.933   6.036   0.030 -0.5521  0.2134 -0.4525
 2396TIP3    H128679   5.027   6.048   0.045 -0.6486 -0.9863  1.4382
 2396TIP3    H228680   4.897   6.018   0.117 -2.2002 -1.3749 -1.3969
 2397TIP3   OH228681   2.064   0.072   5.513  0.2862 -0.5314 -0.2701
 2397TIP3    H128682   2.149   0.113   5.530  0.0983 -0.2788  0.0668
 2397TIP3    H228683   2.039   0.034   5.597 -0.3254  0.1200 -0.1568
 2398TIP3   OH228684   4.276   4.168   2.144 -0.2226 -0.0163 -0.1988
 2398TIP3    H128685   4.224   4.104   2.192 -0.9418  0.2616 -0.5797
 2398TIP3    H228686   4.264   4.144   2.052 -1.8750  1.6157 -0.4809
 2399TIP3   OH228687   2.011   1.845  12.908  0.6470 -0.0988 -0.2828
 2399TIP3    H128688   2.098   1.885  12.895  0.2719  0.4014 -1.4026
 2399TIP3    H228689   2.015   1.763  12.859  0.1307  0.4625 -1.2879
 2400TIP3   OH228690   6.505   5.726   6.013 -0.0175  0.0101  0.0249
 2400TIP3    H128691   6.459   5.781   6.077 -0.8222  1.4677 -1.7117
 2400TIP3    H228692   6.576   5.782   5.980 -0.0350 -0.4596 -0.8353
 2401TIP3   OH228693   3.682   6.441   0.288 -0.1938 -0.1495 -0.3117
 2401TIP3    H128694   3.598   6.399   0.273 -0.6242  1.2241 -2.0455
 2401TIP3    H228695   3.660   6.524   0.332  0.1980  0.3975 -1.1266
 2402TIP3   OH228696   5.908   6.027  16.044 -0.4224 -0.0301 -0.0626
 2402TIP3    H128697   5.826   6.005  16.089  0.0617  1.8340  1.9236
 2402TIP3    H228698   5.976   6.007  16.109  0.4505  1.1229 -0.5906
 2403TIP3   OH228699   0.833   3.369  16.400  0.4890 -0.0960  0.6437
 2403TIP3    H128700   0.852   3.409  16.485  1.1377 -0.4989  0.6915
 2403TIP3    H228701   0.759   3.420  16.366 -1.0119 -1.0861  2.2548
 2404TIP3   OH228702   4.233   2.054   1.643  0.5071  0.0444  0.7441
 2404TIP3    H128703   4.203   2.144   1.631 -0.0424 -0.2314 -0.0189
 2404TIP3    H228704   4.323   2.062   1.675  0.9890  0.8605 -0.7475
 2405TIP3   OH228705   2.788   4.400  16.664 -0.7167  0.6521  0.1192
 2405TIP3    H128706   2.867   4.350  16.685 -2.0012 -1.0518  1.2090
 2405TIP3    H228707   2.797   4.481  16.714 -0.2090 -0.0664  1.2551
 2406TIP3   OH228708   0.610   4.552   3.383 -0.1506 -0.0016  0.1228
 2406TIP3    H128709   0.586   4.643   3.367 -0.6042  0.0394  0.9513
 2406TIP3    H228710   0.697   4.543   3.344 -0.0696  0.8062  0.0877
 2407TIP3   OH228711   4.621   3.711   2.859 -0.1094 -0.0835  0.1733
 2407TIP3    H128712   4.689   3.741   2.798  0.5982 -1.7414  0.0843
 2407TIP3    H228713   4.618   3.616   2.846 -2.1849 -0.1034  0.4727
 2408TIP3   OH228714   4.536   6.393   1.215 -0.5461  0.5580  0.1592
 2408TIP3    H128715   4.481   6.434   1.148 -1.0952  1.0013  0.8689
 2408TIP3    H228716   4.558   6.307   1.179  1.2264  1.7048 -1.6792
 2409TIP3   OH228717   4.042   5.793   0.654  0.0683  0.5610 -0.3845
 2409TIP3    H128718   4.024   5.837   0.571 -0.3556 -0.2874 -0.7583
 2409TIP3    H228719   4.077   5.708   0.629  0.4802  0.5133  0.3191
 2410TIP3   OH228720   4.738   2.181   4.455 -0.0598  0.0100  0.2881
 2410TIP3    H128721   4.763   2.128   4.531 -0.3298 -0.4379  0.0671
 2410TIP3    H228722   4.694   2.120   4.396 -0.9710  0.6179  0.3255
 2411TIP3   OH228723   1.682   6.299  16.982  0.2616  0.5831  0.4088
 2411TIP3    H128724   1.744   6.260  17.044 -0.2409  2.1086  1.9744
 2411TIP3    H228725   1.606   6.241  16.984  0.5902  0.1529  0.5509
 2412TIP3   OH228726   6.039   3.959   0.603  0.0819 -0.2232  0.2163
 2412TIP3    H128727   5.978   3.885   0.599  1.2823 -1.2617  0.6823
 2412TIP3    H228728   6.104   3.933   0.668  2.0114  0.0975 -1.5016
 2413TIP3   OH228729   1.903   5.572  12.469 -0.2311  0.3719  0.1857
 2413TIP3    H128730   1.822   5.564  12.419 -0.8425 -1.4409  1.3849
 2413TIP3    H228731   1.973   5.562  12.404 -0.9233  1.9788 -0.8609
 2414TIP3   OH228732   6.766   1.903  14.373  0.4040 -0.3223  0.2121
 2414TIP3    H128733   6.709   1.826  14.368 -3.1010  1.7622  3.1088
 2414TIP3    H228734   6.830   1.881  14.442 -0.8137 -0.5455  1.3043
 2415TIP3   OH228735   0.547   4.870  14.683 -0.3858 -0.2225  0.0323
 2415TIP3    H128736   0.458   4.839  14.699 -0.4845 -0.2464 -0.5531
 2415TIP3    H228737   0.540   4.923  14.604  0.2848 -0.9644 -0.5274
 2416TIP3   OH228738   2.262   4.103  13.635  0.2773 -0.5617  0.2991
 2416TIP3    H128739   2.218   4.146  13.708  2.2014  1.2138  0.4961
 2416TIP3    H228740   2.352   4.090  13.665  0.8455 -0.7770 -1.3710
 2417TIP3   OH228741   2.989   5.223   0.812 -0.2360  0.3630  0.0618
 2417TIP3    H128742   2.954   5.185   0.893 -1.9830  1.0639 -0.3233
 2417TIP3    H228743   3.075   5.183   0.803 -1.0608 -1.7776  0.8767
 2418TIP3   OH228744   5.632   0.268   3.238  0.1603  0.2272  0.1178
 2418TIP3    H128745   5.698   0.329   3.270  1.2433 -0.8223 -0.0558
 2418TIP3    H228746   5.667   0.236   3.155 -0.6548 -0.1998 -0.0685
 2419TIP3   OH228747   1.561   4.229   3.749  0.2043 -0.2008 -0.4169
 2419TIP3    H128748   1.514   4.312   3.750  2.5426  1.2275 -0.6598
 2419TIP3    H228749   1.559   4.201   3.657  0.7664  0.4668 -0.6449
 2420TIP3   OH228750   1.782   0.835   2.096  0.3699 -0.0600 -0.4117
 2420TIP3    H128751   1.820   0.749   2.114  2.0170  0.5312 -0.8532
 2420TIP3    H228752   1.784   0.844   2.001  1.2128  0.8664 -0.3267
 2421TIP3   OH228753   2.938   1.868  12.185  0.0827  0.3319  0.3063
 2421TIP3    H128754   2.843   1.869  12.200  0.1796 -0.6877  1.1405
 2421TIP3    H228755   2.976   1.877  12.273  0.7249 -1.6734  0.2931
 2422TIP3   OH228756   4.392   4.286   4.394  0.4935  0.0212  0.0497
 2422TIP3    H128757   4.423   4.305   4.306  1.2196  0.4269  0.3918
 2422TIP3    H228758   4.402   4.191   4.403 -1.0579 -0.2637 -0.8562
 2423TIP3   OH228759   4.398   4.615   5.428 -0.1079  0.7374 -0.6543
 2423TIP3    H128760   4.382   4.685   5.364 -0.9645  1.4640  0.3235
 2423TIP3    H228761   4.493   4.600   5.424 -0.0142  1.4611 -1.3834
 2424TIP3   OH228762   0.028   6.600  13.951 -0.0223  0.2052  0.0112
 2424TIP3    H128763   0.006   6.570  13.863  0.9686  0.9828 -0.5094
 2424TIP3    H228764  -0.049   6.650  13.979 -0.2743  0.0966 -0.4790
 2425TIP3   OH228765   5.328   0.926  15.740  0.2562  0.0641 -0.3042
 2425TIP3    H128766   5.356   0.932  15.831 -0.2201 -0.4236 -0.1238
 2425TIP3    H228767   5.238   0.958  15.740  0.3767  0.3982 -0.6608
 2426TIP3   OH228768   4.282   4.327   3.376 -0.3760  0.4013 -0.4447
 2426TIP3    H128769   4.359   4.279   3.407 -1.4320  0.0039  1.7660
 2426TIP3    H228770   4.306   4.419   3.386  0.0923  0.2882 -0.4988
 2427TIP3   OH228771   3.255   3.194  11.648 -0.6716  0.2181  0.0554
 2427TIP3    H128772   3.256   3.112  11.598 -0.5916  0.3198 -0.1115
 2427TIP3    H228773   3.215   3.170  11.731 -0.4275 -0.0483  0.1001
 2428TIP3   OH228774   2.691   2.403   0.190 -0.1120  0.4060 -0.5010
 2428TIP3    H128775   2.646   2.478   0.151 -0.1768  0.5476 -0.1572
 2428TIP3    H228776   2.667   2.406   0.282  1.7908  1.3716  0.0181
 2429TIP3   OH228777   6.705   1.446   3.158  0.1345  0.0271 -0.1898
 2429TIP3    H128778   6.697   1.352   3.139  1.8904 -0.0505 -0.7039
 2429TIP3    H228779   6.786   1.454   3.207  0.2245  1.3252 -0.5177
 2430TIP3   OH228780   1.069   4.134   4.045 -0.1888  0.1853  0.4840
 2430TIP3    H128781   1.139   4.197   4.028  1.2754 -1.6438 -0.7218
 2430TIP3    H228782   1.092   4.095   4.130  0.8319 -1.0094 -0.2880
 2431TIP3   OH228783   0.119   3.974   3.630 -0.2615 -0.1560 -1.0963
 2431TIP3    H128784   0.142   3.951   3.540 -0.5881 -2.1586 -0.6966
 2431TIP3    H228785   0.173   3.917   3.685 -0.4979  0.6219 -0.0211
 2432TIP3   OH228786   6.057   2.642  14.287 -0.1234  0.6325  0.1763
 2432TIP3    H128787   5.994   2.713  14.296  0.1339  0.6089  2.9534
 2432TIP3    H228788   6.142   2.686  14.278 -0.2171  0.6564 -0.6540
 2433TIP3   OH228789   0.769   4.989   1.101 -0.0651 -0.1875 -0.0228
 2433TIP3    H128790   0.863   4.974   1.106 -0.3945 -2.0938  2.5955
 2433TIP3    H228791   0.759   5.082   1.125  1.1428  0.2049 -0.9443
 2434TIP3   OH228792   5.709   6.368   6.028 -0.2262 -0.4361 -0.0043
 2434TIP3    H128793   5.712   6.400   5.938  1.8756  1.5870  0.6836
 2434TIP3    H228794   5.675   6.442   6.079  1.0315 -0.6146  1.1564
 2435TIP3   OH228795   0.094   3.960  15.225  0.1754 -0.5862  0.2413
 2435TIP3    H128796   0.027   3.912  15.176  0.0712  0.5268 -0.7705
 2435TIP3    H228797   0.081   3.934  15.316 -1.9140 -0.0853  0.1302
 2436TIP3   OH228798   6.780   1.249  14.158 -0.6247  0.6419 -0.1991
 2436TIP3    H128799   6.800   1.333  14.116  1.2945  1.7046  2.5475
 2436TIP3    H228800   6.694   1.262  14.197  0.4724  2.1929  1.9189
 2437TIP3   OH228801   5.462   0.661  11.134 -0.0490  0.2998 -0.4152
 2437TIP3    H128802   5.524   0.730  11.110 -1.1027  1.9822  1.3712
 2437TIP3    H228803   5.391   0.708  11.179 -1.1846 -1.8849  0.1945
 2438TIP3   OH228804   2.460   5.247  10.594 -0.4723  0.5297  0.3243
 2438TIP3    H128805   2.552   5.259  10.618 -0.1028 -1.3762  0.0848
 2438TIP3    H228806   2.414   5.318  10.637  1.0454  1.1925  0.9331
 2439TIP3   OH228807   1.063   2.846   1.078  0.4394  0.2450 -0.5380
 2439TIP3    H128808   1.139   2.885   1.121  0.3634  1.9669 -1.8484
 2439TIP3    H228809   1.017   2.920   1.039 -1.1516 -0.9172 -0.9698
 2440TIP3   OH228810   4.984   3.956  15.822 -0.0393  0.3666  0.2339
 2440TIP3    H128811   5.050   3.897  15.786  1.2999  1.6700  0.4592
 2440TIP3    H228812   4.997   3.952  15.917 -2.8931 -2.2974  0.6673
 2441TIP3   OH228813   1.050   0.180  16.562  0.5276 -0.0188 -0.2022
 2441TIP3    H128814   1.033   0.183  16.657  2.2848  0.3092  0.1331
 2441TIP3    H228815   1.133   0.132  16.554  0.2184 -0.3627 -1.6165
 2442TIP3   OH228816   0.253   1.441  13.869 -0.3388  0.2889  0.0317
 2442TIP3    H128817   0.198   1.435  13.790 -1.2464 -2.2695  0.7627
 2442TIP3    H228818   0.321   1.504  13.846 -0.7570 -0.1373 -2.6972
 2443TIP3   OH228819   6.816   0.515   0.454  0.1710  0.1211  0.2365
 2443TIP3    H128820   6.775   0.601   0.445  0.2890  0.2113  0.5481
 2443TIP3    H228821   6.749   0.460   0.494  0.8875  0.7191  2.4423
 2444TIP3   OH228822   4.968   2.264   5.106 -0.2104  0.0584 -0.4116
 2444TIP3    H128823   4.950   2.347   5.150  1.7454  0.4009 -0.1641
 2444TIP3    H228824   5.062   2.265   5.090 -0.4612 -1.2309 -2.2589
 2445TIP3   OH228825   4.969   1.931  14.543 -0.0312 -0.1273  0.4226
 2445TIP3    H128826   4.889   1.879  14.551  0.1763 -0.4827  0.2200
 2445TIP3    H228827   4.973   1.956  14.451 -1.0363  1.7248  0.8278
 2446TIP3   OH228828   5.779   0.842  13.173 -0.2807  0.1134  0.2144
 2446TIP3    H128829   5.790   0.936  13.159  0.8229  0.1450  1.1865
 2446TIP3    H228830   5.715   0.816  13.107 -1.1759  1.6784  0.4034
 2447TIP3   OH228831   3.820   3.500  12.842 -0.1580 -0.1086 -0.1091
 2447TIP3    H128832   3.828   3.498  12.746  0.8783  2.0242 -0.1207
 2447TIP3    H228833   3.731   3.532  12.858 -1.4693 -3.2702 -0.2301
 2448TIP3   OH228834   0.595   2.536  16.605  0.6240  0.1293  0.4047
 2448TIP3    H128835   0.554   2.532  16.691  0.7833 -1.1180  0.4362
 2448TIP3    H228836   0.621   2.446  16.586  0.1402  0.2823 -1.1600
 2449TIP3   OH228837   4.546   5.932   1.028  0.0192 -0.8426  0.7285
 2449TIP3    H128838   4.608   5.880   1.078  2.1154  0.7811 -0.0584
 2449TIP3    H228839   4.592   5.954   0.947 -1.0284  1.5399  0.6833
 2450TIP3   OH228840   4.437   2.482   4.165  0.0884  0.2313 -0.3101
 2450TIP3    H128841   4.504   2.519   4.223 -1.0644 -1.1004  2.0256
 2450TIP3    H228842   4.369   2.549   4.162  0.6732  0.8071 -1.1643
 2451TIP3   OH228843   6.185   4.608  11.667  0.0683  0.2312  0.1330
 2451TIP3    H128844   6.249   4.679  11.668 -0.1372  0.4244  1.3484
 2451TIP3    H228845   6.140   4.617  11.584  1.1486  0.5157 -0.4446
 2452TIP3   OH228846   0.469   1.191   4.457 -0.5148 -0.2753  0.2264
 2452TIP3    H128847   0.378   1.166   4.442 -0.4538 -0.8077  0.7243
 2452TIP3    H228848   0.465   1.256   4.526 -0.4673 -0.7992  0.7290
 2453TIP3   OH228849   6.469   5.653  16.441 -0.0637 -0.5592  0.1966
 2453TIP3    H128850   6.492   5.679  16.352 -0.0469 -1.0943  0.0453
 2453TIP3    H228851   6.532   5.585  16.464  0.5687  0.2614  0.9915
 2454TIP3   OH228852   1.773   5.629   5.272  1.0593  0.4257 -0.1049
 2454TIP3    H128853   1.712   5.628   5.346  0.4573  0.3187 -0.5949
 2454TIP3    H228854   1.776   5.720   5.244 -2.2221 -0.0738 -2.7566
 2455TIP3   OH228855   4.675   6.556   0.469 -0.0868 -0.1735 -0.0296
 2455TIP3    H128856   4.740   6.617   0.436 -0.0497 -1.1073 -1.8091
 2455TIP3    H228857   4.592   6.603   0.462  0.2621  0.7783  1.6288
 2456TIP3   OH228858   1.746   3.691  12.103  0.1516  0.3711  0.5493
 2456TIP3    H128859   1.814   3.630  12.133  0.5487  0.2750 -0.5113
 2456TIP3    H228860   1.691   3.638  12.045 -0.0251  0.7977  0.3257
 2457TIP3   OH228861   1.582   1.197   5.575 -1.2915  0.4710 -0.4241
 2457TIP3    H128862   1.651   1.225   5.636 -2.3570  1.7904  0.2470
 2457TIP3    H228863   1.599   1.247   5.495 -0.3259 -0.7128 -0.9958
 2458TIP3   OH228864   6.508   0.464  12.431 -0.0948 -0.1534  0.3004
 2458TIP3    H128865   6.467   0.479  12.516 -0.1475 -1.0502  0.4397
 2458TIP3    H228866   6.481   0.376  12.406 -1.0724  0.5451 -1.2241
 2459TIP3   OH228867   2.198   0.857   0.572  0.0514 -0.2448 -0.0383
 2459TIP3    H128868   2.230   0.925   0.513  0.6821 -1.1488 -0.7776
 2459TIP3    H228869   2.178   0.903   0.654  1.3193  0.6956 -0.2181
 2460TIP3   OH228870   3.927   1.951  17.077  0.4391  0.3730 -0.0164
 2460TIP3    H128871   3.983   2.028  17.068  0.9068  0.1884  1.1362
 2460TIP3    H228872   3.880   1.965  17.159 -0.6277  0.1485 -0.5729
 2461TIP3   OH228873   3.716   1.959   0.061 -0.3590 -0.1192 -0.3264
 2461TIP3    H128874   3.640   1.967   0.003 -1.1007 -2.1790  0.2867
 2461TIP3    H228875   3.706   1.874   0.102  2.4474 -0.5967 -0.4340
 2462TIP3   OH228876   0.355   2.451   4.732  0.1233 -0.8308 -0.5483
 2462TIP3    H128877   0.313   2.481   4.651 -0.1998  1.2540  0.3482
 2462TIP3    H228878   0.411   2.379   4.703 -1.5266 -1.5144 -2.2938
 2463TIP3   OH228879   0.753   6.069  16.079 -0.0069  0.4363 -0.0266
 2463TIP3    H128880   0.698   6.100  16.007  0.3723  0.7685 -0.1790
 2463TIP3    H228881   0.779   5.981  16.054 -0.6580  0.1860  0.1555
 2464TIP3   OH228882   5.772   4.351   0.938  0.7330  0.0352 -0.0263
 2464TIP3    H128883   5.684   4.316   0.952  1.8087 -1.9547  2.6308
 2464TIP3    H228884   5.762   4.446   0.946 -1.0807 -0.1887  0.7961
 2465TIP3   OH228885   4.405   5.053   2.698  0.3519  0.3758 -0.5162
 2465TIP3    H128886   4.390   4.990   2.627  0.2456  0.6382 -0.7246
 2465TIP3    H228887   4.384   5.004   2.778  0.1613  0.1831 -0.6842
 2466TIP3   OH228888   3.931   3.472   3.882  0.0903 -0.1904 -0.0738
 2466TIP3    H128889   3.984   3.419   3.823 -0.4958 -0.7789 -0.0823
 2466TIP3    H228890   3.986   3.484   3.959  1.7283  2.3631 -1.5002
 2467TIP3   OH228891   3.034   5.761  11.019  0.7861 -0.2754  0.6452
 2467TIP3    H128892   3.109   5.778  10.961 -0.9705 -2.3174 -2.5154
 2467TIP3    H228893   2.959   5.795  10.971 -0.7006 -1.2065  2.2167
 2468TIP3   OH228894   3.347   1.862   1.034  0.0748 -0.0503 -0.2045
 2468TIP3    H128895   3.324   1.830   0.947 -0.3316 -0.1063 -0.0815
 2468TIP3    H228896   3.331   1.787   1.092 -0.4012  0.2135  0.0189
 2469TIP3   OH228897   1.511   2.183   1.426 -0.0385 -0.2459  0.6485
 2469TIP3    H128898   1.560   2.244   1.481 -1.7548  1.5899  0.2561
 2469TIP3    H228899   1.423   2.182   1.463 -0.1906 -2.2227  0.3778
 2470TIP3   OH228900   1.040   2.312  10.955 -0.3315  0.3636  0.2217
 2470TIP3    H128901   0.945   2.315  10.967 -0.1228 -0.1091  2.4211
 2470TIP3    H228902   1.052   2.279  10.866 -2.2036  1.2318 -0.4125
 2471TIP3   OH228903   2.635   0.973  14.949  0.2942 -1.0206  0.1117
 2471TIP3    H128904   2.705   0.934  14.897  1.4443  1.9683 -0.7623
 2471TIP3    H228905   2.675   0.990  15.034  1.4744  2.4704 -0.9559
 2472TIP3   OH228906   0.492   5.351  11.313 -0.3095  0.1323  0.0918
 2472TIP3    H128907   0.554   5.288  11.350 -1.0906 -0.0086  1.2166
 2472TIP3    H228908   0.418   5.297  11.285 -0.6779  0.4741  0.4059
 2473TIP3   OH228909   4.582   1.608  15.027 -0.1265  0.7121 -0.2417
 2473TIP3    H128910   4.608   1.699  15.010  2.0905 -0.0573 -1.3737
 2473TIP3    H228911   4.585   1.599  15.122 -3.0712  2.4766  0.1621
 2474TIP3   OH228912   1.866   1.824   1.281  0.0206  0.5383 -0.0587
 2474TIP3    H128913   1.955   1.854   1.261 -0.0825  0.5383 -0.5345
 2474TIP3    H228914   1.878   1.733   1.309  0.1237  0.3730 -0.6171
 2475TIP3   OH228915   1.057   5.021   1.731  0.0488  0.4435  0.1941
 2475TIP3    H128916   1.123   5.080   1.766  0.8963  0.1322 -0.7993
 2475TIP3    H228917   1.041   5.053   1.642 -1.2777  0.6117  0.4798
 2476TIP3   OH228918   5.191   5.176  15.393  0.0989  0.6527 -0.2065
 2476TIP3    H128919   5.284   5.161  15.408 -0.2179 -2.9522 -0.9628
 2476TIP3    H228920   5.175   5.264  15.427  3.5818  1.0834  0.6851
 2477TIP3   OH228921   0.816   4.862   0.283 -0.7975 -0.2854  0.3389
 2477TIP3    H128922   0.802   4.800   0.355  1.1854 -1.1876 -0.0139
 2477TIP3    H228923   0.844   4.809   0.209 -2.4282  0.6767 -1.0576
 2478TIP3   OH228924   4.273   3.501   2.959  0.4449  0.6090 -0.3693
 2478TIP3    H128925   4.199   3.543   2.915  2.3719  3.6182 -1.0020
 2478TIP3    H228926   4.256   3.514   3.052  0.7295  2.4070 -0.5402
 2479TIP3   OH228927   1.413   1.460   5.280 -0.0204  0.0193 -0.0358
 2479TIP3    H128928   1.375   1.536   5.235  2.2474 -0.1419 -2.4648
 2479TIP3    H228929   1.352   1.443   5.352 -1.4990  3.0952 -0.3553
 2480TIP3   OH228930   2.624   5.814  11.486 -0.5355 -0.3000  0.1792
 2480TIP3    H128931   2.591   5.810  11.396 -0.5048 -0.1254  0.1587
 2480TIP3    H228932   2.678   5.894  11.487 -1.8716  0.6279  0.7844
 2481TIP3   OH228933   0.351   5.735  11.313 -0.1077 -0.5486 -0.2732
 2481TIP3    H128934   0.440   5.703  11.331 -0.2605  0.7776  4.0827
 2481TIP3    H228935   0.364   5.820  11.272  0.6437 -0.5727 -0.1037
 2482TIP3   OH228936   0.522   5.191   2.947  0.3498  0.1746 -0.0057
 2482TIP3    H128937   0.596   5.194   2.887  1.6492 -0.0714  1.5264
 2482TIP3    H228938   0.536   5.113   3.000 -1.8329 -0.7361 -0.6499
 2483TIP3   OH228939   4.259   1.256  16.234 -0.0741  0.0333 -0.8029
 2483TIP3    H128940   4.272   1.166  16.204  1.3728  0.1792 -0.7168
 2483TIP3    H228941   4.271   1.252  16.329 -0.7271  0.2029 -0.7094
 2484TIP3   OH228942   2.306   3.348  16.357 -0.0591 -0.0082  0.3744
 2484TIP3    H128943   2.319   3.346  16.262  1.3211 -0.0080  0.5454
 2484TIP3    H228944   2.352   3.427  16.386 -0.6489  0.1058  1.0243
 2485TIP3   OH228945   0.664   0.323   4.223  0.3517 -0.4239 -0.4761
 2485TIP3    H128946   0.690   0.272   4.146  2.6207 -1.0129  0.6178
 2485TIP3    H228947   0.733   0.307   4.288 -1.6690 -0.3027  1.8696
 2486TIP3   OH228948   4.734   4.417   4.870 -0.2033  0.2109  0.4462
 2486TIP3    H128949   4.785   4.375   4.800  0.4023  1.5800  0.0257
 2486TIP3    H228950   4.644   4.389   4.854  0.1866 -0.9373  0.2090
 2487TIP3   OH228951   1.828   5.514  15.011 -0.4146  0.3972 -0.0454
 2487TIP3    H128952   1.740   5.544  14.988  0.2321  2.0038 -0.6092
 2487TIP3    H228953   1.873   5.592  15.043  0.7033 -0.4625  0.5709
 2488TIP3   OH228954   6.484   4.372   2.928 -0.3088  0.3517  0.0416
 2488TIP3    H128955   6.511   4.336   2.843 -1.2498  1.4141 -0.7409
 2488TIP3    H228956   6.468   4.296   2.983  0.0282 -0.3674 -0.8370
 2489TIP3   OH228957   4.268   3.123  15.256  0.5500 -0.0726 -0.2310
 2489TIP3    H128958   4.200   3.188  15.238  0.3120  0.0390  0.9902
 2489TIP3    H228959   4.332   3.135  15.186  0.9491  2.0664  0.4184
 2490TIP3   OH228960   4.693   1.810   1.465 -0.1523 -0.1867 -0.4064
 2490TIP3    H128961   4.661   1.899   1.452 -0.1410  0.0428  0.9833
 2490TIP3    H228962   4.623   1.766   1.514  0.7139 -0.3055  0.7684
 2491TIP3   OH228963   6.361   3.248   5.310  0.0455 -0.1419 -0.3540
 2491TIP3    H128964   6.326   3.221   5.225 -2.0844 -0.6466  0.6144
 2491TIP3    H228965   6.293   3.223   5.373  1.0017  1.3424  1.3701
 2492TIP3   OH228966   3.238   5.365  12.492 -0.0735 -0.3284  0.1649
 2492TIP3    H128967   3.192   5.322  12.563 -1.8247  0.8607 -0.2031
 2492TIP3    H228968   3.324   5.322  12.490 -0.9083 -2.1615  1.2856
 2493TIP3   OH228969   2.681   5.599  16.843  0.3646  0.2918  0.0239
 2493TIP3    H128970   2.662   5.692  16.833 -0.4662  0.1389  0.1517
 2493TIP3    H228971   2.685   5.585  16.937 -1.0629 -0.1037  0.0362
 2494TIP3   OH228972   3.849   3.764   3.659 -0.5612 -0.1462  0.1838
 2494TIP3    H128973   3.819   3.749   3.749  1.3821 -1.2983  0.6959
 2494TIP3    H228974   3.943   3.745   3.661 -0.3119  0.5219 -1.9469
 2495TIP3   OH228975   2.020   5.708  13.716  0.2120 -0.2683  0.2511
 2495TIP3    H128976   1.994   5.617  13.702  0.1182 -0.2707  0.4274
 2495TIP3    H228977   2.111   5.712  13.689  0.1713 -0.3790  0.0967
 2496TIP3   OH228978   2.298   5.723   1.221 -0.4526 -0.3082  0.0720
 2496TIP3    H128979   2.233   5.707   1.289 -0.4095  1.9834  0.7311
 2496TIP3    H228980   2.249   5.763   1.149  0.0782  0.8209  0.3100
 2497TIP3   OH228981   0.068   6.037   2.126  0.4180  0.4479  0.1924
 2497TIP3    H128982   0.083   6.130   2.106  2.4484 -0.0927 -1.0728
 2497TIP3    H228983   0.077   6.032   2.221 -0.1347  1.6120  0.3290
 2498TIP3   OH228984   1.111   2.485  12.565 -0.6211  0.0281 -0.2189
 2498TIP3    H128985   1.176   2.415  12.568  2.0486  2.1436 -2.5037
 2498TIP3    H228986   1.087   2.492  12.473 -1.3182  1.6454  0.0545
 2499TIP3   OH228987   1.160   1.863  10.555 -0.0625 -0.3116  0.4423
 2499TIP3    H128988   1.066   1.846  10.565 -0.1395 -0.6810 -0.6820
 2499TIP3    H228989   1.199   1.833  10.637 -1.0574  1.1112  1.4966
 2500TIP3   OH228990   3.144   3.670  10.725  0.1618 -0.4219  0.5600
 2500TIP3    H128991   3.136   3.574  10.723  1.1172 -0.5042 -0.6807
 2500TIP3    H228992   3.156   3.695  10.633  0.9166  0.7919  0.9609
 2501TIP3   OH228993   4.069   3.928   0.456 -0.1116 -0.3475 -0.3293
 2501TIP3    H128994   4.023   3.892   0.532 -0.3191  0.7430  0.0786
 2501TIP3    H228995   4.129   3.992   0.493  1.0305 -1.0194 -0.9473
 2502TIP3   OH228996   6.611   0.586   1.748  0.0173 -0.1044 -0.6607
 2502TIP3    H128997   6.681   0.561   1.808  0.8212  1.8418 -0.7219
 2502TIP3    H228998   6.549   0.635   1.801  0.7173  1.6030 -1.3549
 2503TIP3   OH228999   1.977   3.055  13.230 -0.1432 -0.4535 -0.9282
 2503TIP3    H129000   2.049   3.092  13.282  0.9785 -0.9904 -2.0575
 2503TIP3    H229001   1.963   2.969  13.268 -0.6807 -0.0783 -0.2567
 2504TIP3   OH229002   6.336   3.065   1.428  0.1905  0.6429 -0.6068
 2504TIP3    H129003   6.400   3.129   1.459  1.6385 -1.3281  0.7329
 2504TIP3    H229004   6.252   3.112   1.432  1.1916  2.4917  0.1621
 2505TIP3   OH229005   5.883   4.732   5.062  0.1116 -0.2661 -0.3966
 2505TIP3    H129006   5.892   4.658   5.002  0.3188  0.1245 -0.8519
 2505TIP3    H229007   5.926   4.703   5.143  1.0755 -0.2871 -0.8962
 2506TIP3   OH229008   2.011   3.585   5.348  0.7615  0.1524  0.1641
 2506TIP3    H129009   1.964   3.530   5.410  1.9649 -0.8000  0.2702
 2506TIP3    H229010   2.074   3.633   5.403  0.7580  0.4887 -0.1257
 2507TIP3   OH229011   4.823   1.529   6.381  0.2818  0.6568  0.3438
 2507TIP3    H129012   4.800   1.611   6.338 -0.6517  1.4852  2.3193
 2507TIP3    H229013   4.877   1.554   6.455  2.7551 -0.8350 -0.8220
 2508TIP3   OH229014   0.023   6.591   5.279  0.2787 -0.0772 -0.0984
 2508TIP3    H129015   0.106   6.636   5.290  0.6232 -0.6061 -0.4834
 2508TIP3    H229016  -0.042   6.648   5.321  1.1724 -0.8202  2.4266
 2509TIP3   OH229017   2.654   2.017  13.971  0.3378 -0.5354 -0.7079
 2509TIP3    H129018   2.590   2.060  13.915 -0.2077  0.5303  0.6682
 2509TIP3    H229019   2.736   2.063  13.953  0.7054 -1.7743 -2.3328
 2510TIP3   OH229020   2.633   6.493  16.234  0.1326 -0.5120 -0.0976
 2510TIP3    H129021   2.707   6.522  16.286  0.3066 -0.7204 -0.2267
 2510TIP3    H229022   2.667   6.419  16.183  0.0263 -0.1661 -0.6779
 2511TIP3   OH229023   4.245   4.578   0.977 -0.5359  0.2475 -0.3650
 2511TIP3    H129024   4.165   4.630   0.968 -1.3411 -1.1213 -1.6244
 2511TIP3    H229025   4.223   4.512   1.042 -0.7430 -0.6366 -1.3076
 2512TIP3   OH229026   1.444   0.863   1.087 -0.3984  0.1834 -0.5210
 2512TIP3    H129027   1.458   0.800   1.017  1.5063  0.0706 -0.0884
 2512TIP3    H229028   1.464   0.948   1.047  0.0705  0.1802 -0.3066
 2513TIP3   OH229029   2.988   4.061   2.620  0.7072  0.5057 -0.0266
 2513TIP3    H129030   3.030   4.146   2.607  1.2388  0.8088  2.9006
 2513TIP3    H229031   2.913   4.079   2.677  1.2195 -1.0161  1.2269
 2514TIP3   OH229032   0.607   6.461   3.070  0.0707 -0.4995  0.4328
 2514TIP3    H129033   0.554   6.519   3.125 -2.2944 -1.4509 -0.6926
 2514TIP3    H229034   0.621   6.383   3.124  0.9249 -0.0016  0.9595
 2515TIP3   OH229035   3.807   4.311  15.626 -0.0388  0.5667 -0.4959
 2515TIP3    H129036   3.874   4.334  15.691 -1.1079 -0.9699  1.2490
 2515TIP3    H229037   3.786   4.394  15.583  2.6665  1.1551 -0.8615
 2516TIP3   OH229038   6.028   4.778   5.827  0.0433 -0.4072  0.2290
 2516TIP3    H129039   5.997   4.867   5.814 -1.3451 -0.9859 -0.6099
 2516TIP3    H229040   5.992   4.752   5.912  0.8130 -0.0349  0.6786
 2517TIP3   OH229041   1.735   2.178   1.790 -0.0377 -0.3315 -0.2314
 2517TIP3    H129042   1.748   2.148   1.880 -1.9798  2.5071  1.1277
 2517TIP3    H229043   1.642   2.203   1.785  0.7893  3.0594 -1.8107
 2518TIP3   OH229044   0.929   3.830   5.460  0.1591  0.6138 -0.1242
 2518TIP3    H129045   0.904   3.869   5.543 -1.2588  0.1191 -0.3032
 2518TIP3    H229046   1.008   3.878   5.434  1.4823 -0.1795  2.1665
 2519TIP3   OH229047   4.542   1.967   3.110  0.1737  0.1042 -1.0178
 2519TIP3    H129048   4.482   1.906   3.067 -0.8319  0.2062  0.1957
 2519TIP3    H229049   4.589   1.913   3.174 -2.0880  0.8370  1.4562
 2520TIP3   OH229050   1.869   3.720   4.440  0.1299  0.7456  0.1295
 2520TIP3    H129051   1.897   3.779   4.371  0.1920  0.0330 -0.4659
 2520TIP3    H229052   1.820   3.651   4.395 -0.7464  0.8282  0.9137
 2521TIP3   OH229053   1.349   5.151   5.434 -0.0412 -0.1490 -0.3275
 2521TIP3    H129054   1.369   5.244   5.417  0.3254 -0.1120  0.3011
 2521TIP3    H229055   1.274   5.133   5.377 -0.2882  0.6078 -0.2647
 2522TIP3   OH229056   1.972   6.109  11.115  0.2590 -0.0277 -0.0380
 2522TIP3    H129057   1.928   6.103  11.030  0.6215 -1.6854 -0.1437
 2522TIP3    H229058   2.059   6.073  11.099  0.7708  0.8305  0.7545
 2523TIP3   OH229059   1.396   0.080  14.845  0.1777  0.4355 -0.0890
 2523TIP3    H129060   1.399   0.172  14.817 -0.5075  0.8737  1.2063
 2523TIP3    H229061   1.481   0.066  14.887 -0.8319  1.4557  2.4981
 2524TIP3   OH229062   0.851   0.081  11.762 -0.7628 -0.0195  0.0247
 2524TIP3    H129063   0.876  -0.009  11.741  1.4152  0.5151  0.0772
 2524TIP3    H229064   0.830   0.080  11.856 -0.8013 -0.4741  0.0090
 2525TIP3   OH229065   4.228   2.043   2.934  0.0982  0.0500  0.0643
 2525TIP3    H129066   4.304   2.004   2.890 -0.0463  1.0100 -1.0827
 2525TIP3    H229067   4.266   2.098   3.003  0.4609  0.4445 -0.4380
 2526TIP3   OH229068   4.319   0.692  16.918 -0.6951  0.1198 -0.5579
 2526TIP3    H129069   4.266   0.661  16.991  0.2953 -1.6375 -0.5384
 2526TIP3    H229070   4.321   0.787  16.929 -2.2288  0.0616  0.5241
 2527TIP3   OH229071   4.509   2.792  12.500 -0.3822  0.4555 -0.1622
 2527TIP3    H129072   4.489   2.699  12.486  0.7819  0.3575 -1.4118
 2527TIP3    H229073   4.552   2.794  12.586 -1.1892 -0.0273  0.2605
 2528TIP3   OH229074   2.564   0.734  13.242 -0.7448 -0.5287 -0.0386
 2528TIP3    H129075   2.632   0.726  13.308  0.6513 -0.4052 -1.3962
 2528TIP3    H229076   2.488   0.768  13.289  0.0651 -0.8441  1.5554
 2529TIP3   OH229077   0.546   6.613  16.061  0.1950  0.1262 -0.0619
 2529TIP3    H129078   0.570   6.692  16.109 -0.8612  0.8985 -0.7570
 2529TIP3    H229079   0.463   6.634  16.020  0.4567 -0.9490 -1.2133
 2530TIP3   OH229080   5.994   4.796   2.026  0.0558  0.6801  0.5158
 2530TIP3    H129081   6.040   4.725   1.980 -0.4774  0.0455  0.9533
 2530TIP3    H229082   6.060   4.865   2.034  0.6293  0.1828  0.2106
 2531TIP3   OH229083   2.035   1.318   0.106 -0.3417  0.1636  0.2397
 2531TIP3    H129084   2.120   1.363   0.109 -1.1190  1.7455 -0.6264
 2531TIP3    H229085   2.057   1.226   0.122  1.4786  0.5991  0.5094
 2532TIP3   OH229086   5.781   2.860   0.048 -0.4907  0.0970  0.1507
 2532TIP3    H129087   5.707   2.859   0.109  0.3074  0.4144  1.1529
 2532TIP3    H229088   5.838   2.929   0.082  0.4511 -0.4114 -0.3788
 2533TIP3   OH229089   0.968   6.233  10.864 -0.2158 -0.5467 -0.2300
 2533TIP3    H129090   1.044   6.230  10.805  1.2267 -0.5727  1.5275
 2533TIP3    H229091   0.895   6.204  10.810  1.0397 -0.6728 -1.9694
 2534TIP3   OH229092   6.003   3.091   4.443  0.6121 -0.2840  0.2815
 2534TIP3    H129093   5.913   3.122   4.433  0.5790  0.8373  2.9741
 2534TIP3    H229094   6.012   3.072   4.537  3.2177 -0.1674  0.1492
 2535TIP3   OH229095   6.603   3.275  15.108  0.1582  0.1946 -0.3158
 2535TIP3    H129096   6.592   3.368  15.124 -1.8925  0.1163 -0.9636
 2535TIP3    H229097   6.694   3.257  15.130 -0.2579  1.6497  3.1313
 2536TIP3   OH229098   5.272   0.489   2.194 -0.3719 -0.8872  0.6415
 2536TIP3    H129099   5.254   0.459   2.105  2.2235 -1.2867  0.1624
 2536TIP3    H229100   5.345   0.434   2.223 -0.1102  0.3231  2.4147
 2537TIP3   OH229101   2.261   3.886  16.192 -0.0402  0.2133  0.2908
 2537TIP3    H129102   2.246   3.815  16.254 -1.0023  1.0480  1.0409
 2537TIP3    H229103   2.262   3.843  16.106 -0.8508 -0.6712  0.7121
 2538TIP3   OH229104   6.273   0.236   2.862 -0.0123  0.6100  0.2060
 2538TIP3    H129105   6.239   0.317   2.824 -0.4992  0.9638  1.3536
 2538TIP3    H229106   6.198   0.175   2.858  0.3649  0.1821 -0.6970
 2539TIP3   OH229107   4.063   1.293  15.951  0.2048 -0.0767 -0.5698
 2539TIP3    H129108   4.004   1.314  15.879  0.8470  0.3691 -0.9835
 2539TIP3    H229109   4.133   1.359  15.944  0.7386 -0.5800 -0.0911
 2540TIP3   OH229110   4.661   2.731   0.454  1.0578 -0.1487  0.5115
 2540TIP3    H129111   4.684   2.814   0.412  1.4506 -0.4583  0.1022
 2540TIP3    H229112   4.619   2.680   0.385  0.9264 -0.3415  0.7309
 2541TIP3   OH229113   1.326   0.738  11.862 -0.3975  0.4819 -0.2712
 2541TIP3    H129114   1.234   0.720  11.881 -0.6637  1.7922 -0.2470
 2541TIP3    H229115   1.327   0.762  11.769  0.0350 -0.2434 -0.4600
 2542TIP3   OH229116   4.698   2.390   3.835  0.2422 -0.1006  0.5435
 2542TIP3    H129117   4.696   2.329   3.909  0.5277  0.1670  0.7739
 2542TIP3    H229118   4.789   2.421   3.832  0.1595  0.1194  0.2684
 2543TIP3   OH229119   3.682   2.884   1.524  0.1797  0.4092 -0.1252
 2543TIP3    H129120   3.659   2.839   1.605  0.4670 -0.8186 -0.6966
 2543TIP3    H229121   3.632   2.966   1.526 -0.9219 -0.2603  0.6233
 2544TIP3   OH229122   4.440   5.450   3.219 -0.2542  0.5607 -0.7118
 2544TIP3    H129123   4.505   5.501   3.170 -0.5013 -0.3481 -2.0164
 2544TIP3    H229124   4.425   5.372   3.166  0.2651 -1.0134  1.3397
 2545TIP3   OH229125   1.104   6.841   4.689  0.7259 -0.3921 -0.0050
 2545TIP3    H129126   1.032   6.825   4.628  0.3992 -1.0598  0.5420
 2545TIP3    H229127   1.182   6.811   4.641  0.4335 -1.2157  0.0088
 2546TIP3   OH229128   1.308   2.797  11.495  0.0609 -0.6471 -0.1513
 2546TIP3    H129129   1.401   2.801  11.516  0.7898 -1.7091 -2.6935
 2546TIP3    H229130   1.301   2.837  11.409 -1.9804  0.0375  0.2811
 2547TIP3   OH229131   5.906   4.740  14.327 -0.1236 -0.1225 -0.1235
 2547TIP3    H129132   5.899   4.653  14.366  1.4066 -0.2124  0.0142
 2547TIP3    H229133   5.821   4.755  14.284 -0.5345 -1.5140  0.1774
 2548TIP3   OH229134   6.001   4.204   0.524 -0.2462 -0.3529 -0.9496
 2548TIP3    H129135   6.027   4.116   0.553 -2.3402 -0.6511  0.1879
 2548TIP3    H229136   5.913   4.193   0.489  0.2798  0.9504 -2.8538
 2549TIP3   OH229137   6.055   1.655   6.173 -0.3277 -0.6392  0.3403
 2549TIP3    H129138   6.050   1.564   6.201 -4.0682 -0.1135  1.9947
 2549TIP3    H229139   6.009   1.704   6.242  0.6059  2.3776 -1.0067
 2550TIP3   OH229140   4.565   6.177  13.724  0.2505  0.2641  0.4498
 2550TIP3    H129141   4.629   6.110  13.702 -0.5157 -0.3400  0.0337
 2550TIP3    H229142   4.609   6.260  13.702  1.3937 -0.0432  1.4618
 2551TIP3   OH229143   0.492   3.755   4.819  0.0561  0.2180 -0.9409
 2551TIP3    H129144   0.510   3.775   4.727 -0.6524  1.4082 -0.8283
 2551TIP3    H229145   0.579   3.752   4.860  0.4924 -1.6279 -1.8617
 2552TIP3   OH229146   4.728   1.800   5.802  0.0283 -1.0626  0.2135
 2552TIP3    H129147   4.661   1.733   5.816 -1.5341  0.1385 -1.1456
 2552TIP3    H229148   4.718   1.825   5.710  0.6741  0.9169  0.6330
 2553TIP3   OH229149   0.598   0.345   3.451 -0.7585 -0.0456 -0.0199
 2553TIP3    H129150   0.563   0.399   3.521 -1.3353  0.3259 -0.5726
 2553TIP3    H229151   0.599   0.256   3.487 -0.1198  0.2813  0.7789
 2554TIP3   OH229152   1.833   4.572   1.519  0.6921 -0.0679  0.0711
 2554TIP3    H129153   1.907   4.586   1.460  0.9287  0.1241  0.4079
 2554TIP3    H229154   1.760   4.550   1.462  0.9701 -0.0853 -0.2768
 2555TIP3   OH229155   1.004   3.830  15.928  0.5366 -0.0436  0.5973
 2555TIP3    H129156   1.083   3.781  15.948  0.7612  0.8795  2.0968
 2555TIP3    H229157   0.997   3.895  15.998 -1.0976  0.4330  0.0459
 2556TIP3   OH229158   0.050   3.826   5.405 -0.5440  0.4027 -0.4060
 2556TIP3    H129159   0.105   3.751   5.426  0.1473  0.9590 -0.1989
 2556TIP3    H229160   0.101   3.877   5.341 -1.2625  0.3870 -1.0088
 2557TIP3   OH229161   3.981   4.515   0.200 -0.0780 -0.0936  0.2635
 2557TIP3    H129162   3.928   4.492   0.124 -2.6593 -1.9210  2.4027
 2557TIP3    H229163   3.938   4.593   0.236  1.2724  0.9125 -0.2188
 2558TIP3   OH229164   5.046   2.051   5.823  0.7846 -0.2028  0.3637
 2558TIP3    H129165   4.963   2.083   5.858  0.5385 -1.1960  0.7186
 2558TIP3    H229166   5.024   2.019   5.735  0.5353 -1.5059  0.8766
 2559TIP3   OH229167   3.274   6.356   4.081  0.2907  0.2024 -0.1646
 2559TIP3    H129168   3.304   6.359   4.172  1.4479  0.3381 -0.5349
 2559TIP3    H229169   3.287   6.445   4.049  2.2440 -0.3878 -1.1635
 2560TIP3   OH229170   3.287   5.375  10.743  0.5066 -0.1340 -0.3501
 2560TIP3    H129171   3.257   5.459  10.778  0.6378  0.7012 -2.1283
 2560TIP3    H229172   3.289   5.316  10.819  0.7012  1.5386  0.9891
 2561TIP3   OH229173   0.298   0.464   2.077  0.3028 -0.2643 -0.6559
 2561TIP3    H129174   0.272   0.503   2.161 -2.8579  0.1619 -1.7091
 2561TIP3    H229175   0.344   0.535   2.032 -1.9228  1.0843 -0.9784
 2562TIP3   OH229176   4.581   5.219  13.441 -0.2882  0.9454 -0.2115
 2562TIP3    H129177   4.571   5.314  13.434  1.1687  1.0221 -2.5644
 2562TIP3    H229178   4.648   5.207  13.509  1.1375  1.7910 -1.4015
 2563TIP3   OH229179   6.813   2.985  14.170 -0.3180 -0.3489  0.2138
 2563TIP3    H129180   6.781   2.986  14.080  1.1966 -0.9903 -0.3495
 2563TIP3    H229181   6.796   2.896  14.201 -0.5384 -0.2219  0.4659
 2564TIP3   OH229182   4.575   0.156   2.753  0.2315 -0.5095 -0.3912
 2564TIP3    H129183   4.612   0.134   2.667  2.6807 -0.6807  0.6403
 2564TIP3    H229184   4.544   0.072   2.788 -1.9328 -0.2588 -1.5558
 2565TIP3   OH229185   6.437   5.857   5.543 -0.2883 -0.1171  0.3343
 2565TIP3    H129186   6.397   5.802   5.610  0.8450 -2.7766 -1.0029
 2565TIP3    H229187   6.519   5.886   5.581  0.5938 -2.0382  0.0207
 2566TIP3   OH229188   0.646   4.893  16.581 -0.1206 -0.2260 -0.3084
 2566TIP3    H129189   0.722   4.837  16.563  0.9070  0.9347  0.2338
 2566TIP3    H229190   0.596   4.846  16.647  0.4201 -0.7647 -0.2773
 2567TIP3   OH229191   2.057   0.153   4.905 -0.1542 -0.1301  0.3395
 2567TIP3    H129192   1.976   0.107   4.882 -0.7168  1.1232 -0.2525
 2567TIP3    H229193   2.108   0.155   4.824  1.5946 -2.9568  1.1962
 2568TIP3   OH229194   6.169   3.399  12.071 -0.1122  0.3762  0.4387
 2568TIP3    H129195   6.211   3.363  11.993 -0.4034  0.1661  0.3757
 2568TIP3    H229196   6.160   3.325  12.130 -0.0705  0.4947  0.5946
 2569TIP3   OH229197   6.508   1.273  14.157 -0.2555 -0.0617  0.2272
 2569TIP3    H129198   6.535   1.253  14.067  2.4966 -0.2237  0.9865
 2569TIP3    H229199   6.424   1.228  14.167 -0.3548 -0.5201 -2.0755
 2570TIP3   OH229200   1.209   4.635   5.134  0.7309 -0.8088 -0.5632
 2570TIP3    H129201   1.164   4.599   5.210  0.4760  1.0323  0.1965
 2570TIP3    H229202   1.143   4.634   5.064 -0.5895  1.7541  0.5057
 2571TIP3   OH229203   4.084   6.701  15.300  0.3354 -0.0294 -0.1653
 2571TIP3    H129204   4.057   6.612  15.323 -0.3309  0.1243 -0.3320
 2571TIP3    H229205   4.103   6.697  15.206 -0.8769  0.2827 -0.4308
 2572TIP3   OH229206   1.620   4.586  14.768 -0.7946  0.2963 -0.6416
 2572TIP3    H129207   1.541   4.582  14.821 -0.5157 -0.4219 -0.2660
 2572TIP3    H229208   1.592   4.629  14.687 -2.2410 -2.3237 -1.6542
 2573TIP3   OH229209   0.490   5.489   1.693 -0.2970 -0.4818  0.1180
 2573TIP3    H129210   0.511   5.478   1.600 -1.0975 -0.6493 -0.0537
 2573TIP3    H229211   0.509   5.404   1.732  1.6545  0.0523  0.4614
 2574TIP3   OH229212   2.782   5.465  14.466  0.4762 -0.2641  0.4039
 2574TIP3    H129213   2.742   5.484  14.381  2.0021  0.8415 -0.1193
 2574TIP3    H229214   2.708   5.451  14.525 -0.6903  1.4009 -0.5661
 2575TIP3   OH229215   4.568   1.022   5.648 -0.3140 -0.1871 -0.2778
 2575TIP3    H129216   4.497   1.012   5.711  1.0002 -0.8971  1.1597
 2575TIP3    H229217   4.557   0.949   5.587 -0.2074 -0.9269  0.5769
 2576TIP3   OH229218   2.686   5.709   3.822  0.0830 -0.3860  0.0161
 2576TIP3    H129219   2.770   5.750   3.842  0.4490 -1.0720 -0.0848
 2576TIP3    H229220   2.695   5.619   3.852 -1.6949  0.2635  2.8477
 2577TIP3   OH229221   2.984   4.931  13.709  0.8583 -0.4221  0.6015
 2577TIP3    H129222   3.064   4.937  13.658  0.2642 -3.3067 -0.8542
 2577TIP3    H229223   2.920   4.892  13.649 -1.0277 -0.2098  2.3673
 2578TIP3   OH229224   2.133   5.025  14.868  0.0499  0.5340 -0.1136
 2578TIP3    H129225   2.192   5.032  14.794  0.8914  0.4855  0.5368
 2578TIP3    H229226   2.062   4.968  14.837  1.3472 -1.0791 -0.2904
 2579TIP3   OH229227   4.584   6.756  16.837  0.2716  0.1767  0.7447
 2579TIP3    H129228   4.605   6.809  16.760  0.9255 -0.5047  0.4388
 2579TIP3    H229229   4.564   6.820  16.906 -2.8324  0.8384 -0.6074
 2580TIP3   OH229230   1.443   0.443   4.419  0.0203  1.1411 -0.1146
 2580TIP3    H129231   1.501   0.455   4.344  1.2878 -2.7863  0.0365
 2580TIP3    H229232   1.502   0.430   4.493 -1.2075  3.1496  1.3336
 2581TIP3   OH229233   2.907   6.529   6.064  0.1013  0.5049  0.1904
 2581TIP3    H129234   2.962   6.566   6.133 -1.4785  1.1899  1.1249
 2581TIP3    H229235   2.901   6.436   6.085 -0.9163  0.8220  1.4008
 2582TIP3   OH229236   3.225   3.732  12.241 -0.2115  0.0899  0.1732
 2582TIP3    H129237   3.215   3.688  12.157  1.3244 -1.2034  0.6290
 2582TIP3    H229238   3.209   3.825  12.221 -1.0760 -0.3403 -1.2807
 2583TIP3   OH229239   1.274   2.016   0.449 -0.5061  0.4770 -0.0974
 2583TIP3    H129240   1.232   1.993   0.366 -0.7962  0.1192  0.1428
 2583TIP3    H229241   1.206   2.064   0.498 -0.1234  1.2671 -0.3236
 2584TIP3   OH229242   0.381   6.043   4.516 -0.6303  0.4630  0.2889
 2584TIP3    H129243   0.359   6.068   4.426 -0.9345  1.4447  0.6116
 2584TIP3    H229244   0.296   6.035   4.559 -0.4795  0.1635  0.5277
 2585TIP3   OH229245   0.741   5.929   1.123  0.1984 -0.2354  0.1333
 2585TIP3    H129246   0.747   5.991   1.050  2.3151 -0.3445  0.1408
 2585TIP3    H229247   0.790   5.971   1.194  1.9398 -1.9845  0.0408
 2586TIP3   OH229248   1.343   4.786  16.316  0.6025 -0.6492 -0.5162
 2586TIP3    H129249   1.298   4.744  16.244  0.3858 -0.9259 -0.2185
 2586TIP3    H229250   1.369   4.715  16.374  1.5658 -0.5160 -0.7535
 2587TIP3   OH229251   1.355   5.172  16.982 -0.3159  0.3827 -0.4327
 2587TIP3    H129252   1.294   5.245  16.977  0.7170  1.2163 -1.3913
 2587TIP3    H229253   1.337   5.120  16.904 -2.4627 -1.6205  1.2510
 2588TIP3   OH229254   3.042   6.136   2.796 -0.5525 -0.1121 -0.2729
 2588TIP3    H129255   3.040   6.128   2.891 -0.4693  0.8194 -0.1831
 2588TIP3    H229256   2.953   6.163   2.772 -1.3894 -2.8836 -0.7518
 2589TIP3   OH229257   5.891   6.696  15.674 -0.2830 -0.0671 -0.4058
 2589TIP3    H129258   5.945   6.773  15.695  0.4683 -0.1981 -1.7648
 2589TIP3    H229259   5.802   6.724  15.693  0.1706  0.3503  1.3434
 2590TIP3   OH229260   5.728   3.896  14.883  0.2011  0.1247  0.0075
 2590TIP3    H129261   5.771   3.917  14.800  0.6145  1.4062  0.5331
 2590TIP3    H229262   5.674   3.972  14.903  0.1885 -0.1204  0.9757
 2591TIP3   OH229263   2.746   3.020   0.458 -0.3108  0.1377 -0.0930
 2591TIP3    H129264   2.799   3.017   0.378  0.6867 -0.4617  0.5633
 2591TIP3    H229265   2.666   3.066   0.433 -0.1947 -0.4152 -1.5300
 2592TIP3   OH229266   6.287   6.542  17.065  0.2083 -0.1168  0.4168
 2592TIP3    H129267   6.316   6.451  17.075  0.5252  0.0145  0.7040
 2592TIP3    H229268   6.297   6.560  16.971  0.1047 -0.3916  0.3536
 2593TIP3   OH229269   3.845   4.366   3.988  0.3293  0.5515 -0.5637
 2593TIP3    H129270   3.886   4.330   4.067  0.2046  0.1296 -0.6920
 2593TIP3    H229271   3.912   4.357   3.920 -0.7525 -2.4237 -1.3960
 2594TIP3   OH229272   0.912   5.937  11.212 -0.7602 -0.0103 -0.1660
 2594TIP3    H129273   0.964   5.865  11.177 -1.1253 -0.1884 -0.3540
 2594TIP3    H229274   0.851   5.959  11.141 -0.4341  0.7038 -0.2320
 2595TIP3   OH229275   1.645   4.634   0.129  0.1990 -0.0291  0.0695
 2595TIP3    H129276   1.625   4.544   0.102  0.7746 -0.6001  1.5060
 2595TIP3    H229277   1.576   4.656   0.192 -0.2670  0.7709 -0.6806
 2596TIP3   OH229278   6.488   3.244   6.905 -0.5167  0.1738  0.0458
 2596TIP3    H129279   6.582   3.258   6.894 -0.8620  2.7059 -0.3637
 2596TIP3    H229280   6.465   3.181   6.837  0.7408  0.2975 -0.5223
 2597TIP3   OH229281   3.501   3.894  16.202  0.2415 -0.4160 -0.3860
 2597TIP3    H129282   3.476   3.817  16.152  0.7324 -0.5418 -0.4457
 2597TIP3    H229283   3.588   3.918  16.168  2.1652 -2.4692  2.5687
 2598TIP3   OH229284   0.605   2.073   4.136  0.0853  0.1467  0.1171
 2598TIP3    H129285   0.695   2.104   4.144  0.6331 -1.0216 -0.9709
 2598TIP3    H229286   0.567   2.127   4.067  0.2928 -0.0194 -0.1322
 2599TIP3   OH229287   5.632   0.580   0.872  0.0385 -0.3493 -0.0521
 2599TIP3    H129288   5.549   0.617   0.900 -0.6290 -0.9881 -1.1089
 2599TIP3    H229289   5.632   0.590   0.776  1.7589  0.8211  0.0209
 2600TIP3   OH229290   4.316   3.250   2.874 -0.1680  0.6359 -0.0835
 2600TIP3    H129291   4.303   3.179   2.937  2.3031 -0.3399 -0.5571
 2600TIP3    H229292   4.297   3.329   2.924 -0.6496 -0.2336  1.1757
 2601TIP3   OH229293   5.912   5.481   1.462 -0.4437  0.6969  0.0771
 2601TIP3    H129294   5.919   5.570   1.428 -1.3028  0.9827  0.6332
 2601TIP3    H229295   5.854   5.488   1.538 -1.4321 -0.5125 -0.5208
 2602TIP3   OH229296   3.250   6.030  11.044 -0.0513 -0.0882  0.3362
 2602TIP3    H129297   3.264   6.100  10.980  1.3650 -1.7175 -1.2243
 2602TIP3    H229298   3.294   6.061  11.123 -0.2391  1.1551 -0.0235
 2603TIP3   OH229299   2.228   6.104   2.680  0.9155 -0.1282 -0.0931
 2603TIP3    H129300   2.185   6.024   2.648  0.9231 -0.4393  0.6617
 2603TIP3    H229301   2.309   6.109   2.629 -0.3126  0.8809 -2.0840
 2604TIP3   OH229302   0.594   2.774  13.226  0.1015  0.8930 -0.5326
 2604TIP3    H129303   0.677   2.735  13.252 -0.4537 -0.3423 -0.5068
 2604TIP3    H229304   0.574   2.837  13.294  0.0855 -0.1968  0.4949
 2605TIP3   OH229305   0.677   4.935  15.894 -0.0548  0.5030  0.2916
 2605TIP3    H129306   0.684   5.008  15.833 -1.1143  1.6752  1.4872
 2605TIP3    H229307   0.593   4.894  15.874 -0.5100  1.0250  1.0445
 2606TIP3   OH229308   5.437   5.272  17.192  0.1325  0.2435 -0.1547
 2606TIP3    H129309   5.442   5.183  17.157  0.6044  0.9951 -2.1421
 2606TIP3    H229310   5.362   5.270  17.252 -0.2341 -1.3373 -0.6133
 2607TIP3   OH229311   5.963   0.761  15.213 -0.0499  0.6298 -0.4461
 2607TIP3    H129312   6.005   0.681  15.245  2.5818  2.0082 -0.2204
 2607TIP3    H229313   5.984   0.762  15.119 -0.4057  0.8660 -0.5234
 2608TIP3   OH229314   6.731   5.204   5.301 -0.3271  0.5686  0.0158
 2608TIP3    H129315   6.821   5.200   5.333  0.4475  1.1218 -1.9373
 2608TIP3    H229316   6.682   5.245   5.372  1.3959  2.2197  0.3338
 2609TIP3   OH229317   2.859   2.068  11.958 -0.2060  0.0247  0.2325
 2609TIP3    H129318   2.904   2.147  11.928 -0.7819 -0.3381 -1.7398
 2609TIP3    H229319   2.928   2.014  11.995 -0.1659  2.6347  4.7305
 2610TIP3   OH229320   0.282   1.024  10.649  0.1687  0.7063 -0.0670
 2610TIP3    H129321   0.336   1.025  10.569  1.2184  2.2816  0.5946
 2610TIP3    H229322   0.238   0.940  10.647  1.2376  0.1224 -1.6090
 2611TIP3   OH229323   3.354   2.443   4.888 -0.7591  0.5224  0.2175
 2611TIP3    H129324   3.422   2.375   4.892  0.1714  1.3850 -0.4987
 2611TIP3    H229325   3.383   2.502   4.819 -1.3484  1.8638  1.0771
 2612TIP3   OH229326   3.869   4.762   0.237 -0.5735  0.0781 -0.3065
 2612TIP3    H129327   3.936   4.828   0.219  0.4197 -1.0494 -0.8668
 2612TIP3    H229328   3.821   4.753   0.155 -0.2428 -0.4020 -0.4508
 2613TIP3   OH229329   3.325   2.215  16.493 -0.4667  0.1363 -0.1114
 2613TIP3    H129330   3.367   2.172  16.568  0.9974  0.8845 -0.4646
 2613TIP3    H229331   3.267   2.147  16.457  0.2513 -0.8701  0.5518
 2614TIP3   OH229332   5.494   4.012  12.447 -0.3547  0.5008 -0.5942
 2614TIP3    H129333   5.495   4.056  12.532 -0.8419  1.0031 -0.8427
 2614TIP3    H229334   5.401   4.001  12.426 -0.2564 -0.8982 -0.4184
 2615TIP3   OH229335   0.745   6.450  13.180  0.3328  0.0770  0.2739
 2615TIP3    H129336   0.798   6.526  13.157 -1.0194  0.5692 -1.4144
 2615TIP3    H229337   0.659   6.469  13.144 -1.1272 -0.5877  3.1246
 2616TIP3   OH229338   3.002   0.748  15.161  0.0967 -0.1380 -0.1788
 2616TIP3    H129339   3.083   0.786  15.126  0.2881  0.0765  0.4704
 2616TIP3    H229340   2.943   0.744  15.086  0.9896 -1.1102 -0.8689
 2617TIP3   OH229341   2.640   4.778   1.981 -0.1086  0.4812 -0.5896
 2617TIP3    H129342   2.676   4.795   2.067 -1.3523  0.4445 -0.0335
 2617TIP3    H229343   2.598   4.860   1.955 -0.1168  0.3637 -0.9625
 2618TIP3   OH229344   1.499   2.646   3.563  0.3911  0.3572 -0.5180
 2618TIP3    H129345   1.578   2.628   3.512  0.2971 -0.2445 -0.4626
 2618TIP3    H229346   1.427   2.619   3.506  0.2148  1.0806 -0.6421
 2619TIP3   OH229347   5.866   1.426   0.081  0.0874 -0.0665 -0.5577
 2619TIP3    H129348   5.928   1.356   0.060 -1.2906 -1.1424 -1.2245
 2619TIP3    H229349   5.806   1.387   0.144  0.1737  1.0113  0.2104
 2620TIP3   OH229350   6.796   4.616  13.174  0.6092  0.3913  0.0334
 2620TIP3    H129351   6.730   4.660  13.228  0.1957 -0.0527 -0.1045
 2620TIP3    H229352   6.879   4.656  13.200  0.1172  2.1726 -0.9776
 2621TIP3   OH229353   1.686   1.848  14.441 -0.2160 -0.1919  0.0178
 2621TIP3    H129354   1.645   1.920  14.393  0.7006 -0.2804 -0.9369
 2621TIP3    H229355   1.696   1.778  14.376  0.4396 -0.5672  0.5098
 2622TIP3   OH229356   3.746   4.726  15.313  0.2752  0.1414 -0.3796
 2622TIP3    H129357   3.799   4.701  15.237  1.1469  0.8374 -0.0171
 2622TIP3    H229358   3.700   4.805  15.284  1.8058  1.3232  0.3052
 2623TIP3   OH229359   2.905   1.111   0.143 -0.4289 -0.2807  0.2851
 2623TIP3    H129360   2.936   1.077   0.059  0.1489 -0.3030  0.5084
 2623TIP3    H229361   2.820   1.151   0.122  0.8702  2.0628 -0.8371
 2624TIP3   OH229362   0.641   3.209   0.424 -0.1824 -0.0903 -0.1705
 2624TIP3    H129363   0.669   3.118   0.436 -1.3148 -0.5782 -1.0035
 2624TIP3    H229364   0.589   3.207   0.344 -1.7462  0.9464  0.7674
 2625TIP3   OH229365   3.417   0.327  11.152 -0.4456  0.3457  0.2078
 2625TIP3    H129366   3.492   0.385  11.146 -0.0225 -0.1860  0.2682
 2625TIP3    H229367   3.443   0.248  11.104 -0.2497 -0.5776  1.7411
 2626TIP3   OH229368   1.554   3.141   5.388 -0.0088  0.1073  0.6628
 2626TIP3    H129369   1.490   3.199   5.347  0.7589  2.2199  2.2659
 2626TIP3    H229370   1.506   3.060   5.405 -0.9711 -0.0307 -2.1403
 2627TIP3   OH229371   3.164   2.718  14.954 -0.5402 -0.8807  0.1819
 2627TIP3    H129372   3.114   2.647  14.995 -1.4844 -0.5580 -0.4010
 2627TIP3    H229373   3.145   2.710  14.861 -1.5050  0.7815  0.2022
 2628TIP3   OH229374   1.105   6.326  15.432 -0.4574 -0.0378  0.0358
 2628TIP3    H129375   1.134   6.345  15.521 -1.3139 -0.8486  0.5110
 2628TIP3    H229376   1.023   6.376  15.422  0.7874  1.8954 -1.1337
 2629TIP3   OH229377   5.221   1.220  14.768  0.0959  0.2988  0.2295
 2629TIP3    H129378   5.243   1.145  14.824  1.4345 -0.2638 -0.9905
 2629TIP3    H229379   5.294   1.227  14.707  0.3592  3.0463  0.7150
 2630TIP3   OH229380   2.826   4.845   0.319  0.2974 -1.0843 -0.1853
 2630TIP3    H129381   2.774   4.793   0.380  0.2218 -0.7485  0.0371
 2630TIP3    H229382   2.789   4.825   0.233  0.4684 -1.6323 -0.1349
 2631TIP3   OH229383   4.520   5.358  17.068  0.1211 -0.0124 -0.3474
 2631TIP3    H129384   4.453   5.373  17.134  0.3988 -2.2163  0.4925
 2631TIP3    H229385   4.596   5.327  17.117  0.5763 -0.9914 -1.6300
 2632TIP3   OH229386   3.310   1.841  13.988  0.0663 -0.1249 -0.3225
 2632TIP3    H129387   3.261   1.904  13.935  0.3970 -0.4826 -1.0591
 2632TIP3    H229388   3.347   1.780  13.925  2.0092  0.4892  0.1462
 2633TIP3   OH229389   3.512   4.807  16.158 -0.5265 -0.5404 -0.5514
 2633TIP3    H129390   3.491   4.714  16.171 -0.9979 -0.2644  0.9393
 2633TIP3    H229391   3.606   4.809  16.140 -0.3791 -1.2559  0.1017
 2634TIP3   OH229392   5.421   4.633   2.166 -0.0475 -0.1705 -0.4112
 2634TIP3    H129393   5.488   4.565   2.178 -0.2977 -0.3623 -0.0740
 2634TIP3    H229394   5.376   4.610   2.085 -0.6137 -0.8258  0.0798
 2635TIP3   OH229395   5.465   3.729   3.361 -0.0131 -0.0593  0.0740
 2635TIP3    H129396   5.414   3.810   3.368 -2.0402 -1.1400 -1.2330
 2635TIP3    H229397   5.421   3.667   3.420 -0.2060 -0.9999 -1.0251
 2636TIP3   OH229398   4.547   4.063   1.865 -0.2807  0.1552 -0.2661
 2636TIP3    H129399   4.601   3.996   1.823 -2.6821 -1.2546 -1.3053
 2636TIP3    H229400   4.506   4.110   1.793 -0.7206  0.9464  0.4784
 2637TIP3   OH229401   0.868   2.064  13.545  0.1198  0.1451  0.3110
 2637TIP3    H129402   0.904   1.989  13.498 -0.5305  0.0731 -0.0747
 2637TIP3    H229403   0.856   2.032  13.635 -1.4881 -0.6789 -0.1602
 2638TIP3   OH229404   4.910   2.387   5.931  0.0956 -0.1599 -0.5624
 2638TIP3    H129405   4.825   2.382   5.974 -0.0050 -1.1682 -0.8704
 2638TIP3    H229406   4.962   2.317   5.971  0.8591  0.5770 -0.2264
 2639TIP3   OH229407   0.523   5.544   6.085 -0.0549 -0.0235 -0.0231
 2639TIP3    H129408   0.595   5.602   6.063  0.5235 -0.1474  1.4810
 2639TIP3    H229409   0.563   5.459   6.101 -0.7862 -0.6324 -1.2191
 2640TIP3   OH229410   0.687   2.991   4.786 -0.3639 -0.1089  0.2576
 2640TIP3    H129411   0.735   2.916   4.819 -0.7873 -0.2311  0.6138
 2640TIP3    H229412   0.654   2.964   4.700  0.4075  0.0676 -0.0992
 2641TIP3   OH229413   5.207   1.283  12.240  0.0948  0.5954 -0.1272
 2641TIP3    H129414   5.177   1.243  12.322 -0.8757  1.4447 -0.0543
 2641TIP3    H229415   5.143   1.255  12.175  0.4491  0.5287 -0.4459
 2642TIP3   OH229416   0.235   1.011   4.576 -0.0244 -0.1772  0.1628
 2642TIP3    H129417   0.167   0.968   4.523 -0.1363 -0.9093  0.8751
 2642TIP3    H229418   0.290   0.939   4.606 -0.9816 -0.0243  2.5023
 2643TIP3   OH229419   2.460   3.257   3.580  0.2406 -0.2330  0.1238
 2643TIP3    H129420   2.519   3.195   3.624  0.0996 -0.4248  0.0449
 2643TIP3    H229421   2.406   3.202   3.523  1.5095  0.1582 -1.5307
 2644TIP3   OH229422   6.724   2.689  15.167 -0.5035 -0.0972  0.4006
 2644TIP3    H129423   6.653   2.659  15.223 -0.5432  0.4138  0.6298
 2644TIP3    H229424   6.803   2.676  15.220 -0.3755 -1.0485 -0.0073
 2645TIP3   OH229425   4.004   2.617   4.557  0.0610  0.1041 -0.3578
 2645TIP3    H129426   3.963   2.532   4.546 -0.3304  0.2638 -0.1717
 2645TIP3    H229427   4.076   2.601   4.618 -1.3792  0.2872  1.5068
 2646TIP3   OH229428   1.889   3.035  16.862 -0.5051 -0.2822 -0.1239
 2646TIP3    H129429   1.899   2.952  16.816  0.1406  0.0556 -0.6057
 2646TIP3    H229430   1.870   3.010  16.952 -0.5436 -0.9509 -0.3135
 2647TIP3   OH229431   0.220   5.937  15.052  0.3914  0.0113 -0.2035
 2647TIP3    H129432   0.299   5.900  15.014  1.9004  0.5041  2.2199
 2647TIP3    H229433   0.245   6.026  15.077  0.3518 -0.9309  3.8644
 2648TIP3   OH229434   1.615   0.886  12.836  0.2249 -0.2198  0.2499
 2648TIP3    H129435   1.581   0.963  12.791  1.1290  0.6540  1.0118
 2648TIP3    H229436   1.596   0.813  12.777  0.4862  0.7552 -1.0829
 2649TIP3   OH229437   2.492   3.463   5.599 -0.1641  0.2616 -0.3309
 2649TIP3    H129438   2.413   3.506   5.567  0.1572  1.3592  0.3085
 2649TIP3    H229439   2.462   3.378   5.631 -0.6890 -0.3532 -2.3039
 2650TIP3   OH229440   4.069   3.303   4.132 -0.4437  0.4068 -0.2429
 2650TIP3    H129441   4.007   3.237   4.162  0.7285 -0.3754  0.5117
 2650TIP3    H229442   4.049   3.381   4.185  0.1807 -0.2976  1.0571
 2651TIP3   OH229443   5.716   1.418   5.485 -0.4944 -0.1173  0.1933
 2651TIP3    H129444   5.649   1.423   5.553 -0.2130 -2.9858  0.8284
 2651TIP3    H229445   5.698   1.335   5.440  2.8461 -1.3072  0.7368
 2652TIP3   OH229446   0.597   1.522   4.148 -0.1570  0.0014  0.0709
 2652TIP3    H129447   0.647   1.489   4.223 -0.6739  1.8847  1.3041
 2652TIP3    H229448   0.549   1.598   4.182 -0.4258  0.9129 -2.1526
 2653TIP3   OH229449   4.716   1.348   3.529 -0.1591  0.4239 -0.3221
 2653TIP3    H129450   4.808   1.342   3.557 -0.9700 -1.1982  2.3879
 2653TIP3    H229451   4.701   1.268   3.479 -0.4030  0.0529  0.3351
 2654TIP3   OH229452   6.641   0.896  14.002 -0.3351  0.1123 -0.2895
 2654TIP3    H129453   6.572   0.829  14.004  1.0807 -1.4496 -1.0417
 2654TIP3    H229454   6.594   0.979  13.992 -2.0592 -1.0805 -3.5263
 2655TIP3   OH229455   1.176   4.851   3.788 -0.6053 -0.8421 -0.1476
 2655TIP3    H129456   1.122   4.922   3.824 -0.7746 -0.1482 -1.6881
 2655TIP3    H229457   1.126   4.772   3.807 -1.7206 -0.2977 -0.6679
 2656TIP3   OH229458   1.319   3.537  16.702 -0.2622  0.7231  0.1596
 2656TIP3    H129459   1.262   3.560  16.628 -1.2155 -1.3558  0.1736
 2656TIP3    H229460   1.321   3.616  16.756 -2.3901  1.1642 -0.3262
 2657TIP3   OH229461   1.653   3.500   5.785 -0.3780  0.3828 -0.2733
 2657TIP3    H129462   1.641   3.456   5.701  0.2568  1.5727 -1.0185
 2657TIP3    H229463   1.584   3.566   5.788 -0.8340 -0.1081  0.4757
 2658TIP3   OH229464   0.273   5.892  12.253 -0.9504 -0.3574 -0.6718
 2658TIP3    H129465   0.322   5.869  12.174  0.6550  1.1289 -0.1757
 2658TIP3    H229466   0.216   5.964  12.225 -0.8053 -0.2257 -0.6374
 2659TIP3   OH229467   3.148   1.570   3.104  0.5828 -0.1944  0.3420
 2659TIP3    H129468   3.215   1.501   3.109 -0.7096 -1.4466  1.4420
 2659TIP3    H229469   3.123   1.585   3.196 -0.0979  0.8179  0.0094
 2660TIP3   OH229470   3.545   5.479  13.608  0.2439  0.4791  0.2517
 2660TIP3    H129471   3.577   5.520  13.527  2.6349  0.1864  0.9560
 2660TIP3    H229472   3.571   5.540  13.677  0.2480 -0.3179  0.9685
 2661TIP3   OH229473   2.579   5.845  16.799  0.0531  0.3708 -0.4447
 2661TIP3    H129474   2.490   5.863  16.828  0.9059  2.6861  1.0805
 2661TIP3    H229475   2.597   5.912  16.733  0.1850 -1.0555 -1.9101
 2662TIP3   OH229476   3.072   1.992  16.162  0.0338  0.3305 -0.2463
 2662TIP3    H129477   3.077   1.911  16.111  0.4589  0.4069 -0.3277
 2662TIP3    H229478   2.981   2.021  16.152  0.2499  0.6521 -1.4298
 2663TIP3   OH229479   0.967   6.819   4.427 -1.2130 -0.2020 -0.0430
 2663TIP3    H129480   0.895   6.775   4.383 -0.6342 -0.4636 -0.7478
 2663TIP3    H229481   1.045   6.795   4.377 -0.3770 -1.2752  1.6504
 2664TIP3   OH229482   3.683   0.904  11.932 -0.1252  0.0529 -0.3997
 2664TIP3    H129483   3.596   0.931  11.905 -0.1158 -0.3455 -0.8560
 2664TIP3    H229484   3.671   0.814  11.964  0.2980 -0.4407 -1.5648
 2665TIP3   OH229485   5.806   5.146   1.669 -0.1358 -0.5905 -0.1209
 2665TIP3    H129486   5.862   5.183   1.601 -0.1583 -1.5902 -0.6986
 2665TIP3    H229487   5.822   5.200   1.746  0.4105  0.1252 -0.7270
 2666TIP3   OH229488   6.257   1.088   3.650  0.0056 -0.5663  0.3472
 2666TIP3    H129489   6.323   1.041   3.600 -0.2709 -1.8556  1.1472
 2666TIP3    H229490   6.223   1.154   3.590  0.0197 -1.7438 -1.0073
 2667TIP3   OH229491   6.710   2.655   4.918 -0.6965  0.6143  0.2955
 2667TIP3    H129492   6.772   2.704   4.971 -0.4878 -0.5906  1.2007
 2667TIP3    H229493   6.761   2.586   4.878 -1.0874  0.8008 -0.5582
 2668TIP3   OH229494   1.487   0.856   5.730  0.1201  0.3361  0.4781
 2668TIP3    H129495   1.392   0.841   5.723 -0.1393  1.8470  0.4662
 2668TIP3    H229496   1.512   0.816   5.813  0.0321 -2.5921 -0.7952
 2669TIP3   OH229497   6.479   5.569   3.103 -0.2662 -0.1525  0.0864
 2669TIP3    H129498   6.418   5.503   3.137 -1.4408  1.4345  1.1841
 2669TIP3    H229499   6.546   5.576   3.171  0.0848 -0.5064 -0.2223
 2670TIP3   OH229500   0.786   1.712  11.723 -0.3513 -0.3144 -0.0996
 2670TIP3    H129501   0.773   1.725  11.817 -0.6922  1.6908 -0.3898
 2670TIP3    H229502   0.760   1.795  11.683 -1.1523 -1.4385 -2.0628
 2671TIP3   OH229503   6.180   5.600   4.967  0.0037 -0.0045 -0.4944
 2671TIP3    H129504   6.213   5.689   4.959 -0.7934  0.2684 -0.8899
 2671TIP3    H229505   6.144   5.580   4.880 -3.1108  0.6506  0.5175
 2672TIP3   OH229506   2.395   0.521  12.128  0.7339 -0.2642 -0.2394
 2672TIP3    H129507   2.358   0.435  12.148 -1.5956  0.5099 -0.8319
 2672TIP3    H229508   2.411   0.519  12.034  1.6170 -0.3680 -0.0911
 2673TIP3   OH229509   6.190   3.130   2.632  0.2391  0.5906 -0.0535
 2673TIP3    H129510   6.108   3.114   2.584  0.1819 -0.0629  0.2505
 2673TIP3    H229511   6.242   3.183   2.572  0.1969 -0.2757 -0.8812
 2674TIP3   OH229512   6.781   0.810   0.231 -0.2070 -0.7574  0.2199
 2674TIP3    H129513   6.753   0.891   0.188 -0.9477 -0.7159  0.7547
 2674TIP3    H229514   6.717   0.745   0.202 -1.6119 -0.4321  2.3032
 2675TIP3   OH229515   0.190   5.357  16.844  0.0725 -0.3048 -0.2929
 2675TIP3    H129516   0.188   5.268  16.878  0.9483  0.3554  1.5586
 2675TIP3    H229517   0.097   5.380  16.833 -0.2065 -0.9100  0.6761
 2676TIP3   OH229518   3.917   4.002   3.291  0.3325  0.3590  0.0899
 2676TIP3    H129519   3.949   4.090   3.272 -2.3039  1.4216  0.0709
 2676TIP3    H229520   3.841   4.016   3.348  0.3935 -1.9816  0.8708
 2677TIP3   OH229521   2.114   4.872  15.378  0.2296 -0.9347  0.0092
 2677TIP3    H129522   2.137   4.799  15.435 -1.9460 -1.0449  0.8360
 2677TIP3    H229523   2.047   4.837  15.319  0.4984 -0.0770 -0.8451
 2678TIP3   OH229524   4.724   2.986   1.330  0.0842 -0.0800  0.1003
 2678TIP3    H129525   4.688   2.927   1.397 -0.7109  0.9385  0.6007
 2678TIP3    H229526   4.737   2.930   1.254  2.6028 -1.6378  1.5682
 2679TIP3   OH229527   1.345   0.821   0.352  0.1762  0.0845  0.2742
 2679TIP3    H129528   1.333   0.763   0.276  2.9490 -0.5581  0.2113
 2679TIP3    H229529   1.261   0.818   0.398 -0.7788 -1.4816 -1.4228
 2680TIP3   OH229530   3.817   0.933  14.548 -0.2291  0.2027  0.4240
 2680TIP3    H129531   3.856   0.926  14.635 -0.6143 -0.5423  0.5460
 2680TIP3    H229532   3.725   0.952  14.565 -0.1828  0.6805  0.1617
 2681TIP3   OH229533   6.152   6.264  17.146  0.2900 -0.7929  0.1302
 2681TIP3    H129534   6.142   6.291  17.055 -0.8122 -0.0601  0.4374
 2681TIP3    H229535   6.072   6.215  17.165 -0.1518  0.2535  1.0783
 2682TIP3   OH229536   4.221   4.575  14.001  0.3219  0.2089  0.2013
 2682TIP3    H129537   4.300   4.628  14.009 -0.1051  0.6530  1.9899
 2682TIP3    H229538   4.196   4.556  14.091 -0.4357 -1.7125 -0.3621
 2683TIP3   OH229539   4.970   2.075  12.404  0.2837  0.5222 -0.0444
 2683TIP3    H129540   4.970   2.008  12.472 -0.2412  1.1515  0.6016
 2683TIP3    H229541   5.046   2.056  12.351  1.1816  0.4738  1.2089
 2684TIP3   OH229542   0.377   5.238   5.735  0.0546  0.1731  0.0900
 2684TIP3    H129543   0.320   5.310   5.762  1.7294  1.0563  1.4932
 2684TIP3    H229544   0.357   5.168   5.797 -0.4782 -0.0251 -0.3000
 2685TIP3   OH229545   5.500   5.966   5.608  0.4219  0.3152  0.0342
 2685TIP3    H129546   5.579   5.924   5.643 -0.8795 -1.3345  1.1792
 2685TIP3    H229547   5.464   6.013   5.683 -0.4504 -0.1995 -0.0444
 2686TIP3   OH229548   4.186   3.427  12.604  0.4384  0.2032  0.3438
 2686TIP3    H129549   4.151   3.369  12.672  2.3113  0.0538  1.2430
 2686TIP3    H229550   4.146   3.512  12.622  0.5608  0.0555  1.3755
 2687TIP3   OH229551   5.767   2.382   2.538 -0.3738 -0.0610  1.0110
 2687TIP3    H129552   5.793   2.314   2.599 -0.7879 -0.7279  0.4551
 2687TIP3    H229553   5.773   2.341   2.452  0.1920  0.8576  0.5849
 2688TIP3   OH229554   2.677   0.357  11.863 -0.4977  0.1842  0.2238
 2688TIP3    H129555   2.757   0.403  11.836 -0.0911 -0.6164 -0.0010
 2688TIP3    H229556   2.693   0.266  11.835 -0.2847 -0.5899  2.6636
 2689TIP3   OH229557   4.974   3.730   6.445  0.0358 -0.2084  0.3258
 2689TIP3    H129558   4.998   3.658   6.504 -0.0452  2.0897  3.4600
 2689TIP3    H229559   5.035   3.800   6.468 -0.3499  1.0058 -2.0856
 2690TIP3   OH229560   0.201   2.277   1.006  0.3797 -0.9177 -0.1328
 2690TIP3    H129561   0.140   2.305   1.074  0.6775  0.0206 -0.2467
 2690TIP3    H229562   0.215   2.184   1.024  0.4338 -0.6920  1.0838
 2691TIP3   OH229563   6.140   4.441   0.162  0.4524 -0.4767 -0.2462
 2691TIP3    H129564   6.085   4.369   0.131 -1.0630  1.4584 -2.4809
 2691TIP3    H229565   6.216   4.440   0.103 -1.7862  2.3710 -3.6324
 2692TIP3   OH229566   6.672   4.311   5.801 -0.5528 -0.8570  0.1275
 2692TIP3    H129567   6.720   4.320   5.883  0.6982 -3.7331 -0.1523
 2692TIP3    H229568   6.735   4.340   5.734 -0.5598 -1.1320  0.0025
 2693TIP3   OH229569   0.148   2.546  11.064  0.4054  0.6582 -0.4263
 2693TIP3    H129570   0.101   2.545  10.981  1.8372  2.3772 -1.3359
 2693TIP3    H229571   0.221   2.485  11.052 -0.1780 -0.1557  0.0955
 2694TIP3   OH229572   4.475   0.151  12.709 -0.3079  0.4479  0.3153
 2694TIP3    H129573   4.517   0.103  12.637 -0.8173  0.5275 -0.0361
 2694TIP3    H229574   4.469   0.241  12.677  0.8181  0.8107  1.0460
 2695TIP3   OH229575   6.336   2.490  15.333 -0.2916 -0.3934 -0.2569
 2695TIP3    H129576   6.276   2.553  15.373  0.3967 -1.3922  2.5679
 2695TIP3    H229577   6.423   2.520  15.359  0.3547 -0.2381 -2.3943
 2696TIP3   OH229578   5.393   2.765   4.030  0.7062 -0.2469 -0.0303
 2696TIP3    H129579   5.394   2.860   4.042 -0.6021 -0.3333  1.0206
 2696TIP3    H229580   5.410   2.730   4.117  2.6880 -1.0274 -0.6729
 2697TIP3   OH229581   0.825   2.727   2.850  0.0717  0.2273  0.5357
 2697TIP3    H129582   0.812   2.806   2.797  0.7481  0.1970  0.3192
 2697TIP3    H229583   0.865   2.759   2.930 -0.7479  0.2440  0.9499
 2698TIP3   OH229584   2.811   5.175  15.203  0.7300 -0.3348 -0.4276
 2698TIP3    H129585   2.840   5.087  15.227  0.7800  0.0446  1.0439
 2698TIP3    H229586   2.720   5.178  15.233  0.9461  0.3352  0.1719
 2699TIP3   OH229587   1.503   3.720   5.814 -0.0036  0.0885  0.2842
 2699TIP3    H129588   1.532   3.811   5.800  0.3910 -0.0735  0.0239
 2699TIP3    H229589   1.534   3.698   5.902  0.6858 -0.0900 -0.0016
 2700TIP3   OH229590   4.504   6.801   5.451  0.0615 -0.3796  0.4127
 2700TIP3    H129591   4.539   6.881   5.489  0.9415 -1.3471  1.7410
 2700TIP3    H229592   4.578   6.740   5.450 -0.4797 -1.0681 -0.9378
 2701TIP3   OH229593   1.811   0.677   1.789 -0.4279  0.7523  0.2794
 2701TIP3    H129594   1.790   0.710   1.702 -0.6623  0.3621  0.1852
 2701TIP3    H229595   1.890   0.725   1.814  0.6854 -0.3816 -0.8878
 2702TIP3   OH229596   1.570   4.828   6.208  0.4412 -0.1084 -0.1905
 2702TIP3    H129597   1.534   4.887   6.274 -0.3004  1.7599 -2.1493
 2702TIP3    H229598   1.520   4.747   6.219  0.2429  0.1913  1.4179
 2703TIP3   OH229599   3.133   1.437  16.400 -0.2600 -0.0584  0.1922
 2703TIP3    H129600   3.142   1.392  16.484 -2.5279  0.7801  0.9859
 2703TIP3    H229601   3.042   1.421  16.375  0.6370 -1.2143 -2.7179
 2704TIP3   OH229602   3.371   4.102  12.468 -0.0058  0.0774 -0.2562
 2704TIP3    H129603   3.432   4.147  12.409 -1.5029  0.0120 -1.9424
 2704TIP3    H229604   3.380   4.010  12.444 -2.9201  0.3032 -2.8313
 2705TIP3   OH229605   4.023   1.815  15.144 -0.0982  0.3672 -0.5028
 2705TIP3    H129606   3.937   1.773  15.143  0.2367 -0.3687 -0.0380
 2705TIP3    H229607   4.054   1.808  15.054 -0.1598 -0.1772 -0.4889
 2706TIP3   OH229608   0.115   4.846  13.328  0.7174 -0.1182  0.4027
 2706TIP3    H129609   0.091   4.814  13.416  0.5270 -1.1107  0.0010
 2706TIP3    H229610   0.126   4.940  13.340 -0.5470 -0.0422  1.2334
 2707TIP3   OH229611   6.793   3.499   5.275 -0.6586  0.3826  0.2798
 2707TIP3    H129612   6.795   3.560   5.201  2.0508 -0.3810 -0.3981
 2707TIP3    H229613   6.727   3.435   5.251  0.4236 -0.0712 -1.7521
 2708TIP3   OH229614   3.347   6.094  11.342 -0.5113  0.1534  0.0849
 2708TIP3    H129615   3.391   6.035  11.403 -0.3104 -1.9552 -1.9086
 2708TIP3    H229616   3.418   6.131  11.289 -0.8422 -1.3517 -1.5347
 2709TIP3   OH229617   6.089   2.207  13.962  0.8107 -0.0334 -0.2156
 2709TIP3    H129618   6.032   2.230  14.035 -0.8229 -1.0326 -1.1053
 2709TIP3    H229619   6.140   2.286  13.946 -0.7133  1.1138  0.3067
 2710TIP3   OH229620   3.128   4.707  12.257  0.4892 -0.4769 -0.3300
 2710TIP3    H129621   3.159   4.737  12.342 -1.8395  1.4530 -0.0367
 2710TIP3    H229622   3.119   4.612  12.267  1.7742 -0.4865  1.0146
 2711TIP3   OH229623   3.692   6.171   4.055  0.3280 -0.3235  0.0090
 2711TIP3    H129624   3.708   6.163   4.149  0.6338  0.7293  0.0603
 2711TIP3    H229625   3.777   6.198   4.020 -0.3554  1.6342 -0.2385
 2712TIP3   OH229626   1.198   4.045   2.525 -0.1696  0.7752  0.0618
 2712TIP3    H129627   1.190   4.109   2.595 -0.1860  1.1585 -0.2833
 2712TIP3    H229628   1.112   4.004   2.520  0.0133  0.3184  0.6689
 2713TIP3   OH229629   4.222   5.997   0.563 -0.2601 -0.1652  0.1460
 2713TIP3    H129630   4.197   5.985   0.655 -1.8014  0.4677 -0.1474
 2713TIP3    H229631   4.142   5.978   0.515  0.7019 -1.1002 -1.1288
 2714TIP3   OH229632   3.804   3.858   3.064  0.1769  0.3346  0.1469
 2714TIP3    H129633   3.830   3.901   3.146  0.9418 -0.6321  0.4333
 2714TIP3    H229634   3.739   3.917   3.025 -3.4835 -1.0216  3.4746
 2715TIP3   OH229635   2.460   1.615   1.452 -0.0181 -0.6066  0.1071
 2715TIP3    H129636   2.526   1.592   1.387  1.2524 -0.9672  1.4700
 2715TIP3    H229637   2.492   1.697   1.491 -0.6498 -0.5089  0.4309
 2716TIP3   OH229638   0.278   6.812   5.669 -0.1058  0.2378 -1.2118
 2716TIP3    H129639   0.311   6.734   5.713  0.4063 -1.0838 -3.7618
 2716TIP3    H229640   0.346   6.878   5.683 -0.0007 -0.1052 -0.0149
 2717TIP3   OH229641   4.049   1.740  12.989 -0.3100 -0.5015 -0.2387
 2717TIP3    H129642   4.076   1.777  12.905  1.4624  0.4545  0.6675
 2717TIP3    H229643   4.003   1.812  13.033 -1.2609 -1.0061 -0.4075
 2718TIP3   OH229644   4.489   2.529   5.445  0.0864  0.0124 -0.2263
 2718TIP3    H129645   4.459   2.490   5.364 -1.6816  1.5104 -0.3567
 2718TIP3    H229646   4.427   2.500   5.511 -0.1393  1.0272  0.0294
 2719TIP3   OH229647   1.477   1.139   1.824 -0.2121 -0.1069  0.6931
 2719TIP3    H129648   1.409   1.199   1.794  0.3088  0.4457  0.5819
 2719TIP3    H229649   1.430   1.071   1.873 -0.7379  1.0301  1.8459
 2720TIP3   OH229650   0.279   4.960  13.923 -0.5336 -0.4912  0.0373
 2720TIP3    H129651   0.206   4.910  13.959  1.0614 -1.0484  2.8002
 2720TIP3    H229652   0.347   4.894  13.907  0.2492  0.2961  0.0261
 2721TIP3   OH229653   0.127   0.928   0.402 -0.9660  0.5541  0.3492
 2721TIP3    H129654   0.055   0.900   0.345 -0.2185  1.0374 -0.8518
 2721TIP3    H229655   0.206   0.904   0.355 -0.3273  1.1918  1.0691
 2722TIP3   OH229656   6.837   4.615  16.182 -0.1011 -0.6045  0.3782
 2722TIP3    H129657   6.754   4.621  16.133  0.4374 -0.9931 -0.6069
 2722TIP3    H229658   6.841   4.696  16.232 -0.7184 -0.2335 -0.1570
 2723TIP3   OH229659   4.619   1.850   5.516 -0.0094  0.2198 -0.3098
 2723TIP3    H129660   4.529   1.852   5.549  0.2085  0.3370  0.2952
 2723TIP3    H229661   4.614   1.800   5.434 -0.6156  0.1963 -0.2637
 2724TIP3   OH229662   3.865   1.152  12.397 -0.3662  0.5542  0.1860
 2724TIP3    H129663   3.773   1.143  12.374 -0.1145  1.0057 -1.1002
 2724TIP3    H229664   3.906   1.189  12.318  0.6566  1.7387  1.2364
 2725TIP3   OH229665   2.696   4.975  15.473 -0.3284  0.0747  0.4500
 2725TIP3    H129666   2.738   4.902  15.428  0.1179  0.0335  0.9341
 2725TIP3    H229667   2.614   4.939  15.506  0.0767 -0.3129  1.0334
 2726TIP3   OH229668   0.658   1.321  16.855  0.4469  0.0659  0.2381
 2726TIP3    H129669   0.626   1.252  16.797  2.5529 -1.5750  0.9036
 2726TIP3    H229670   0.582   1.378  16.870 -1.5904 -2.4955  0.2550
 2727TIP3   OH229671   3.984   4.713   1.186  0.5247  0.1804  0.0485
 2727TIP3    H129672   3.975   4.619   1.174 -0.9204  0.4527 -1.3357
 2727TIP3    H229673   3.903   4.740   1.229  0.4217  0.9374 -0.5946
 2728TIP3   OH229674   2.450   2.007   4.973  0.0562  0.6373 -0.2773
 2728TIP3    H129675   2.537   2.021   5.011  0.8083 -1.6542 -0.9790
 2728TIP3    H229676   2.392   1.997   5.049  0.4777  1.6185  0.1983
 2729TIP3   OH229677   6.749   5.057   3.615 -0.5604 -0.4930 -0.4862
 2729TIP3    H129678   6.682   5.109   3.571 -0.1730  0.5914  0.1554
 2729TIP3    H229679   6.749   5.090   3.705 -0.5480 -1.8681  0.0537
 2730TIP3   OH229680   6.380   0.754  17.151 -0.0026 -0.2012  0.0118
 2730TIP3    H129681   6.447   0.723  17.212 -0.6556 -1.7299 -0.0038
 2730TIP3    H229682   6.317   0.801  17.207  0.1703 -0.2992  0.2910
 2731TIP3   OH229683   3.845   3.504  15.095  0.0605  0.0796 -0.5271
 2731TIP3    H129684   3.784   3.459  15.036 -1.0128  2.2412 -1.1771
 2731TIP3    H229685   3.914   3.537  15.038  0.2548  0.2028 -0.2228
 2732TIP3   OH229686   1.356   6.570   1.011 -0.3960  0.1842  0.7926
 2732TIP3    H129687   1.413   6.555   1.086  0.6147 -1.7623 -0.2868
 2732TIP3    H229688   1.273   6.530   1.035 -0.2131 -0.0438  1.0374
 2733TIP3   OH229689   6.111   5.219  15.221  0.7031 -0.1867 -0.2326
 2733TIP3    H129690   6.033   5.166  15.233  1.0574 -0.9077 -1.0197
 2733TIP3    H229691   6.090   5.275  15.146  0.3283  0.8338  0.5928
 2734TIP3   OH229692   1.009   3.984   0.568  0.1322  0.0705  0.1140
 2734TIP3    H129693   0.938   3.939   0.523 -0.3165  1.0999 -0.2385
 2734TIP3    H229694   0.965   4.048   0.625  0.7183 -0.5791  1.3420
 2735TIP3   OH229695   4.776   1.056  12.581 -0.5204  0.3170  0.3670
 2735TIP3    H129696   4.817   0.972  12.559 -3.9250 -2.1935  2.4282
 2735TIP3    H229697   4.775   1.057  12.677 -1.9721  1.9152  0.3773
 2736TIP3   OH229698   0.528   5.591   3.123  0.2614 -0.3542  0.2110
 2736TIP3    H129699   0.534   5.608   3.217  0.9511 -0.0800  0.1249
 2736TIP3    H229700   0.607   5.542   3.102  0.1190 -0.4045 -0.2281
 2737TIP3   OH229701   4.328   2.115   5.008  0.2194 -0.4926 -0.4322
 2737TIP3    H129702   4.247   2.122   4.957 -0.1608  0.7557  0.3115
 2737TIP3    H229703   4.397   2.114   4.941 -0.2787  0.9748 -1.0106
 2738TIP3   OH229704   1.190   5.301  15.178  0.3437  0.3953  0.0898
 2738TIP3    H129705   1.242   5.318  15.099  1.0388  0.4642  0.5516
 2738TIP3    H229706   1.149   5.385  15.198 -1.2572 -0.0322 -1.1792
 2739TIP3   OH229707   4.972   1.825  12.495  0.0745  0.1075  0.1614
 2739TIP3    H129708   5.006   1.738  12.479  2.2594  1.1272 -1.1101
 2739TIP3    H229709   4.900   1.811  12.557  0.3978 -2.5533  0.0530
 2740TIP3   OH229710   4.439   5.313  16.432 -0.1858 -0.5460 -0.5550
 2740TIP3    H129711   4.465   5.345  16.346  0.7471 -0.4640 -0.2558
 2740TIP3    H229712   4.506   5.348  16.492 -0.9508 -0.3978  0.2409
 2741TIP3   OH229713   2.988   3.590   0.885  0.2380 -0.1042  0.0659
 2741TIP3    H129714   3.078   3.622   0.882 -0.2144  1.2783  0.5549
 2741TIP3    H229715   2.939   3.648   0.827 -0.3767 -0.7385 -0.0691
 2742TIP3   OH229716   3.617   0.289  15.124  0.2063  0.9420 -0.3765
 2742TIP3    H129717   3.576   0.229  15.061 -0.6025  0.9344  0.1423
 2742TIP3    H229718   3.575   0.373  15.106 -0.7150  0.7483  0.7507
 2743TIP3   OH229719   0.529   0.967   0.858  0.2722  0.3628 -0.4108
 2743TIP3    H129720   0.579   0.892   0.888  1.0678  0.2387 -1.9436
 2743TIP3    H229721   0.438   0.939   0.864  0.5263 -0.4642 -0.2535
 2744TIP3   OH229722   0.755   6.678   4.339  0.3761  0.1868 -0.3363
 2744TIP3    H129723   0.713   6.684   4.425  1.6069 -0.9682  0.3699
 2744TIP3    H229724   0.749   6.586   4.316 -0.1404  0.5196 -1.6196
 2745TIP3   OH229725   3.350   5.555   0.014  0.1127  0.3003  0.1664
 2745TIP3    H129726   3.323   5.513  -0.067 -0.3741  0.9592 -0.0219
 2745TIP3    H229727   3.440   5.585  -0.003  0.1317  0.1435 -0.0107
 2746TIP3   OH229728   0.882   4.078  13.271  0.0422 -0.2496  0.1183
 2746TIP3    H129729   0.921   4.152  13.318  0.2341  0.6681 -1.4270
 2746TIP3    H229730   0.944   4.059  13.202 -1.9761  1.0015 -2.1919
 2747TIP3   OH229731   5.412   3.607   6.127 -0.1463 -0.4487 -0.4545
 2747TIP3    H129732   5.337   3.582   6.073  1.1893 -1.4329 -1.9304
 2747TIP3    H229733   5.439   3.526   6.170 -0.0026 -0.0661  0.1935
 2748TIP3   OH229734   2.031   5.343  14.379 -0.5168  0.3084  0.0383
 2748TIP3    H129735   2.079   5.260  14.373  1.0455  1.1793 -0.1493
 2748TIP3    H229736   1.978   5.346  14.300 -0.5483 -0.4892  0.0205
 2749TIP3   OH229737   2.256   3.336  11.328  0.7043 -0.5927  0.3147
 2749TIP3    H129738   2.309   3.274  11.377  1.2500 -1.2908 -1.0940
 2749TIP3    H229739   2.317   3.404  11.299  0.0734  0.7967  2.0415
 2750TIP3   OH229740   5.378   6.600  10.538  0.7999 -0.0780  0.0857
 2750TIP3    H129741   5.372   6.514  10.581  0.9172 -0.9651 -1.5704
 2750TIP3    H229742   5.459   6.638  10.572  3.1297 -2.5197 -2.2687
 2751TIP3   OH229743   0.245   2.828   1.642 -0.0619 -0.0258  0.3341
 2751TIP3    H129744   0.219   2.920   1.651  0.5229  0.1710  0.0852
 2751TIP3    H229745   0.215   2.804   1.554 -0.2789 -0.0995  0.4264
 2752TIP3   OH229746   1.894   1.943  15.863 -0.0294 -0.2631  0.1267
 2752TIP3    H129747   1.871   2.025  15.818 -0.9264 -0.8243 -0.4603
 2752TIP3    H229748   1.971   1.966  15.915 -1.4960  1.5430  1.6650
 2753TIP3   OH229749   2.520   0.915   0.735 -0.9829  0.3872  1.0298
 2753TIP3    H129750   2.601   0.888   0.690 -2.8483 -2.9197 -0.7542
 2753TIP3    H229751   2.534   1.007   0.757  2.7541  0.2954 -0.2893
 2754TIP3   OH229752   0.089   2.523  15.578 -0.4963 -0.2383 -0.3320
 2754TIP3    H129753   0.174   2.546  15.617 -0.0268 -1.8051 -0.3631
 2754TIP3    H229754   0.092   2.428  15.570 -2.5618 -0.3980  0.3177
 2755TIP3   OH229755   4.424   4.010  16.007 -0.5802  0.1047  0.0233
 2755TIP3    H129756   4.374   4.081  16.048  0.6378  0.0336  1.7118
 2755TIP3    H229757   4.463   4.050  15.930 -0.3375  1.1440  0.6655
 2756TIP3   OH229758   0.398   6.266   2.602  0.5722  0.3726 -0.1196
 2756TIP3    H129759   0.467   6.209   2.636  0.1152  0.1301  0.4208
 2756TIP3    H229760   0.413   6.350   2.644 -0.0736  0.0365  0.8137
 2757TIP3   OH229761   1.469   2.273   4.470 -0.0654 -0.3155  0.0473
 2757TIP3    H129762   1.508   2.242   4.388 -0.2257  1.5763 -0.7890
 2757TIP3    H229763   1.512   2.357   4.487 -1.4287  0.2585  0.8608
 2758TIP3   OH229764   3.686   4.759  14.439 -0.5446 -0.6975 -0.6288
 2758TIP3    H129765   3.723   4.728  14.356  0.3730 -0.9276 -0.1531
 2758TIP3    H229766   3.639   4.684  14.474  0.8029 -1.2814  0.0248
 2759TIP3   OH229767   5.564   2.007   3.460 -0.0320 -0.2511 -0.4252
 2759TIP3    H129768   5.495   1.945   3.436  0.6578 -1.1893 -0.0342
 2759TIP3    H229769   5.588   2.049   3.378 -0.8645 -0.1217 -0.6111
 2760TIP3   OH229770   6.419   3.182   1.108 -0.2150 -0.1851  0.0730
 2760TIP3    H129771   6.463   3.181   1.193  0.3715 -2.0805 -0.2110
 2760TIP3    H229772   6.401   3.275   1.091  2.7259  0.6070  0.7136
 2761TIP3   OH229773   3.920   2.459   0.698  0.9411  0.1674  0.1823
 2761TIP3    H129774   3.969   2.378   0.683 -1.1431 -1.2849  0.8923
 2761TIP3    H229775   3.915   2.466   0.793 -1.0986 -0.3086  0.1420
 2762TIP3   OH229776   5.918   0.259   5.451 -0.0959 -0.1140 -0.5355
 2762TIP3    H129777   5.910   0.314   5.373 -1.3423  0.1751 -0.2382
 2762TIP3    H229778   5.990   0.200   5.432 -0.3798 -0.0496 -1.9127
 2763TIP3   OH229779   5.601   5.744   0.682  0.7426  0.2283 -0.2060
 2763TIP3    H129780   5.518   5.712   0.719  0.5037 -0.6494 -1.4334
 2763TIP3    H229781   5.630   5.673   0.625  1.4999  1.2031 -1.0595
 2764TIP3   OH229782   4.801   3.736   5.107 -0.2730  0.0543 -0.0353
 2764TIP3    H129783   4.739   3.704   5.173 -0.1107  1.0431  0.6043
 2764TIP3    H229784   4.753   3.805   5.061  0.3931  0.9138  0.5470
 2765TIP3   OH229785   4.874   1.033   3.837 -0.0950  0.5260  0.0017
 2765TIP3    H129786   4.800   1.070   3.788 -1.1328 -0.1211  1.0170
 2765TIP3    H229787   4.857   1.060   3.928 -0.8476 -2.2709  0.7796
 2766TIP3   OH229788   0.702   3.196   0.733  0.0539  0.0190 -0.1321
 2766TIP3    H129789   0.698   3.201   0.638 -0.6036  1.0712 -0.0626
 2766TIP3    H229790   0.667   3.280   0.763  1.2848  0.1549  1.0207
 2767TIP3   OH229791   3.700   5.302   0.616 -0.6337 -0.0205  0.3094
 2767TIP3    H129792   3.708   5.213   0.652  0.1172  0.7707  2.2075
 2767TIP3    H229793   3.666   5.288   0.528 -3.1813 -2.0308  1.4727
 2768TIP3   OH229794   1.638   5.343  11.875 -0.2074  0.2156  0.3030
 2768TIP3    H129795   1.666   5.269  11.820 -1.9441 -0.8643  0.7998
 2768TIP3    H229796   1.605   5.302  11.955  0.5083  1.6657  1.3824
 2769TIP3   OH229797   3.001   0.301   1.362 -0.4413 -0.1487  0.0396
 2769TIP3    H129798   3.038   0.220   1.327 -0.6489 -1.0904  1.8809
 2769TIP3    H229799   3.072   0.364   1.358  0.0039 -0.6717 -0.5582
 2770TIP3   OH229800   4.160   1.499  14.971 -0.1660  0.5378  0.3413
 2770TIP3    H129801   4.072   1.476  15.000  0.8007  0.7153  3.9181
 2770TIP3    H229802   4.201   1.540  15.048  2.5345  1.9742 -1.6583
 2771TIP3   OH229803   3.570   1.237  15.908 -0.2939 -0.0257 -0.4625
 2771TIP3    H129804   3.631   1.164  15.918 -0.3760  0.0324  0.5952
 2771TIP3    H229805   3.618   1.313  15.944  0.3762  0.7889 -2.9039
 2772TIP3   OH229806   2.879   6.191   4.060 -1.0246  0.0145  0.0953
 2772TIP3    H129807   2.882   6.240   3.977 -0.9549  0.6912  0.4915
 2772TIP3    H229808   2.828   6.247   4.119 -1.4816 -0.6823  0.3738
 2773TIP3   OH229809   1.077   4.212  15.339 -0.3863 -0.3772  0.3152
 2773TIP3    H129810   1.120   4.281  15.289  0.0045 -1.2824 -0.6454
 2773TIP3    H229811   1.145   4.146  15.353 -0.3281  0.0634  2.5525
 2774TIP3   OH229812   3.351   6.514  14.673 -0.4812  0.3557  0.3384
 2774TIP3    H129813   3.380   6.426  14.697 -0.0068  0.7367  1.2324
 2774TIP3    H229814   3.259   6.516  14.699 -0.5757  0.0305  0.0386
 2775TIP3   OH229815   4.757   0.773   0.541 -0.2701  0.0969  0.0285
 2775TIP3    H129816   4.753   0.698   0.600  0.0073  0.3106  0.3225
 2775TIP3    H229817   4.665   0.800   0.531 -0.2153  0.9756  1.5629
 2776TIP3   OH229818   5.468   0.953   1.066 -0.2464 -0.0157  0.1579
 2776TIP3    H129819   5.478   0.858   1.058  0.5280  0.0736 -0.0375
 2776TIP3    H229820   5.446   0.968   1.158  0.9011 -0.2937  0.4902
 2777TIP3   OH229821   5.824   0.023   2.682  0.0878 -0.0855 -0.4151
 2777TIP3    H129822   5.742  -0.024   2.668 -0.3196  1.0132 -1.9900
 2777TIP3    H229823   5.812   0.070   2.764 -1.4716  1.2474 -1.3643
 2778TIP3   OH229824   5.604   4.820  13.954  0.2577 -0.7895 -0.3876
 2778TIP3    H129825   5.587   4.729  13.930  3.2410 -1.0620 -1.9783
 2778TIP3    H229826   5.556   4.871  13.889 -0.7830 -1.1878  0.0344
 2779TIP3   OH229827   5.067   1.069   0.926 -0.3473  0.3362  0.2966
 2779TIP3    H129828   5.001   1.041   0.863  2.1431 -1.1364 -1.8357
 2779TIP3    H229829   5.073   0.997   0.989 -0.1613  0.0662 -0.0281
 2780TIP3   OH229830   0.393   3.675  11.339 -0.0352 -0.2980 -0.0693
 2780TIP3    H129831   0.313   3.636  11.304 -0.5371 -0.9120  1.6829
 2780TIP3    H229832   0.393   3.764  11.303 -2.4323  0.3093  1.1925
 2781TIP3   OH229833   3.440   5.040   4.630  0.2048 -0.2132 -0.2651
 2781TIP3    H129834   3.422   5.094   4.552 -0.2854 -0.1238 -0.0947
 2781TIP3    H229835   3.466   4.955   4.595  0.3173 -0.0697 -0.5316
 2782TIP3   OH229836   1.846   1.925  12.052 -0.2719  0.6413  0.8813
 2782TIP3    H129837   1.801   1.932  12.136 -0.4154  0.6743  0.8026
 2782TIP3    H229838   1.819   2.003  12.004 -0.7356  0.2781  0.5417
 2783TIP3   OH229839   1.344   5.352  13.808 -0.2323 -0.1852 -0.1766
 2783TIP3    H129840   1.334   5.429  13.752 -0.1083 -0.7152 -0.9396
 2783TIP3    H229841   1.319   5.278  13.752 -0.0210 -0.7358  0.4411
 2784TIP3   OH229842   0.104   1.239  10.704 -0.0629  0.2274  0.0674
 2784TIP3    H129843   0.159   1.316  10.722 -1.3938  0.9664  1.1203
 2784TIP3    H229844   0.163   1.177  10.661  0.9432  2.0044 -1.2455
 2785TIP3   OH229845   6.221   6.049  15.434  0.8034 -0.4265 -0.3131
 2785TIP3    H129846   6.160   6.120  15.417  0.9048  0.0290  1.0832
 2785TIP3    H229847   6.301   6.092  15.465  1.6790 -1.0452 -1.5952
 2786TIP3   OH229848   0.054   0.246  11.734  0.0828  0.0835 -0.4192
 2786TIP3    H129849  -0.006   0.319  11.718  0.5614  1.1084  1.9947
 2786TIP3    H229850   0.075   0.252  11.827 -2.4950 -5.1625  0.8768
 2787TIP3   OH229851   3.911   1.451   4.278  0.0902 -0.4971  0.2427
 2787TIP3    H129852   3.935   1.359   4.272  1.4782 -0.1521  0.3080
 2787TIP3    H229853   3.966   1.487   4.347 -0.3807  0.4040  0.1763
 2788TIP3   OH229854   5.844   3.272  16.205 -0.0500  0.2366  0.0229
 2788TIP3    H129855   5.783   3.345  16.193  0.2315  0.3029 -1.1622
 2788TIP3    H229856   5.827   3.214  16.131  0.1775 -0.5811  0.5995
 2789TIP3   OH229857   1.606   2.920  11.960  0.1900  0.2817  0.3177
 2789TIP3    H129858   1.638   2.934  12.049  0.5319 -0.0311  0.2442
 2789TIP3    H229859   1.645   2.837  11.933  0.0766  0.3674 -0.1193
 2790TIP3   OH229860   1.332   6.762   4.007  0.1731 -0.3455 -0.3870
 2790TIP3    H129861   1.368   6.838   4.052  1.0882 -0.3228 -1.1340
 2790TIP3    H229862   1.362   6.687   4.059 -0.4986 -0.2183  0.1933
 2791TIP3   OH229863   0.958   1.876  14.785  0.7878 -0.9140  0.3507
 2791TIP3    H129864   0.994   1.854  14.699  0.2159 -2.3167  0.4494
 2791TIP3    H229865   1.008   1.822  14.846 -0.3042 -1.5946  0.6594
 2792TIP3   OH229866   6.471   6.762   5.578 -0.2563  0.2288  0.1873
 2792TIP3    H129867   6.469   6.849   5.616 -0.9499  0.6195 -0.7024
 2792TIP3    H229868   6.413   6.710   5.634  0.2567  0.2864  0.7913
 2793TIP3   OH229869   5.115   3.679   3.209  0.2721 -0.3962  0.4863
 2793TIP3    H129870   5.171   3.737   3.261  0.0596 -0.5976  0.9449
 2793TIP3    H229871   5.099   3.728   3.129 -1.3286  0.9541  1.5670
 2794TIP3   OH229872   4.167   1.273  15.631  0.2777 -0.1384 -0.2952
 2794TIP3    H129873   4.129   1.202  15.683 -2.5830 -1.0558 -3.2976
 2794TIP3    H229874   4.224   1.229  15.569 -0.3862  0.3334 -1.2530
 2795TIP3   OH229875   2.190   2.155   0.026 -0.4975 -0.2721 -0.2342
 2795TIP3    H129876   2.199   2.068   0.065  0.5319  0.4675  1.2562
 2795TIP3    H229877   2.280   2.183   0.008 -0.8945 -0.2163 -2.3946
 2796TIP3   OH229878   1.689   0.785  16.820 -0.1662  0.3095  0.2057
 2796TIP3    H129879   1.753   0.785  16.891 -0.5523 -0.1693  0.5595
 2796TIP3    H229880   1.672   0.878  16.804 -2.2724  0.4897  2.7865
 2797TIP3   OH229881   5.324   4.016   3.358 -0.7389  0.0376 -0.2028
 2797TIP3    H129882   5.260   4.086   3.366  0.4210  1.1357 -0.0643
 2797TIP3    H229883   5.369   4.034   3.275  1.1883  0.9338  0.9619
 2798TIP3   OH229884   2.411   3.525  16.557  0.4911  0.3810  0.1999
 2798TIP3    H129885   2.449   3.607  16.590  0.7820 -0.1405  1.2272
 2798TIP3    H229886   2.449   3.458  16.614 -1.4747 -0.2382  0.8641
 2799TIP3   OH229887   6.623   2.817  13.692  0.3439 -0.4971  0.2291
 2799TIP3    H129888   6.644   2.894  13.640  0.4872 -0.0866  0.8763
 2799TIP3    H229889   6.533   2.794  13.668  0.6536 -0.7416 -0.7100
 2800TIP3   OH229890   5.014   4.836  14.473  0.2963 -0.0768  0.4901
 2800TIP3    H129891   5.003   4.783  14.394 -1.2242  2.4657 -1.1308
 2800TIP3    H229892   5.102   4.873  14.466 -0.3146  1.2332 -0.8170
 2801TIP3   OH229893   5.510   3.670   0.317  0.2093 -0.3690 -0.0734
 2801TIP3    H129894   5.493   3.576   0.309 -1.9696 -0.0256 -0.1679
 2801TIP3    H229895   5.426   3.711   0.295  1.0676  1.5985  0.1386
 2802TIP3   OH229896   0.443   5.743   1.652  0.2882 -0.0807 -0.2019
 2802TIP3    H129897   0.427   5.651   1.675 -2.4427 -0.3529 -2.6584
 2802TIP3    H229898   0.380   5.792   1.703 -0.3400  0.0958 -1.1334
 2803TIP3   OH229899   3.168   0.795  16.743 -0.0277  0.1849  0.4461
 2803TIP3    H129900   3.124   0.847  16.676  1.6598  0.7287 -0.2870
 2803TIP3    H229901   3.198   0.717  16.697 -0.7804 -0.4964  1.0881
 2804TIP3   OH229902   3.481   5.644  14.809  0.3287  0.0661 -0.1121
 2804TIP3    H129903   3.390   5.665  14.833  0.2137 -1.7670  1.3052
 2804TIP3    H229904   3.487   5.549  14.821  2.4811  0.1664 -0.0345
 2805TIP3   OH229905   3.475   1.577   4.962  0.1092 -0.6042 -0.1008
 2805TIP3    H129906   3.561   1.618   4.954 -0.2646  0.2183 -0.0735
 2805TIP3    H229907   3.438   1.582   4.874 -0.6439  0.7728  0.2522
 2806TIP3   OH229908   4.179   6.683   6.272 -0.3717 -0.0588 -0.4615
 2806TIP3    H129909   4.227   6.742   6.214  1.1552 -0.6401  0.1597
 2806TIP3    H229910   4.207   6.596   6.246  0.7941 -0.3236  1.4447
 2807TIP3   OH229911   1.614   4.262   2.924 -0.4883 -0.2502  0.3024
 2807TIP3    H129912   1.702   4.290   2.900  0.0448 -2.3467 -0.4732
 2807TIP3    H229913   1.627   4.214   3.007 -1.2917  1.3460  1.3956
 2808TIP3   OH229914   3.917   1.642  12.041 -0.0808  0.1582  0.4209
 2808TIP3    H129915   4.008   1.659  12.016  0.2682 -0.4773  1.2293
 2808TIP3    H229916   3.877   1.606  11.962 -0.3007  2.6487 -0.7291
 2809TIP3   OH229917   0.165   1.632   0.193  0.2861  0.2904 -0.0043
 2809TIP3    H129918   0.096   1.686   0.154 -0.7418  0.2062  1.5862
 2809TIP3    H229919   0.121   1.548   0.212  1.1242 -0.1510  0.0346
 2810TIP3   OH229920   5.691   1.077  10.789  0.1896  0.2641 -0.2717
 2810TIP3    H129921   5.628   1.096  10.719  0.0761 -1.2690 -0.6243
 2810TIP3    H229922   5.643   1.023  10.851  0.0436  2.2709  1.4773
 2811TIP3   OH229923   1.961   2.340   4.034  0.5577  0.3750  0.2240
 2811TIP3    H129924   2.037   2.389   4.064  0.7242  2.0648 -2.5334
 2811TIP3    H229925   1.990   2.300   3.952 -1.3108  0.6270 -0.6219
 2812TIP3   OH229926   4.621   5.536  13.088 -0.0028  0.0571 -0.3551
 2812TIP3    H129927   4.681   5.464  13.069 -1.2064 -1.1027  0.0586
 2812TIP3    H229928   4.553   5.529  13.021 -0.3147  0.5913 -0.1034
 2813TIP3   OH229929   0.093   1.182  14.367  0.4165 -0.2568  0.0232
 2813TIP3    H129930   0.068   1.091  14.382  0.3096 -0.1826  0.3208
 2813TIP3    H229931   0.078   1.197  14.274  0.6716 -0.6146 -0.0757
 2814TIP3   OH229932   2.833   5.538  13.225 -0.4011 -0.3602 -0.1164
 2814TIP3    H129933   2.883   5.508  13.301  1.4755  0.5177 -0.9433
 2814TIP3    H229934   2.849   5.632  13.221  0.1741 -0.4976 -2.0097
 2815TIP3   OH229935   2.421   6.714   1.484 -0.7700  0.6371 -0.1973
 2815TIP3    H129936   2.480   6.770   1.534 -2.2433  0.9965  1.2131
 2815TIP3    H229937   2.441   6.625   1.513 -0.5787  0.7118 -0.0999
 2816TIP3   OH229938   4.525   5.143  11.512  0.1066 -0.4326 -0.5307
 2816TIP3    H129939   4.565   5.057  11.525  3.4333  0.9251 -0.9220
 2816TIP3    H229940   4.535   5.188  11.596  0.5614  0.3651 -0.9977
 2817TIP3   OH229941   3.909   2.701   1.258  0.2770 -0.0424  0.1547
 2817TIP3    H129942   3.917   2.730   1.349 -0.4915  1.0064 -0.0881
 2817TIP3    H229943   3.885   2.609   1.264 -2.8371  0.7136  1.1314
 2818TIP3   OH229944   0.171   1.980   6.275 -0.2850  0.1995 -0.6168
 2818TIP3    H129945   0.156   1.908   6.336 -0.3807  0.8909  0.2012
 2818TIP3    H229946   0.161   2.059   6.328  0.8897  0.8092 -1.2415
 2819TIP3   OH229947   4.736   2.425   3.492  0.3500 -0.0977  0.3638
 2819TIP3    H129948   4.672   2.374   3.442  0.4287  0.6676 -0.5494
 2819TIP3    H229949   4.817   2.375   3.485  0.4252  0.1316 -0.5167
 2820TIP3   OH229950   2.249   5.861   4.654 -0.7165  0.3977 -0.1767
 2820TIP3    H129951   2.207   5.925   4.712 -0.2721  0.4933  0.0398
 2820TIP3    H229952   2.315   5.912   4.607  0.3412 -0.1020  0.7309
 2821TIP3   OH229953   5.557   1.340   0.230 -0.0497  0.2390  0.2825
 2821TIP3    H129954   5.487   1.343   0.165 -0.0175  2.8665  0.2429
 2821TIP3    H229955   5.512   1.342   0.314 -0.1017  1.5922  0.2565
 2822TIP3   OH229956   2.944   6.217   0.340  0.6998 -0.5218 -0.4639
 2822TIP3    H129957   2.928   6.311   0.340 -1.5627 -0.8561 -0.8281
 2822TIP3    H229958   3.033   6.208   0.375  0.0559  1.6069  2.0808
 2823TIP3   OH229959   3.127   2.204   1.444  0.0418  0.3395 -0.3104
 2823TIP3    H129960   3.191   2.266   1.409 -0.6638  1.8260  0.9169
 2823TIP3    H229961   3.042   2.244   1.425 -0.5826 -1.5776 -1.8599
 2824TIP3   OH229962   4.088   1.014  16.434  0.1606  0.0676  0.2283
 2824TIP3    H129963   4.031   1.054  16.499  1.4279 -1.4115  2.3846
 2824TIP3    H229964   4.173   1.058  16.447  0.6867 -0.9355  0.3354
 2825TIP3   OH229965   3.247   3.530   1.151  0.3901 -0.2057 -0.5720
 2825TIP3    H129966   3.263   3.545   1.244  2.3393  0.1549 -0.9341
 2825TIP3    H229967   3.304   3.592   1.106 -2.5085  1.6388 -2.0620
 2826TIP3   OH229968   1.914   2.240  13.431 -0.8591 -0.2911 -0.0587
 2826TIP3    H129969   1.949   2.286  13.508  0.2078 -0.9776 -0.1037
 2826TIP3    H229970   1.824   2.218  13.454 -0.9152  0.5206  0.5343
 2827TIP3   OH229971   6.670   3.779  15.157  0.0844 -0.2298 -0.1411
 2827TIP3    H129972   6.689   3.844  15.090  1.8831 -0.2911  0.2598
 2827TIP3    H229973   6.721   3.703  15.132 -0.1763 -0.6786  0.6485
 2828TIP3   OH229974   1.148   5.444  15.784  0.4323 -0.2064 -0.1224
 2828TIP3    H129975   1.152   5.428  15.690  0.8585 -0.8592 -0.0005
 2828TIP3    H229976   1.132   5.358  15.823  0.2883  0.0514  0.4052
 2829TIP3   OH229977   4.435   1.016   3.842  0.2534  0.3756  0.0140
 2829TIP3    H129978   4.394   1.071   3.910 -1.0842 -0.1682 -0.3212
 2829TIP3    H229979   4.452   0.933   3.886  0.2276  0.3275 -0.0665
 2830TIP3   OH229980   3.215   4.519   3.916  0.7876 -0.4948  0.3846
 2830TIP3    H129981   3.197   4.594   3.860  1.2821 -0.6475  0.0073
 2830TIP3    H229982   3.288   4.547   3.971  0.2561 -0.3210  1.0088
 2831TIP3   OH229983   3.052   3.128   2.756 -0.5520  0.3809 -0.1332
 2831TIP3    H129984   2.967   3.163   2.728  0.5645  2.8380 -0.6534
 2831TIP3    H229985   3.092   3.097   2.674 -0.8514 -0.6551  0.0944
 2832TIP3   OH229986   2.261   3.415   3.631  0.4853 -0.1761  0.3743
 2832TIP3    H129987   2.296   3.502   3.613 -0.0778  0.0277  0.2554
 2832TIP3    H229988   2.334   3.356   3.614  0.9239  0.2864  0.6295
 2833TIP3   OH229989   5.294   2.376   1.510  0.3713  0.5165 -0.1608
 2833TIP3    H129990   5.373   2.342   1.468 -0.0340 -1.1139  0.3223
 2833TIP3    H229991   5.299   2.344   1.600 -0.5769  0.8513  0.0169
 2834TIP3   OH229992   4.420   0.814  11.542  0.1302 -0.3718 -0.0412
 2834TIP3    H129993   4.345   0.839  11.596  0.9093  1.2606  0.3593
 2834TIP3    H229994   4.396   0.729  11.506 -0.2553 -1.7855  3.2021
 2835TIP3   OH229995   0.332   0.881   0.228 -0.3691  0.2046  0.3791
 2835TIP3    H129996   0.399   0.949   0.231  1.6208 -1.6281  3.1605
 2835TIP3    H229997   0.361   0.821   0.159 -0.9374  1.0050 -0.5801
 2836TIP3   OH229998   4.644   1.138   6.233  0.9331 -0.0337 -0.1895
 2836TIP3    H129999   4.724   1.160   6.280  0.0617  0.4299  1.1116
 2836TIP3    H230000   4.594   1.219   6.231  1.1620  0.1216 -2.4455
 2837TIP3   OH230001   5.074   5.726   0.202 -0.1889  0.3332 -0.4069
 2837TIP3    H130002   5.147   5.732   0.141  1.0907 -0.1170  1.0066
 2837TIP3    H230003   5.081   5.805   0.256 -1.7375  1.0961 -1.2469
 2838TIP3   OH230004   2.888   5.637  16.427 -0.0294  0.1130  0.0900
 2838TIP3    H130005   2.841   5.586  16.361  0.0366  0.7116 -0.4282
 2838TIP3    H230006   2.950   5.575  16.465 -0.7617 -0.5054  0.3112
 2839TIP3   OH230007   1.021   6.482  11.900 -0.4822  0.1852 -0.6896
 2839TIP3    H130008   0.973   6.558  11.934 -2.1659 -0.8753 -0.5855
 2839TIP3    H230009   0.954   6.416  11.885  0.5029 -0.2899 -3.7427
 2840TIP3   OH230010   3.531   0.887   2.222  0.1318  1.0669  0.7555
 2840TIP3    H130011   3.547   0.794   2.207  0.7274  1.5098 -1.8211
 2840TIP3    H230012   3.606   0.916   2.275  1.4571  0.6174 -0.8166
 2841TIP3   OH230013   1.911   6.784   3.206  0.3189 -0.5818  0.4735
 2841TIP3    H130014   1.867   6.812   3.287  0.7430 -1.0558  0.8801
 2841TIP3    H230015   1.982   6.728   3.237  0.1009 -1.2726 -0.2697
 2842TIP3   OH230016   5.556   5.185   4.578  0.4138 -0.2141  0.0571
 2842TIP3    H130017   5.586   5.097   4.601  0.4865 -0.4978 -1.0708
 2842TIP3    H230018   5.542   5.228   4.662 -0.2349 -1.5033  0.6416
 2843TIP3   OH230019   0.646   1.827   0.569  0.7122  0.5762  0.4306
 2843TIP3    H130020   0.577   1.875   0.616 -0.4065 -0.0789 -0.4744
 2843TIP3    H230021   0.715   1.813   0.634  1.0489  3.2895  0.7733
 2844TIP3   OH230022   3.455   3.907   3.096 -0.0862 -0.2978 -0.4713
 2844TIP3    H130023   3.398   3.871   3.164 -0.2849  0.7511 -0.0612
 2844TIP3    H230024   3.469   3.834   3.036 -1.4978 -0.7107 -0.3452
 2845TIP3   OH230025   2.329   6.368   3.316  0.2835 -0.5142  0.1807
 2845TIP3    H130026   2.282   6.327   3.389  1.6939 -1.4265  0.6156
 2845TIP3    H230027   2.331   6.301   3.248  2.7294 -1.3311  0.9486
 2846TIP3   OH230028   2.382   3.749  11.638 -0.4048  0.0244 -0.3305
 2846TIP3    H130029   2.303   3.761  11.585 -0.4875 -0.0541 -0.2246
 2846TIP3    H230030   2.447   3.713  11.577 -1.7948 -4.6626  0.5349
 2847TIP3   OH230031   5.801   6.698   4.013  0.1905  0.3997  0.3077
 2847TIP3    H130032   5.716   6.655   4.022  1.4622 -1.9627  1.9891
 2847TIP3    H230033   5.813   6.707   3.918 -2.0813  1.2205  0.0398
 2848TIP3   OH230034   4.302   5.461   5.689 -0.5837  0.3676  0.2526
 2848TIP3    H130035   4.245   5.460   5.765  1.6905 -0.6400  2.0719
 2848TIP3    H230036   4.389   5.478   5.724  0.4840  0.3671 -2.1923
 2849TIP3   OH230037   1.236   1.436   4.527  0.2498 -0.4635  0.1739
 2849TIP3    H130038   1.240   1.409   4.619  1.6578 -0.7278  0.0458
 2849TIP3    H230039   1.326   1.457   4.504 -0.4960  3.3443 -0.0526
 2850TIP3   OH230040   5.315   2.236   2.165 -0.1402 -0.3798  0.0269
 2850TIP3    H130041   5.393   2.230   2.110 -0.4538 -1.3500 -0.3373
 2850TIP3    H230042   5.336   2.183   2.242 -0.1310  0.0470  0.3225
 2851TIP3   OH230043   4.424   0.157   0.654 -0.0958  0.9001  0.1776
 2851TIP3    H130044   4.473   0.232   0.687  1.7107 -0.3182  0.3834
 2851TIP3    H230045   4.401   0.107   0.732 -2.3251  1.7467  0.1624
 2852TIP3   OH230046   3.453   4.625  15.030  0.0432 -0.3587  0.2023
 2852TIP3    H130047   3.418   4.709  15.060  1.0643 -0.0107  0.4531
 2852TIP3    H230048   3.465   4.574  15.111 -0.3343 -0.6615  0.0728
 2853TIP3   OH230049   1.951   3.972  13.639 -0.1584 -0.6018  0.2571
 2853TIP3    H130050   1.974   4.026  13.715  2.2384 -1.2478  0.0694
 2853TIP3    H230051   1.893   4.028  13.587 -0.5346  0.4544  1.7298
 2854TIP3   OH230052   1.287   2.433  15.367 -0.1369  0.3032  0.1834
 2854TIP3    H130053   1.317   2.518  15.397 -0.5219  0.1091  1.1487
 2854TIP3    H230054   1.257   2.448  15.277 -0.8466  1.3287  0.5844
 2855TIP3   OH230055   3.482   1.707  16.543 -0.4108 -0.4160 -0.1898
 2855TIP3    H130056   3.571   1.737  16.563 -0.6866 -0.3491  0.9987
 2855TIP3    H230057   3.494   1.617  16.512  0.4371  0.8209 -3.9130
 2856TIP3   OH230058   0.933   5.653   3.613 -0.4780 -0.9399  0.1751
 2856TIP3    H130059   0.875   5.647   3.537  1.6124  0.5807 -1.6787
 2856TIP3    H230060   0.912   5.738   3.652 -1.1289 -1.4587  1.0043
 2857TIP3   OH230061   2.548   2.023  16.724 -0.2420 -0.3009  0.0419
 2857TIP3    H130062   2.567   1.943  16.674 -1.1949 -0.9442  0.6822
 2857TIP3    H230063   2.545   1.994  16.815  0.3204  0.6549  0.3790
 2858TIP3   OH230064   5.738   4.110   0.070 -0.2617  0.5536 -0.6686
 2858TIP3    H130065   5.749   4.059   0.150 -0.3685 -0.2132 -1.1329
 2858TIP3    H230066   5.648   4.093   0.043 -1.0656  2.8175  0.3986
 2859TIP3   OH230067   5.850   4.989  14.608 -1.3345  0.0966 -0.4571
 2859TIP3    H130068   5.774   4.999  14.665 -0.3271 -0.2329  1.0210
 2859TIP3    H230069   5.839   5.057  14.541 -2.4564  0.6595  0.2575
 2860TIP3   OH230070   1.202   6.137   4.286  0.4199  0.0049 -0.2734
 2860TIP3    H130071   1.159   6.220   4.265 -1.4944 -0.1252  2.5789
 2860TIP3    H230072   1.290   6.162   4.314 -0.0447  1.0985  0.2816
 2861TIP3   OH230073   2.637   4.610  13.405  0.2411  0.4032 -0.5633
 2861TIP3    H130074   2.573   4.572  13.465 -0.6641  0.3584 -1.5227
 2861TIP3    H230075   2.649   4.543  13.338  2.2647 -0.1086  0.2321
 2862TIP3   OH230076   3.349   6.462  12.074  0.3294 -0.2261 -0.0075
 2862TIP3    H130077   3.369   6.554  12.053 -1.7496  0.5164  1.0079
 2862TIP3    H230078   3.367   6.455  12.168  0.4494 -0.8544 -0.0780
 2863TIP3   OH230079   2.908   3.749  15.802  0.2541 -0.0211  0.0224
 2863TIP3    H130080   2.835   3.699  15.839  0.1903 -0.3637 -0.5464
 2863TIP3    H230081   2.872   3.836  15.785 -0.4016 -0.5496 -1.4356
 2864TIP3   OH230082   3.609   0.856   1.087  0.0234 -0.0334 -0.2777
 2864TIP3    H130083   3.568   0.770   1.074 -0.7357  0.3233 -0.2914
 2864TIP3    H230084   3.671   0.864   1.015 -1.8447  0.5716 -1.9153
 2865TIP3   OH230085   4.385   0.350   2.734  0.1358 -0.2274  0.2256
 2865TIP3    H130086   4.317   0.340   2.800  1.0804  0.9224  1.4467
 2865TIP3    H230087   4.439   0.272   2.743 -0.5865 -0.7858 -0.2325
 2866TIP3   OH230088   1.711   1.556  14.750 -0.0841 -0.1176 -0.2971
 2866TIP3    H130089   1.622   1.533  14.725  0.0144 -1.4064  0.4664
 2866TIP3    H230090   1.734   1.493  14.818  0.4399  1.8877  1.4914
 2867TIP3   OH230091   1.386   6.119   4.943 -0.0410  0.7462 -0.1553
 2867TIP3    H130092   1.457   6.165   4.988  0.9377 -2.5634  2.0654
 2867TIP3    H230093   1.339   6.074   5.012 -0.4335 -2.1373 -2.1152
 2868TIP3   OH230094   0.721   4.076   5.653  0.1591  0.2495  0.3812
 2868TIP3    H130095   0.770   4.010   5.701 -1.3079 -0.9798  0.2627
 2868TIP3    H230096   0.733   4.156   5.704  2.3293  0.0409  0.2941
 2869TIP3   OH230097   0.917   1.416  12.063  0.0144 -0.1838  0.8396
 2869TIP3    H130098   0.855   1.381  12.000 -2.4385  2.4885  1.5704
 2869TIP3    H230099   1.000   1.421  12.015 -0.7096 -2.1567 -0.7550
 2870TIP3   OH230100   6.780   0.192  16.921  0.0565  0.1612 -0.3741
 2870TIP3    H130101   6.773   0.116  16.863  0.4833  2.0765 -3.1679
 2870TIP3    H230102   6.870   0.223  16.911  0.2622  0.3655  1.6773
 2871TIP3   OH230103   6.461   0.594  14.864 -0.3038 -0.1250 -0.6036
 2871TIP3    H130104   6.482   0.506  14.895  0.8789  0.2976 -0.1333
 2871TIP3    H230105   6.379   0.584  14.815  0.1566 -1.6055 -1.1233
 2872TIP3   OH230106   0.645   5.387  14.584 -0.0394  0.6997 -1.2496
 2872TIP3    H130107   0.705   5.397  14.510 -1.0343  2.0743 -1.9138
 2872TIP3    H230108   0.602   5.472  14.591  1.7138  1.5079  2.4579
 2873TIP3   OH230109   0.137   0.680  13.794 -0.2350  0.1772 -0.5518
 2873TIP3    H130110   0.191   0.675  13.873 -0.4817  0.5149 -0.3554
 2873TIP3    H230111   0.087   0.599  13.795 -0.4286  0.2939 -0.2115
 2874TIP3   OH230112   0.406   4.140  13.293 -0.5698  0.7649  0.4344
 2874TIP3    H130113   0.318   4.121  13.323  0.4575 -2.2119  1.9964
 2874TIP3    H230114   0.447   4.187  13.366  0.4444 -2.0952  1.8566
 2875TIP3   OH230115   4.617   2.481  12.124  0.0828 -0.5841  0.4046
 2875TIP3    H130116   4.628   2.576  12.121 -3.5784  0.1114  2.4738
 2875TIP3    H230117   4.685   2.450  12.184  1.8200  0.5439 -0.9036
 2876TIP3   OH230118   1.674   4.547   4.596  0.4199  0.7141 -0.2333
 2876TIP3    H130119   1.725   4.467   4.610 -1.2556 -0.2621  0.5430
 2876TIP3    H230120   1.689   4.570   4.505 -1.5691 -2.3554 -1.4760
 2877TIP3   OH230121   6.280   5.644  14.742 -1.1304  0.0596  0.0153
 2877TIP3    H130122   6.298   5.664  14.834 -1.4008 -0.8956  0.2936
 2877TIP3    H230123   6.326   5.711  14.693  0.9589 -0.7315  0.7838
 2878TIP3   OH230124   3.711   3.052  14.121 -0.1558  0.4521  0.0939
 2878TIP3    H130125   3.621   3.076  14.099 -0.2462  0.1973  0.1923
 2878TIP3    H230126   3.708   3.025  14.212 -0.1629 -0.4979 -0.1746
 2879TIP3   OH230127   6.730   2.566   1.562 -0.6464 -0.7619  0.1565
 2879TIP3    H130128   6.666   2.581   1.493 -0.4009  2.1400  0.4635
 2879TIP3    H230129   6.677   2.549   1.640 -1.0409  0.0805  0.0871
 2880TIP3   OH230130   0.447   0.838  13.791  1.1925  0.1832 -0.5952
 2880TIP3    H130131   0.390   0.891  13.847 -0.7901 -2.0359 -0.3988
 2880TIP3    H230132   0.533   0.880  13.799 -0.0792  2.8596  0.1528
 2881TIP3   OH230133   6.317   3.452  16.676 -0.0555  0.1763  0.5532
 2881TIP3    H130134   6.375   3.376  16.682 -0.4110 -0.2749 -1.2108
 2881TIP3    H230135   6.229   3.415  16.684 -0.3271  0.0960 -1.9844
 2882TIP3   OH230136   0.064   2.466  10.811 -0.2584 -0.1092  0.0616
 2882TIP3    H130137  -0.026   2.493  10.793 -0.8120 -0.6603  1.8184
 2882TIP3    H230138   0.065   2.372  10.791 -0.0807 -0.1029  0.0443
 2883TIP3   OH230139   4.436   3.711  15.205  0.5126 -0.1906 -0.1085
 2883TIP3    H130140   4.458   3.636  15.260 -0.5633 -0.4737 -0.0605
 2883TIP3    H230141   4.379   3.676  15.137  0.3429  0.5047 -0.3386
 2884TIP3   OH230142   0.523   3.411   1.362  0.4573 -0.5326 -0.2073
 2884TIP3    H130143   0.432   3.388   1.381  0.4891 -0.2025  0.3676
 2884TIP3    H230144   0.557   3.335   1.315 -0.1074 -0.6712 -0.4059
 2885TIP3   OH230145   2.116   6.321  10.391 -0.2745 -0.6955  0.5345
 2885TIP3    H130146   2.116   6.415  10.378 -2.8494 -0.4338  1.6773
 2885TIP3    H230147   2.073   6.309  10.476 -0.9794 -2.9137 -0.0646
 2886TIP3   OH230148   3.797   4.219  13.303  0.6764  0.3523  0.7366
 2886TIP3    H130149   3.775   4.259  13.387  1.1007 -1.7127  1.8949
 2886TIP3    H230150   3.713   4.188  13.269  0.3748  1.9728 -0.0730
 2887TIP3   OH230151   0.093   2.829  16.744  0.0015 -0.6059  0.1346
 2887TIP3    H130152   0.009   2.798  16.779 -1.1737  1.8400 -0.2844
 2887TIP3    H230153   0.086   2.924  16.746  2.0167 -0.3391 -1.7485
 2888TIP3   OH230154   4.587   0.900   2.607  0.4874 -0.7546 -0.3409
 2888TIP3    H130155   4.492   0.913   2.605  0.7713  1.7449 -1.3224
 2888TIP3    H230156   4.611   0.887   2.516  1.3931  2.3034 -0.6723
 2889TIP3   OH230157   3.847   5.666  15.045 -0.3727 -0.1062 -0.4303
 2889TIP3    H130158   3.935   5.651  15.011 -0.2750  0.2296 -0.3267
 2889TIP3    H230159   3.852   5.643  15.138 -0.9182 -2.1387 -0.8380
 2890TIP3   OH230160   6.785   4.056   4.454  0.7044  0.3546 -0.0320
 2890TIP3    H130161   6.742   4.117   4.395  1.0089  0.2981 -0.3146
 2890TIP3    H230162   6.764   3.970   4.419  0.3510  0.2978  0.3138
 2891TIP3   OH230163   0.893   2.475   2.769 -0.7106  0.6956  0.0090
 2891TIP3    H130164   0.891   2.568   2.793  2.1156  0.5967  1.0434
 2891TIP3    H230165   0.865   2.430   2.848 -1.9650  0.6321 -0.4554
 2892TIP3   OH230166   5.370   4.474  11.841 -0.2391  0.1654 -0.1604
 2892TIP3    H130167   5.326   4.516  11.915  1.1304  1.3673  0.0155
 2892TIP3    H230168   5.322   4.505  11.764  0.1089  1.2502  0.0424
 2893TIP3   OH230169   0.409   5.150   2.579 -0.1558 -0.3843 -0.1159
 2893TIP3    H130170   0.414   5.209   2.503  1.7644  0.1009  0.3283
 2893TIP3    H230171   0.473   5.082   2.560 -0.6622 -1.0250  0.4586
 2894TIP3   OH230172   4.732   6.088   2.415 -0.7771 -0.4127  0.1813
 2894TIP3    H130173   4.744   6.153   2.485 -0.1217 -0.6462  0.3002
 2894TIP3    H230174   4.708   6.008   2.461 -0.7288 -0.4674  0.1113
 2895TIP3   OH230175   2.953   0.825   5.359  0.1689  0.2110  0.0188
 2895TIP3    H130176   2.931   0.757   5.296 -0.5831  0.3859  0.0905
 2895TIP3    H230177   2.963   0.779   5.442 -0.9494  0.2578  0.1929
 2896TIP3   OH230178   2.351   5.963  13.183  0.1266  0.2833  0.2205
 2896TIP3    H130179   2.435   5.923  13.206 -0.4283 -0.5270  0.8567
 2896TIP3    H230180   2.363   5.991  13.092  0.2797 -2.0484 -0.5448
 2897TIP3   OH230181   0.703   4.863  12.642 -0.2083 -0.0746  0.0096
 2897TIP3    H130182   0.675   4.933  12.582 -0.9089 -1.1838 -1.0174
 2897TIP3    H230183   0.774   4.902  12.692 -1.2495  1.7028  0.1979
 2898TIP3   OH230184   1.750   1.341  15.737 -0.1143 -0.0896  0.8466
 2898TIP3    H130185   1.796   1.341  15.653 -0.9207 -0.6570  0.3973
 2898TIP3    H230186   1.820   1.337  15.803  0.5542  1.0073  0.2386
 2899TIP3   OH230187   5.813   0.422  14.958 -0.6652  0.5479  0.2854
 2899TIP3    H130188   5.746   0.469  15.009 -1.9349 -1.3021  0.4116
 2899TIP3    H230189   5.888   0.416  15.018 -1.7260 -0.5739  1.5873
 2900TIP3   OH230190   4.198   0.348   2.955 -0.1029 -0.0413  0.1204
 2900TIP3    H130191   4.214   0.392   3.038 -1.4669 -2.5674  1.8726
 2900TIP3    H230192   4.184   0.256   2.979  0.7103 -1.1367 -3.0645
 2901TIP3   OH230193   4.617   2.194   2.074  0.2963  0.8358  0.1111
 2901TIP3    H130194   4.569   2.162   1.997  0.5542  1.7163 -0.4267
 2901TIP3    H230195   4.588   2.137   2.145 -1.6846  1.4615 -0.1489
 2902TIP3   OH230196   0.508   2.566   4.494  0.5157  0.3856 -0.0092
 2902TIP3    H130197   0.426   2.516   4.489 -0.2440  1.4356  1.1899
 2902TIP3    H230198   0.487   2.651   4.456  0.1060  1.7202  2.9259
 2903TIP3   OH230199   3.137   6.008   3.081  0.0416 -0.6387  0.0222
 2903TIP3    H130200   3.229   6.026   3.097  0.2725 -1.3352 -0.4704
 2903TIP3    H230201   3.133   5.983   2.988 -0.5119 -1.4122  0.2373
 2904TIP3   OH230202   5.599   6.551  11.080  0.8825  0.4323 -0.4029
 2904TIP3    H130203   5.550   6.480  11.039  2.2490 -0.8487  0.0544
 2904TIP3    H230204   5.650   6.590  11.009  0.2996  0.8151 -0.6150
 2905TIP3   OH230205   2.729   3.989  13.306  0.6045 -0.3149  0.5197
 2905TIP3    H130206   2.689   3.902  13.309  0.2021 -0.1353  0.3264
 2905TIP3    H230207   2.700   4.032  13.386  1.2393 -0.5436  0.8843
 2906TIP3   OH230208   1.901   0.912   4.235 -0.3034 -0.6161 -0.0513
 2906TIP3    H130209   1.813   0.883   4.212 -0.3487 -1.4590  1.0980
 2906TIP3    H230210   1.955   0.886   4.160 -0.5989 -2.4625  0.3349
 2907TIP3   OH230211   6.820   2.942  10.913  0.3669  0.6237 -0.3635
 2907TIP3    H130212   6.892   2.983  10.962 -1.0669  0.5518  1.9546
 2907TIP3    H230213   6.861   2.869  10.868  1.7924  0.6401  0.8077
 2908TIP3   OH230214   3.590   0.411   3.235 -0.4952  0.1577 -0.1520
 2908TIP3    H130215   3.640   0.331   3.251 -2.2225 -0.7730  0.9104
 2908TIP3    H230216   3.507   0.380   3.198 -0.4004  1.6323 -1.7303
 2909TIP3   OH230217   5.126   1.503  14.808  0.0976 -0.0559  0.6240
 2909TIP3    H130218   5.205   1.502  14.862  1.9812 -0.2176 -1.9941
 2909TIP3    H230219   5.155   1.534  14.722 -2.4183 -1.3845 -0.8238
 2910TIP3   OH230220   2.461   2.360  16.253 -0.0811 -0.2992 -0.4242
 2910TIP3    H130221   2.471   2.285  16.193  0.7099 -0.5970  0.0691
 2910TIP3    H230222   2.461   2.321  16.340 -1.9215  0.0630 -0.2239
 2911TIP3   OH230223   3.385   5.037  16.058 -0.2927 -0.0357  0.2433
 2911TIP3    H130224   3.453   5.029  15.990  1.6836  1.8315  1.8551
 2911TIP3    H230225   3.419   4.987  16.131 -1.4238 -0.3589  0.5482
 2912TIP3   OH230226   0.478   0.719  14.153 -0.0474 -0.1750  0.0531
 2912TIP3    H130227   0.496   0.813  14.153 -0.6090 -0.0476 -1.6204
 2912TIP3    H230228   0.506   0.689  14.067  0.2443 -1.5868  0.6058
 2913TIP3   OH230229   1.168   0.896  13.543 -0.2358 -0.0981  0.0458
 2913TIP3    H130230   1.115   0.962  13.498  1.5646  1.4693  0.0597
 2913TIP3    H230231   1.132   0.892  13.632  0.1229  1.5200  0.2908
 2914TIP3   OH230232   6.746   2.352  13.026 -0.0520  0.2429 -0.3166
 2914TIP3    H130233   6.806   2.363  13.100 -0.7422 -0.2206  0.3271
 2914TIP3    H230234   6.741   2.439  12.986  0.5462  0.4331  0.0136
 2915TIP3   OH230235   0.672   6.590   5.134  0.4100 -0.4773 -0.2689
 2915TIP3    H130236   0.618   6.630   5.202 -0.8757 -1.0098 -0.9251
 2915TIP3    H230237   0.611   6.576   5.061  1.7297  0.0432 -1.5227
 2916TIP3   OH230238   3.761   4.159  12.710 -0.1955 -0.3544  0.3280
 2916TIP3    H130239   3.722   4.097  12.772 -0.3896 -1.2045 -0.6104
 2916TIP3    H230240   3.719   4.138  12.626  1.0056 -0.1192 -0.3496
 2917TIP3   OH230241   6.239   1.059  12.436  0.1142 -0.4692  0.0783
 2917TIP3    H130242   6.250   0.967  12.409  0.5104 -0.1099 -1.0423
 2917TIP3    H230243   6.293   1.108  12.375 -0.3955  0.5543  0.4348
 2918TIP3   OH230244   5.016   5.760   5.699  0.6025  0.3739 -0.4116
 2918TIP3    H130245   4.992   5.763   5.791 -0.5037 -0.8961 -0.6234
 2918TIP3    H230246   4.958   5.694   5.661  0.5457  1.3707 -2.1746
 2919TIP3   OH230247   6.232   6.031  14.763 -0.3085 -0.4190 -0.3971
 2919TIP3    H130248   6.302   6.095  14.752 -0.3517  0.2269  2.4561
 2919TIP3    H230249   6.268   5.950  14.727  1.5936  0.1148  0.2169
 2920TIP3   OH230250   1.768   1.466  15.386  0.4674 -0.0611 -0.2039
 2920TIP3    H130251   1.764   1.442  15.293  0.4011  0.6354 -0.3873
 2920TIP3    H230252   1.678   1.455  15.417  0.4765 -0.2360 -0.2383
 2921TIP3   OH230253   3.411   5.702   6.532  0.6933 -0.1974  0.1027
 2921TIP3    H130254   3.438   5.726   6.621 -1.0978 -0.2976  0.7151
 2921TIP3    H230255   3.475   5.636   6.505 -0.3609 -2.4202  2.5238
 2922TIP3   OH230256   1.541   1.252   5.162 -0.6481 -0.2098  0.8006
 2922TIP3    H130257   1.561   1.313   5.091  1.6026 -2.5531 -0.7337
 2922TIP3    H230258   1.477   1.299   5.216 -0.1310  2.8962 -1.0322
 2923TIP3   OH230259   2.922   6.706  16.521 -0.1102  0.3621 -0.0741
 2923TIP3    H130260   3.011   6.738  16.510  0.3485 -0.0468  1.9160
 2923TIP3    H230261   2.917   6.627  16.467  0.6514  0.5292 -0.3867
 2924TIP3   OH230262   0.070   5.432   2.156  0.0695  0.0481  0.2243
 2924TIP3    H130263   0.044   5.450   2.246 -1.3705 -1.2076  0.0974
 2924TIP3    H230264  -0.003   5.464   2.103  0.0999 -0.8217 -0.3648
 2925TIP3   OH230265   3.705   0.538  11.627  0.2768 -0.3341 -0.0874
 2925TIP3    H130266   3.703   0.584  11.711  0.3122 -0.2834 -0.1140
 2925TIP3    H230267   3.758   0.460  11.644 -2.6836 -2.2915  0.9291
 2926TIP3   OH230268   2.111   4.955   1.539  0.1392 -0.0611 -0.3766
 2926TIP3    H130269   2.141   4.931   1.627 -1.1292  1.3067  0.4637
 2926TIP3    H230270   2.040   4.894   1.520  0.1084 -0.0606 -0.2605
 2927TIP3   OH230271   1.156   2.621  16.912  0.4067 -0.3494  0.5497
 2927TIP3    H130272   1.238   2.663  16.887  0.3764 -0.1174  0.8328
 2927TIP3    H230273   1.152   2.632  17.007 -0.3343  0.3593  0.4496
 2928TIP3   OH230274   1.357   5.863  15.366 -0.7903  0.0753  0.1554
 2928TIP3    H130275   1.401   5.859  15.452 -0.4754 -1.9396 -0.0363
 2928TIP3    H230276   1.427   5.883  15.304 -0.2684 -1.9832 -0.0067
 2929TIP3   OH230277   1.050   5.180   2.086  0.7754  0.4111 -0.3894
 2929TIP3    H130278   1.002   5.181   2.169 -0.1387  3.6037 -0.8315
 2929TIP3    H230279   1.139   5.155   2.111 -0.0626 -1.3424  1.1002
 2930TIP3   OH230280   5.048   0.453  16.671  0.3333 -0.2803  0.0925
 2930TIP3    H130281   4.982   0.387  16.690 -0.5142  1.1730  2.5580
 2930TIP3    H230282   5.123   0.429  16.726  1.1081 -0.6931 -1.0859
 2931TIP3   OH230283   6.802   4.742  15.852  0.0410 -0.0172 -0.5709
 2931TIP3    H130284   6.778   4.656  15.817  0.3061 -0.8411  1.1471
 2931TIP3    H230285   6.738   4.758  15.922 -0.0866  1.2654 -0.9550
 2932TIP3   OH230286   1.920   5.409   5.162 -0.8738 -0.2521  0.0012
 2932TIP3    H130287   1.908   5.495   5.202 -0.0904  0.0278 -0.3474
 2932TIP3    H230288   1.974   5.425   5.085 -0.1161 -1.1449  0.3247
 2933TIP3   OH230289   3.320   0.463  15.414  0.6005 -0.3434 -0.1652
 2933TIP3    H130290   3.280   0.405  15.479 -1.0089 -1.8867 -2.3937
 2933TIP3    H230291   3.252   0.526  15.393  1.9584  1.7513  1.3792
 2934TIP3   OH230292   0.968   6.138  12.133 -0.1529 -0.7784 -0.3707
 2934TIP3    H130293   1.019   6.109  12.057 -0.3990  1.6117 -1.5290
 2934TIP3    H230294   0.877   6.120  12.109 -0.2585  0.2985 -0.8321
 2935TIP3   OH230295   1.926   1.186  11.386 -0.0243  0.1204 -0.0130
 2935TIP3    H130296   1.845   1.230  11.360  0.4616  0.4889 -0.9439
 2935TIP3    H230297   1.930   1.108  11.330  0.3833  0.2301 -0.1395
 2936TIP3   OH230298   0.598   6.803   6.027 -0.1201  0.3798  0.4432
 2936TIP3    H130299   0.634   6.754   5.954 -1.4928  0.7601 -0.5248
 2936TIP3    H230300   0.627   6.755   6.105  0.5336 -0.5874 -0.3732
 2937TIP3   OH230301   5.297   2.776  16.071  0.3158 -0.2089  0.0722
 2937TIP3    H130302   5.226   2.761  16.009 -0.0059 -2.0523  0.8153
 2937TIP3    H230303   5.324   2.867  16.055 -0.8513 -0.0997 -1.5901
 2938TIP3   OH230304   1.667   0.551   3.559 -0.2692  0.2055  0.6050
 2938TIP3    H130305   1.641   0.565   3.468 -0.3034  1.3625  0.7691
 2938TIP3    H230306   1.639   0.462   3.579 -0.8698  0.1758 -0.3079
 2939TIP3   OH230307   3.710   1.241   0.006 -0.0695  0.3438 -0.1101
 2939TIP3    H130308   3.683   1.311  -0.053 -0.5571  1.0132  0.9003
 2939TIP3    H230309   3.637   1.179   0.004  0.4645 -0.2938 -1.1937
 2940TIP3   OH230310   0.058   3.075   3.870  0.6101  0.3121 -0.3301
 2940TIP3    H130311  -0.028   3.054   3.906  0.6029  1.1503  0.1702
 2940TIP3    H230312   0.118   3.017   3.916  0.3945  0.2155 -0.1676
 2941TIP3   OH230313   2.938   6.807  12.072  0.0958  0.0043 -0.2991
 2941TIP3    H130314   2.881   6.878  12.101  0.4620 -0.8885  2.9146
 2941TIP3    H230315   3.025   6.833  12.101  0.4495 -1.1453 -0.2904
 2942TIP3   OH230316   2.427   2.734   3.543  0.0995 -0.4028  0.0067
 2942TIP3    H130317   2.474   2.813   3.570 -1.4917  0.0125  1.7904
 2942TIP3    H230318   2.481   2.662   3.576 -0.0620  0.0485  1.3549
 2943TIP3   OH230319   3.707   6.245  14.262 -0.6314  0.2909 -0.1337
 2943TIP3    H130320   3.663   6.290  14.334 -0.0216 -0.8345  0.9860
 2943TIP3    H230321   3.705   6.153  14.286 -0.7228 -0.1604 -1.7530
 2944TIP3   OH230322   3.057   4.569  12.547 -0.5246 -0.4498  0.0111
 2944TIP3    H130323   3.133   4.617  12.582  0.0314 -0.9016 -0.5507
 2944TIP3    H230324   3.028   4.515  12.620 -0.2779 -0.3037  0.2233
 2945TIP3   OH230325   1.092   3.060  12.177 -0.0463  0.4284 -0.2742
 2945TIP3    H130326   1.073   3.139  12.127 -2.4167  0.3112  0.3387
 2945TIP3    H230327   1.187   3.062  12.189  0.0880  2.5810 -1.2126
 2946TIP3   OH230328   4.826   3.406  15.196  0.4083 -0.0324  0.1949
 2946TIP3    H130329   4.888   3.367  15.135  1.4569 -0.9821  1.7997
 2946TIP3    H230330   4.754   3.344  15.201  0.8572 -0.5269  0.7520
 2947TIP3   OH230331   4.169   5.780   3.737 -0.2274  0.4036 -0.2221
 2947TIP3    H130332   4.123   5.775   3.821  0.7816 -0.9083  0.3010
 2947TIP3    H230333   4.167   5.690   3.703  0.6212  0.6298 -0.9105
 2948TIP3   OH230334   3.669   5.964  16.935 -0.5222  0.1676  0.6868
 2948TIP3    H130335   3.712   5.887  16.897 -1.0464 -0.4151  1.2400
 2948TIP3    H230336   3.741   6.017  16.969 -0.0963  0.4034 -0.5671
 2949TIP3   OH230337   0.230   1.482   2.200  0.5464  0.2642  0.3063
 2949TIP3    H130338   0.320   1.451   2.196  0.8180  1.1412 -1.1889
 2949TIP3    H230339   0.178   1.403   2.209  1.2808 -0.6258 -2.2190
 2950TIP3   OH230340   0.272   3.038  11.957  0.7537 -0.4550 -0.2960
 2950TIP3    H130341   0.266   3.133  11.964  1.3126 -0.4891  0.9092
 2950TIP3    H230342   0.198   3.006  12.010  1.1998 -0.6989  0.1831
 2951TIP3   OH230343   1.828   3.566  13.289  0.4930 -0.1433  0.5004
 2951TIP3    H130344   1.881   3.510  13.345 -0.6180  0.7927  2.5995
 2951TIP3    H230345   1.804   3.640  13.345  0.5300  1.6132 -1.6717
 2952TIP3   OH230346   0.968   4.957  14.624  0.2975  0.5959 -0.7628
 2952TIP3    H130347   1.060   4.930  14.628  0.0464 -0.1393  1.2599
 2952TIP3    H230348   0.968   5.047  14.655  0.3175  0.4557 -0.3368
 2953TIP3   OH230349   2.628   6.367  13.987  0.0999 -0.3775 -0.0904
 2953TIP3    H130350   2.708   6.315  13.977  1.0667  0.8739  0.8997
 2953TIP3    H230351   2.648   6.449  13.942 -0.7061 -0.1183  0.0215
 2954TIP3   OH230352   4.057   1.487   5.115  0.5672 -0.4264 -1.2851
 2954TIP3    H130353   4.101   1.572   5.118 -0.3874  0.0643  0.7919
 2954TIP3    H230354   3.984   1.499   5.055  0.9182 -0.0529 -1.6472
 2955TIP3   OH230355   0.469   0.416  17.184  0.0127 -0.0954  0.1146
 2955TIP3    H130356   0.527   0.446  17.254  0.4748 -0.4733 -0.0954
 2955TIP3    H230357   0.528   0.374  17.121 -0.3104  0.7851 -0.8081
 2956TIP3   OH230358   1.446   1.834   1.287 -0.2483 -0.0150 -0.2979
 2956TIP3    H130359   1.497   1.776   1.231  0.6769  1.8323 -1.4594
 2956TIP3    H230360   1.506   1.857   1.358 -0.1730  0.4727 -0.5137
 2957TIP3   OH230361   1.467   6.654  12.750  0.1203 -0.4480 -0.2940
 2957TIP3    H130362   1.426   6.683  12.831 -1.7989 -2.4409 -0.4506
 2957TIP3    H230363   1.404   6.678  12.682  1.8041  1.3973 -1.2987
 2958TIP3   OH230364   2.437   4.409   0.807  0.2244  0.2561  0.2709
 2958TIP3    H130365   2.422   4.420   0.901  0.1259  0.2982  0.2507
 2958TIP3    H230366   2.496   4.480   0.784 -2.0817  2.1318 -0.2795
 2959TIP3   OH230367   4.168   2.960  16.282  0.3198  0.2153 -0.0384
 2959TIP3    H130368   4.226   2.901  16.331  0.4047  0.2110 -0.1422
 2959TIP3    H230369   4.093   2.906  16.258  0.0705  0.3321  0.4606
 2960TIP3   OH230370   4.600   6.146  12.884 -0.2410 -0.2189 -0.1007
 2960TIP3    H130371   4.686   6.179  12.911 -0.4357 -0.6540  1.1073
 2960TIP3    H230372   4.602   6.053  12.906  0.2979 -1.1363 -3.4681
 2961TIP3   OH230373   6.163   0.505   3.959  0.0395 -0.0526 -0.2233
 2961TIP3    H130374   6.233   0.468   3.905  1.8405  1.7854  0.7515
 2961TIP3    H230375   6.197   0.502   4.048 -1.9280 -0.8158  0.5653
 2962TIP3   OH230376   2.857   5.680   2.760 -0.1752  0.1059  0.2888
 2962TIP3    H130377   2.819   5.647   2.678  0.5864 -3.2654  1.1289
 2962TIP3    H230378   2.950   5.656   2.755 -0.0929 -0.1069  2.0648
 2963TIP3   OH230379   4.657   0.006  17.112 -0.2377 -0.2055  0.7535
 2963TIP3    H130380   4.721   0.063  17.070  0.4158 -1.5044 -0.0860
 2963TIP3    H230381   4.680   0.008  17.205  1.3200 -0.9767  0.4181
 2964TIP3   OH230382   5.743   1.880   5.614  0.0224  0.0345  0.5175
 2964TIP3    H130383   5.763   1.800   5.663 -1.1117  0.0627  1.0523
 2964TIP3    H230384   5.649   1.874   5.596 -0.4324  1.9731  1.9117
 2965TIP3   OH230385   1.897   1.608   3.525  0.4555 -0.1911  0.1115
 2965TIP3    H130386   1.858   1.694   3.513 -1.6144 -1.1408 -0.3709
 2965TIP3    H230387   1.940   1.613   3.611  0.4885  1.3271  0.0367
 2966TIP3   OH230388   1.472   1.106   4.771 -0.3454 -0.9444  0.5406
 2966TIP3    H130389   1.457   1.089   4.678 -0.4507 -0.9646  0.5609
 2966TIP3    H230390   1.560   1.070   4.788  1.1860  2.0648 -0.3306
 2967TIP3   OH230391   5.425   5.305   3.642  0.0395  0.3349  0.1857
 2967TIP3    H130392   5.454   5.239   3.706 -2.0521  1.0499  2.0163
 2967TIP3    H230393   5.459   5.388   3.677  0.1967  0.5618 -0.4994
 2968TIP3   OH230394   6.476   5.447  12.594  0.2293 -0.2046  0.0184
 2968TIP3    H130395   6.440   5.400  12.519 -1.1008  0.2806  0.3120
 2968TIP3    H230396   6.565   5.414  12.603 -0.2325 -1.6863 -0.5683
 2969TIP3   OH230397   2.245   0.000  11.925  0.3232 -0.1130  0.3614
 2969TIP3    H130398   2.216  -0.043  12.005  0.6948  0.3652  0.7638
 2969TIP3    H230399   2.327  -0.044  11.902 -0.9732 -1.8752 -1.1165
 2970TIP3   OH230400   3.830   4.995  13.562  0.1497 -0.1041  0.1736
 2970TIP3    H130401   3.735   4.987  13.572 -0.1270  0.9100 -1.3532
 2970TIP3    H230402   3.866   4.927  13.620 -1.4987 -0.6769  0.5822
 2971TIP3   OH230403   1.085   5.062   4.828 -0.4366 -0.8317  0.2928
 2971TIP3    H130404   1.074   4.975   4.868  1.6144 -1.3708 -0.2188
 2971TIP3    H230405   1.158   5.051   4.766 -0.3543  1.1843 -0.0245
 2972TIP3   OH230406   2.937   1.404  11.552  0.4158  0.1730  0.2057
 2972TIP3    H130407   2.980   1.328  11.589 -0.5912  0.3389  1.7809
 2972TIP3    H230408   2.958   1.476  11.611  0.1277  0.8101 -0.4402
 2973TIP3   OH230409   2.675   5.647   5.787  0.4677  0.1328 -0.3410
 2973TIP3    H130410   2.751   5.704   5.802  1.0158 -0.9551  1.3132
 2973TIP3    H230411   2.599   5.705   5.797  1.0391  0.7711  0.4263
 2974TIP3   OH230412   4.705   2.830   0.006  0.2499  0.0195 -0.3835
 2974TIP3    H130413   4.699   2.736  -0.009  0.3331 -0.0951  0.2912
 2974TIP3    H230414   4.799   2.848   0.002  0.4793 -0.3550  1.9323
 2975TIP3   OH230415   1.046   1.998   6.899  0.0022 -0.3230 -0.1253
 2975TIP3    H130416   1.100   1.926   6.932  0.8514 -0.7800 -2.2853
 2975TIP3    H230417   1.094   2.030   6.822 -2.0090  0.3259 -1.1830
 2976TIP3   OH230418   5.716   3.379   0.716 -0.4345  0.3543  0.1745
 2976TIP3    H130419   5.671   3.435   0.653 -1.2610 -0.7798 -0.2758
 2976TIP3    H230420   5.711   3.292   0.677  1.8605  0.1208  0.2676
 2977TIP3   OH230421   4.918   3.475  12.441  0.4734 -0.2306  0.3957
 2977TIP3    H130422   4.904   3.413  12.513  1.3370  0.0073  0.7852
 2977TIP3    H230423   4.860   3.548  12.461  1.1085  0.0795  1.1614
 2978TIP3   OH230424   4.125   6.776   4.792 -0.0198  0.2469 -0.2781
 2978TIP3    H130425   4.092   6.865   4.805  2.1250  0.9855  0.5666
 2978TIP3    H230426   4.166   6.777   4.706 -0.5023 -0.1184 -0.5205
 2979TIP3   OH230427   1.673   5.087  16.761 -0.0366  0.3389 -0.8900
 2979TIP3    H130428   1.685   5.171  16.716 -1.6327  0.3640 -1.3277
 2979TIP3    H230429   1.662   5.110  16.853  1.3136  0.4466 -0.7403
 2980TIP3   OH230430   5.565   2.245   1.472 -0.0395  0.2460  0.0622
 2980TIP3    H130431   5.653   2.207   1.478  0.6146  1.7964  0.9914
 2980TIP3    H230432   5.512   2.194   1.533 -0.2995 -1.8861 -1.8335
 2981TIP3   OH230433   5.733   5.519  16.599 -0.6827  0.1919 -0.2248
 2981TIP3    H130434   5.713   5.487  16.687 -1.6455 -0.4045 -0.6350
 2981TIP3    H230435   5.813   5.569  16.609  0.0848 -1.1517  0.7260
 2982TIP3   OH230436   0.190   0.102   1.440 -0.2200  0.1922 -0.0348
 2982TIP3    H130437   0.278   0.137   1.426 -0.5826  1.3909  0.5557
 2982TIP3    H230438   0.199   0.008   1.424  0.6499  0.5945 -2.4000
 2983TIP3   OH230439   0.815   5.663  13.861  0.2083  0.0613 -0.0616
 2983TIP3    H130440   0.899   5.617  13.860  0.8605  1.2186 -1.4220
 2983TIP3    H230441   0.754   5.598  13.896  1.7161 -0.6650  1.4015
 2984TIP3   OH230442   4.528   0.397  15.187  0.3628  0.5860  0.3038
 2984TIP3    H130443   4.450   0.363  15.231  1.6652 -0.2300  2.1033
 2984TIP3    H230444   4.578   0.319  15.163 -0.1685  1.0089 -2.5238
 2985TIP3   OH230445   3.046   4.098   1.276  0.0305 -0.0747 -0.3709
 2985TIP3    H130446   2.996   4.159   1.329  0.1676  0.0448 -0.3772
 2985TIP3    H230447   2.982   4.061   1.214 -0.1396 -0.2563 -0.0881
 2986TIP3   OH230448   1.427   5.301  13.548 -0.1534  0.1066  0.0976
 2986TIP3    H130449   1.467   5.375  13.595  0.5408  0.1096 -0.4822
 2986TIP3    H230450   1.363   5.341  13.490  1.2646  0.4213 -1.3118
 2987TIP3   OH230451   3.809   5.420  12.581 -0.7362 -0.0415  0.2699
 2987TIP3    H130452   3.721   5.455  12.569 -0.9529 -0.6756 -0.0998
 2987TIP3    H230453   3.829   5.435  12.673 -2.5079 -2.6608  1.2093
 2988TIP3   OH230454   0.520   6.065   6.448 -0.4169 -0.6789  0.3348
 2988TIP3    H130455   0.532   6.000   6.379 -1.3693  0.0261 -0.5176
 2988TIP3    H230456   0.588   6.130   6.433 -1.3604  0.1101 -0.7261
 2989TIP3   OH230457   3.561   3.518   3.740 -0.3658 -0.4855 -0.0714
 2989TIP3    H130458   3.631   3.544   3.801 -1.3485 -0.8390  1.2462
 2989TIP3    H230459   3.600   3.528   3.654  1.2331 -0.4185  0.6225
 2990TIP3   OH230460   5.648   3.363  17.000  1.2068  0.5314  0.3263
 2990TIP3    H130461   5.706   3.288  16.985  0.7974  0.3945 -0.6598
 2990TIP3    H230462   5.641   3.369  17.096 -0.0773 -1.7405  0.4337
 2991TIP3   OH230463   0.584   2.131   2.885  0.1472  0.7923 -0.1162
 2991TIP3    H130464   0.568   2.039   2.863 -1.3743  0.7398  1.0248
 2991TIP3    H230465   0.526   2.180   2.826  0.1218  0.9483  0.0373
 2992TIP3   OH230466   3.105   2.763   4.814  0.4508 -0.1343  0.2223
 2992TIP3    H130467   3.110   2.683   4.760  0.1949  0.7695 -1.1870
 2992TIP3    H230468   3.018   2.798   4.796  0.5186  0.4025  0.9298
 2993TIP3   OH230469   6.503   4.091   4.831  0.0315 -0.0220  0.2168
 2993TIP3    H130470   6.481   4.184   4.843  0.7917  0.5270 -2.1391
 2993TIP3    H230471   6.434   4.057   4.775  0.1680 -0.6864  0.4494
 2994TIP3   OH230472   0.409   1.638   2.488  0.5135 -0.3054 -0.3205
 2994TIP3    H130473   0.415   1.705   2.420  0.4783  1.3976  1.2876
 2994TIP3    H230474   0.492   1.644   2.535 -0.1786 -0.1782  0.9114
 2995TIP3   OH230475   4.441   1.294  12.873  0.3731  0.1655 -0.1757
 2995TIP3    H130476   4.513   1.235  12.898  0.2840 -0.3520 -1.0973
 2995TIP3    H230477   4.410   1.259  12.790  0.1595  1.3823 -0.6230
 2996TIP3   OH230478   6.162   3.203   4.160  0.0841 -0.6673  0.1432
 2996TIP3    H130479   6.235   3.154   4.198  0.5527 -0.6628 -0.7143
 2996TIP3    H230480   6.201   3.287   4.134 -0.0141 -0.9927 -1.1129
 2997TIP3   OH230481   4.575   4.140   0.047  0.2677  0.4519  0.1410
 2997TIP3    H130482   4.600   4.076  -0.020  1.3960  0.0360  0.9282
 2997TIP3    H230483   4.488   4.112   0.075  0.3306 -0.1393 -0.2313
 2998TIP3   OH230484   5.338   1.815   4.289 -0.2885  0.2343 -0.0982
 2998TIP3    H130485   5.358   1.881   4.357 -0.2333  0.4297 -0.3033
 2998TIP3    H230486   5.422   1.777   4.268  0.0940  1.8723 -1.8076
 2999TIP3   OH230487   5.839   5.672  13.312  0.2563  0.1381 -0.3335
 2999TIP3    H130488   5.865   5.580  13.320 -0.4731 -0.0799 -0.4257
 2999TIP3    H230489   5.895   5.706  13.242  1.0178 -0.0466  0.1723
 3000TIP3   OH230490   5.479   6.433  12.659  0.3588  0.1631  0.0195
 3000TIP3    H130491   5.391   6.422  12.695  0.5175  0.0773  0.3834
 3000TIP3    H230492   5.523   6.492  12.720  1.1276 -1.2019  0.8362
 3001TIP3   OH230493   0.717   0.599  13.708  0.2524 -0.5169  0.1118
 3001TIP3    H130494   0.703   0.508  13.684 -0.2366 -0.5579  0.5436
 3001TIP3    H230495   0.667   0.611  13.789  0.9407 -0.0811  0.4923
 3002TIP3   OH230496   1.228   3.933  11.900 -0.5789  0.2408 -0.0918
 3002TIP3    H130497   1.301   3.924  11.838 -0.8324 -1.2390 -0.2123
 3002TIP3    H230498   1.163   3.985  11.853 -0.6316 -0.5912 -0.9762
 3003TIP3   OH230499   4.963   2.403   3.756  0.1295 -0.5767  0.4567
 3003TIP3    H130500   5.020   2.348   3.811  3.3864  0.0076 -2.0676
 3003TIP3    H230501   4.977   2.371   3.667 -0.1144  2.4290 -0.7790
 3004TIP3   OH230502   4.879   4.740  12.048  0.2576 -0.1917 -0.8528
 3004TIP3    H130503   4.880   4.703  12.136 -1.3064 -0.9614 -1.1177
 3004TIP3    H230504   4.920   4.826  12.057  0.8834 -0.6054  0.4418
 3005TIP3   OH230505   5.089   5.402   4.275 -0.4801 -0.3653  0.2305
 3005TIP3    H130506   5.156   5.346   4.236 -1.5223 -1.8731  0.5219
 3005TIP3    H230507   5.093   5.383   4.369 -0.8817  0.0326  0.3361
 3006TIP3   OH230508   4.536   2.177  16.619 -0.0848 -0.1208  0.9539
 3006TIP3    H130509   4.607   2.241  16.627 -0.5115  0.6781 -1.1772
 3006TIP3    H230510   4.457   2.229  16.612 -0.2775 -0.6376 -2.9413
 3007TIP3   OH230511   2.682   4.652   3.465 -0.5376  0.2663  0.0489
 3007TIP3    H130512   2.622   4.605   3.522 -1.5342  0.1037 -1.0844
 3007TIP3    H230513   2.662   4.618   3.377 -1.4775  2.9433 -0.8547
 3008TIP3   OH230514   4.611   4.466  11.670  0.4099 -0.2064 -0.4255
 3008TIP3    H130515   4.690   4.426  11.707 -0.1465 -0.5439  0.4214
 3008TIP3    H230516   4.589   4.411  11.595  1.0588 -0.0244 -0.7567
 3009TIP3   OH230517   3.752   4.124   5.600  0.1336  0.0174  0.7307
 3009TIP3    H130518   3.782   4.179   5.673 -0.2731 -1.2867  1.9084
 3009TIP3    H230519   3.832   4.085   5.566  0.1308 -1.2188  2.0363
 3010TIP3   OH230520   1.848   0.208   5.891  0.3355  0.1357  0.0325
 3010TIP3    H130521   1.870   0.300   5.875  2.0179 -0.1662  0.4086
 3010TIP3    H230522   1.823   0.174   5.806 -0.0345  0.8693 -0.1623
 3011TIP3   OH230523   3.848   3.259  15.733 -0.0908 -0.3197  0.7054
 3011TIP3    H130524   3.908   3.261  15.807  1.0909 -0.9847 -0.1880
 3011TIP3    H230525   3.897   3.301  15.662 -1.3260  0.6232  0.3748
 3012TIP3   OH230526   1.611   3.983  16.244  0.2784 -0.2782  0.0774
 3012TIP3    H130527   1.689   3.955  16.198  1.3125  1.7391  0.4881
 3012TIP3    H230528   1.638   4.061  16.292 -2.3209  1.3145 -0.8691
 3013TIP3   OH230529   3.365   2.982  12.780  0.1554 -0.2159  0.0243
 3013TIP3    H130530   3.450   2.984  12.737 -0.1961  0.1983 -0.6595
 3013TIP3    H230531   3.356   3.068  12.821  0.6237 -0.7123  1.2227
 3014TIP3   OH230532   3.504   3.242   2.961  0.1383  0.5130 -0.0261
 3014TIP3    H130533   3.433   3.222   3.021 -0.3968  2.8774  0.2152
 3014TIP3    H230534   3.484   3.329   2.927  1.1049 -0.2013 -2.6642
 3015TIP3   OH230535   3.968   2.002  16.349 -0.0855  0.2766 -0.2841
 3015TIP3    H130536   3.916   2.048  16.284  1.4548  0.1922 -1.6324
 3015TIP3    H230537   4.050   2.051  16.355  0.2454 -0.3544  0.7784
 3016TIP3   OH230538   2.135   4.227   0.548  0.4082  0.1962 -0.2315
 3016TIP3    H130539   2.205   4.254   0.489  1.1998 -3.0858 -0.9877
 3016TIP3    H230540   2.161   4.263   0.633  2.4817 -0.0647 -0.6969
 3017TIP3   OH230541   0.591   4.378   4.269 -0.3214 -0.2170 -0.1342
 3017TIP3    H130542   0.538   4.410   4.342 -0.0533  2.1295 -0.8619
 3017TIP3    H230543   0.554   4.293   4.247 -0.9307 -0.6087  2.1668
 3018TIP3   OH230544   0.142   5.825   5.213 -0.2028  0.4457 -0.0836
 3018TIP3    H130545   0.098   5.771   5.279  0.8150  0.1197  0.3472
 3018TIP3    H230546   0.073   5.846   5.150 -0.9719 -0.0571  0.5649
 3019TIP3   OH230547   3.376   4.883   4.022  0.0558  0.1740 -0.1083
 3019TIP3    H130548   3.400   4.958   3.968  1.0863  0.1479  0.2985
 3019TIP3    H230549   3.323   4.829   3.964  0.0443  0.7802 -0.6840
 3020TIP3   OH230550   1.839   0.394   4.489  0.2634 -0.4062 -0.5173
 3020TIP3    H130551   1.759   0.372   4.536 -1.0354 -2.5565 -3.4213
 3020TIP3    H230552   1.891   0.314   4.491  1.6942  0.4919 -0.0115
 3021TIP3   OH230553   2.735   1.463  11.402  0.3217  0.1112  0.5963
 3021TIP3    H130554   2.651   1.445  11.443 -0.1992  2.3860  0.6874
 3021TIP3    H230555   2.800   1.432  11.465 -0.4549 -0.2027  1.2628
 3022TIP3   OH230556   0.934   6.555  15.396 -0.5319 -0.0312  0.3559
 3022TIP3    H130557   0.878   6.543  15.320  0.1448 -1.3493  0.0355
 3022TIP3    H230558   1.015   6.592  15.361 -0.9826  1.3612  0.7423
 3023TIP3   OH230559   3.303   0.872  14.269  0.1587 -0.0099  0.0200
 3023TIP3    H130560   3.354   0.899  14.192 -1.3786  1.7271 -0.4424
 3023TIP3    H230561   3.369   0.857  14.337  1.6758 -2.8831 -1.9178
 3024TIP3   OH230562   6.102   0.344  10.999 -0.3811 -0.1561  0.0773
 3024TIP3    H130563   6.091   0.310  10.910 -1.1829  2.7397 -1.0515
 3024TIP3    H230564   6.017   0.384  11.020  0.8466  2.4367  0.5875
 3025TIP3   OH230565   2.124   3.642   3.872  0.3724 -0.2787 -0.4334
 3025TIP3    H130566   2.150   3.551   3.889  0.2142 -0.4945 -1.2773
 3025TIP3    H230567   2.033   3.636   3.842  0.2671  0.1905 -0.2155
 3026TIP3   OH230568   1.993   5.780  15.807  0.0710  0.9444 -0.0387
 3026TIP3    H130569   2.051   5.817  15.873  0.1785  2.9576 -1.1788
 3026TIP3    H230570   1.907   5.817  15.827 -0.7618 -1.4438  1.1970
 3027TIP3   OH230571   0.592   6.036  12.513  0.5641 -0.1066 -0.3086
 3027TIP3    H130572   0.685   6.043  12.534  0.7080  0.0148 -0.9866
 3027TIP3    H230573   0.588   6.040  12.418 -0.0750 -0.8295 -0.3247
 3028TIP3   OH230574   6.695   1.898   4.633 -0.3742 -0.1283  0.9515
 3028TIP3    H130575   6.690   1.985   4.674 -2.3937 -0.4954  1.5921
 3028TIP3    H230576   6.631   1.845   4.681 -0.1694 -1.6031 -0.3245
 3029TIP3   OH230577   0.451   5.167   4.962  0.1422  0.0847  0.0177
 3029TIP3    H130578   0.426   5.237   5.022  1.2709  1.0240 -0.5560
 3029TIP3    H230579   0.472   5.093   5.020  0.1709  0.6233  0.7201
 3030TIP3   OH230580   5.795   3.432  13.425 -0.2431 -0.2879  1.1250
 3030TIP3    H130581   5.830   3.426  13.514 -0.1305  2.2321  1.3096
 3030TIP3    H230582   5.712   3.477  13.434  1.0227  2.5995 -0.2049
 3031TIP3   OH230583   5.505   5.455  14.892 -0.2843  0.3922  0.1352
 3031TIP3    H130584   5.411   5.442  14.879 -0.6247 -0.0899  2.5280
 3031TIP3    H230585   5.510   5.529  14.953  0.8542  0.0903  0.4295
 3032TIP3   OH230586   6.154   4.068   1.428 -0.5915 -0.0277 -0.1017
 3032TIP3    H130587   6.146   3.973   1.438 -0.2169 -0.0138  0.3508
 3032TIP3    H230588   6.064   4.100   1.436 -0.5191 -0.1553  1.9019
 3033TIP3   OH230589   3.120   2.040  14.222  0.0594  0.0052  0.9043
 3033TIP3    H130590   3.162   1.954  14.228 -0.1261 -0.1358  0.1940
 3033TIP3    H230591   3.062   2.033  14.147  1.8018  1.4969 -0.6743
 3034TIP3   OH230592   1.564   3.823   1.387 -0.8547 -0.5781 -0.1904
 3034TIP3    H130593   1.474   3.848   1.406 -0.4369  0.2044  0.8326
 3034TIP3    H230594   1.572   3.832   1.292 -1.1359  1.8944 -0.0360
 3035TIP3   OH230595   6.378   3.462   3.895  0.3386 -0.4295 -0.1985
 3035TIP3    H130596   6.444   3.478   3.827 -1.9552  1.6700 -2.1136
 3035TIP3    H230597   6.314   3.403   3.854 -0.9755  0.6983  0.1672
 3036TIP3   OH230598   5.830   6.641  12.303 -0.2873 -0.3632 -0.4101
 3036TIP3    H130599   5.746   6.639  12.257  0.3337 -0.9989 -1.5509
 3036TIP3    H230600   5.844   6.551  12.330 -0.8843  0.0733  1.5610
 3037TIP3   OH230601   2.367   1.166  13.739 -0.7037  0.3887  0.6082
 3037TIP3    H130602   2.437   1.160  13.673 -1.2180  1.1966 -0.0401
 3037TIP3    H230603   2.303   1.225  13.699 -1.5035  0.0826  1.4206
 3038TIP3   OH230604   1.989   6.011  12.736  0.2038  0.1267 -0.3150
 3038TIP3    H130605   1.910   6.031  12.686  0.0538  0.1592 -0.0669
 3038TIP3    H230606   1.984   5.917  12.751  0.2259  0.1248 -0.3205
 3039TIP3   OH230607   2.959   6.435   4.481 -0.6982  0.3851 -0.2782
 3039TIP3    H130608   2.877   6.428   4.433  1.0303  0.0368 -3.4459
 3039TIP3    H230609   2.983   6.528   4.474 -0.8875  0.5356  0.8411
 3040TIP3   OH230610   1.236   3.273  12.328 -0.4528  0.1959 -0.4403
 3040TIP3    H130611   1.228   3.233  12.415  2.3396 -1.2963 -0.7789
 3040TIP3    H230612   1.221   3.366  12.343 -0.2583 -0.0559  1.6094
 3041TIP3   OH230613   1.369   3.367   6.111  0.4179 -0.1712 -0.0581
 3041TIP3    H130614   1.282   3.349   6.148 -0.0709  2.2759  0.1816
 3041TIP3    H230615   1.406   3.435   6.167  1.0354  1.2853 -2.0794
 3042TIP3   OH230616   6.612   0.968  12.184  0.5188 -0.7703 -0.1045
 3042TIP3    H130617   6.567   0.934  12.106 -2.5332 -0.1394  1.2092
 3042TIP3    H230618   6.615   0.893  12.243  0.1929 -0.5509  0.1960
 3043TIP3   OH230619   0.817   2.087   5.552 -0.1842 -0.7875 -0.0224
 3043TIP3    H130620   0.906   2.073   5.520 -0.6193 -1.3972 -0.9835
 3043TIP3    H230621   0.779   2.000   5.559 -1.8326 -0.4157 -2.9370
 3044TIP3   OH230622   1.183   1.774   3.088  0.0584 -0.9224 -0.1118
 3044TIP3    H130623   1.238   1.846   3.057 -1.7367  0.4444 -0.2040
 3044TIP3    H230624   1.144   1.806   3.168 -2.1570 -1.0630 -1.0756
 3045TIP3   OH230625   6.184   6.765  17.183  0.6865 -0.2406 -0.3038
 3045TIP3    H130626   6.232   6.832  17.134  1.4583 -0.2637  0.3900
 3045TIP3    H230627   6.218   6.682  17.151  1.9923 -0.2478  0.9946
 3046TIP3   OH230628   2.382   5.728  13.797  0.0932  0.2330  0.1232
 3046TIP3    H130629   2.354   5.678  13.873 -0.9428  1.2648  0.4620
 3046TIP3    H230630   2.467   5.765  13.821 -0.7162  1.4553  1.2531
 3047TIP3   OH230631   3.210   3.308   3.564 -0.3555 -0.1334  0.3139
 3047TIP3    H130632   3.286   3.330   3.619  1.5773 -0.8434 -1.8869
 3047TIP3    H230633   3.187   3.219   3.591 -0.0139 -0.1468  0.5865
 3048TIP3   OH230634   4.529   3.789   1.299 -0.0815 -0.6973 -0.1027
 3048TIP3    H130635   4.437   3.767   1.282  0.0873 -2.3840  0.9694
 3048TIP3    H230636   4.572   3.705   1.310  1.3896  0.1043  0.4977
 3049TIP3   OH230637   1.660   0.711  12.336 -0.7677 -0.0332  0.6478
 3049TIP3    H130638   1.583   0.731  12.284 -0.5675 -2.3644 -0.6695
 3049TIP3    H230639   1.732   0.706  12.272  0.0829  0.0884  1.5665
 3050TIP3   OH230640   3.039   2.564   1.530  0.0048  0.1899  0.3836
 3050TIP3    H130641   3.001   2.497   1.473  1.4307  0.7120 -1.2582
 3050TIP3    H230642   3.029   2.646   1.482  0.4409  0.7992  1.2909
 3051TIP3   OH230643   2.746   3.683   2.887 -0.1110  0.6745 -0.1896
 3051TIP3    H130644   2.812   3.641   2.943 -0.6078 -0.8216 -0.6682
 3051TIP3    H230645   2.706   3.750   2.943  0.5257  0.3246  0.7110
 3052TIP3   OH230646   3.712   2.874  11.381 -0.4046  0.2066  0.1136
 3052TIP3    H130647   3.802   2.841  11.376 -0.2393  0.5312  0.8319
 3052TIP3    H230648   3.667   2.811  11.438 -0.9315 -0.5879 -1.1545
 3053TIP3   OH230649   6.183   2.365   5.238  0.7033 -0.2135  0.0008
 3053TIP3    H130650   6.116   2.369   5.169  0.0102 -0.4884  0.6527
 3053TIP3    H230651   6.229   2.282   5.223  0.8801 -0.0443 -0.4200
 3054TIP3   OH230652   1.703   5.635  16.726 -0.0983  0.4842 -0.4400
 3054TIP3    H130653   1.712   5.672  16.814 -0.3464 -2.1376  0.7961
 3054TIP3    H230654   1.791   5.639  16.689  0.4850 -0.2589  0.7979
 3055TIP3   OH230655   6.336   2.007   5.061 -0.3984 -0.3090  0.2496
 3055TIP3    H130656   6.286   1.976   4.986  0.2593  1.1582 -0.8440
 3055TIP3    H230657   6.380   2.086   5.030 -1.7762  1.6005  2.7839
 3056TIP3   OH230658   6.361   5.823  15.551 -0.3675  0.1489 -0.1402
 3056TIP3    H130659   6.333   5.912  15.572  2.2232  0.9942  0.0848
 3056TIP3    H230660   6.350   5.774  15.632  1.3114  1.1687  0.7625
 3057TIP3   OH230661   0.233   3.358  14.766  0.4796 -0.0648 -0.2102
 3057TIP3    H130662   0.214   3.283  14.823  0.3008  1.0937  1.3063
 3057TIP3    H230663   0.148   3.385  14.732  0.1221  1.2166  1.5735
 3058TIP3   OH230664   0.716   1.190  15.336  0.0362 -0.3973  0.0131
 3058TIP3    H130665   0.773   1.123  15.298  0.8415  0.9848 -1.3528
 3058TIP3    H230666   0.770   1.231  15.403  0.0850 -0.1459 -0.1778
 3059TIP3   OH230667   2.511   4.027   4.524  0.8550  0.0188 -0.6229
 3059TIP3    H130668   2.550   3.944   4.498  0.6434 -0.1629 -0.3638
 3059TIP3    H230669   2.509   4.024   4.620  1.6760  0.7076 -0.5792
 3060TIP3   OH230670   5.844   0.470   1.827  0.2075 -0.0307 -0.1746
 3060TIP3    H130671   5.756   0.445   1.854  0.2439 -0.4292 -0.4160
 3060TIP3    H230672   5.863   0.413   1.752  0.3169  0.6722 -0.6937
 3061TIP3   OH230673   1.248   2.468  12.817  0.2446  0.2121 -0.0778
 3061TIP3    H130674   1.245   2.563  12.802  1.8597  0.0796 -1.6431
 3061TIP3    H230675   1.302   2.435  12.745  1.0999 -1.6957  1.3754
 3062TIP3   OH230676   1.488   2.609   5.912 -0.0342  0.2407 -0.2789
 3062TIP3    H130677   1.509   2.621   5.820  2.4481 -0.5418  0.1110
 3062TIP3    H230678   1.500   2.695   5.951 -1.3025  0.6228 -0.6888
 3063TIP3   OH230679   1.479   1.783  12.471  0.0770 -0.2891 -0.2328
 3063TIP3    H130680   1.543   1.770  12.541 -0.0922 -2.7364 -0.4539
 3063TIP3    H230681   1.395   1.791  12.516  0.3760  2.4036  0.0226
 3064TIP3   OH230682   3.474   0.813   4.320 -0.3016 -0.0481  0.0612
 3064TIP3    H130683   3.418   0.739   4.296 -0.9354  0.4560 -0.0247
 3064TIP3    H230684   3.563   0.782   4.303 -0.5640 -0.7790 -0.0068
 3065TIP3   OH230685   6.508   0.835  11.281  0.3436  0.0692  0.2868
 3065TIP3    H130686   6.431   0.882  11.314 -0.0962 -0.2669 -0.2570
 3065TIP3    H230687   6.542   0.891  11.210  0.4689  0.1034  0.3725
 3066TIP3   OH230688   0.369   0.302  16.321 -0.2180 -0.1819  0.2004
 3066TIP3    H130689   0.346   0.244  16.248  1.2499  0.4187 -0.7889
 3066TIP3    H230690   0.429   0.250  16.375 -0.8638 -0.4323  0.6840
 3067TIP3   OH230691   0.359   1.615   0.402  0.4236 -0.1713  0.4539
 3067TIP3    H130692   0.293   1.635   0.337 -0.0818 -0.1940  0.9527
 3067TIP3    H230693   0.369   1.520   0.398  1.8741 -0.0001 -0.9980
 3068TIP3   OH230694   1.527   6.016   1.112 -0.1719  0.2277  0.2758
 3068TIP3    H130695   1.454   5.999   1.053  0.4523 -0.8237 -0.2065
 3068TIP3    H230696   1.595   6.053   1.057  1.0924 -2.4315 -0.0982
 3069TIP3   OH230697   0.460   0.416   2.612 -0.0715  0.2221  0.2153
 3069TIP3    H130698   0.540   0.377   2.647 -0.1096  0.1025  0.1697
 3069TIP3    H230699   0.414   0.450   2.689 -0.6548 -0.9500  0.4126
 3070TIP3   OH230700   4.898   2.449   2.830  0.1186  0.1966 -0.8758
 3070TIP3    H130701   4.983   2.407   2.819 -0.4464 -1.2313 -0.0025
 3070TIP3    H230702   4.858   2.443   2.743  0.9037  0.9148 -1.3036
 3071TIP3   OH230703   5.668   0.589  11.317 -0.1309 -0.6594 -0.2138
 3071TIP3    H130704   5.708   0.660  11.268  0.6244 -1.1905 -0.3809
 3071TIP3    H230705   5.589   0.628  11.355 -0.4613 -0.0936 -1.4174
 3072TIP3   OH230706   2.499   4.141  13.796 -0.0985  0.0650  0.0656
 3072TIP3    H130707   2.589   4.136  13.764 -0.4156 -0.1099 -0.8114
 3072TIP3    H230708   2.506   4.194  13.876  0.4608  1.9842 -1.1998
 3073TIP3   OH230709   0.562   4.978   2.414  0.1127 -0.2106  0.0973
 3073TIP3    H130710   0.494   4.974   2.347 -0.6580 -1.0821  0.9171
 3073TIP3    H230711   0.636   4.930   2.376 -0.4317 -0.9724 -0.0055
 3074TIP3   OH230712   5.536   0.791   3.568  0.2782 -0.5117 -0.7845
 3074TIP3    H130713   5.463   0.852   3.577  0.0326 -1.0039  0.8210
 3074TIP3    H230714   5.496   0.704   3.574  1.0305 -0.7918  0.9784
 3075TIP3   OH230715   0.036   0.825  15.434  0.0684 -0.4182  0.2035
 3075TIP3    H130716   0.099   0.755  15.413  2.1092  0.5178  2.6450
 3075TIP3    H230717   0.060   0.854  15.522 -1.4178  2.5858 -0.2217
 3076TIP3   OH230718   5.432   1.588  15.482  0.3674 -0.3563  0.0698
 3076TIP3    H130719   5.399   1.540  15.407  1.2262 -0.7097 -0.0850
 3076TIP3    H230720   5.479   1.663  15.444  0.0480 -0.0445  0.2794
 3077TIP3   OH230721   0.593   3.755  12.384  0.2969  0.3716 -0.0178
 3077TIP3    H130722   0.509   3.715  12.407  0.6973  0.6339  2.0849
 3077TIP3    H230723   0.656   3.715  12.444  1.1233  2.4269  0.5534
 3078TIP3   OH230724   1.372   3.015  17.074  0.1996 -0.0187  0.4803
 3078TIP3    H130725   1.438   3.001  17.142  0.4223 -0.7880  0.1124
 3078TIP3    H230726   1.291   3.028  17.122  0.6091  0.8934  0.9363
 3079TIP3   OH230727   5.974   2.346  14.807  0.3150  0.4446 -0.0736
 3079TIP3    H130728   6.035   2.366  14.878  0.0441  1.4051 -0.1045
 3079TIP3    H230729   6.007   2.397  14.733 -0.0869  0.3600 -0.3094
 3080TIP3   OH230730   4.551   5.198   4.973  0.1466 -0.0398 -0.1555
 3080TIP3    H130731   4.468   5.206   5.020  0.4360  0.7227  0.2399
 3080TIP3    H230732   4.547   5.267   4.907  0.3217 -0.2269 -0.3616
 3081TIP3   OH230733   1.334   1.237   3.525 -0.3839  0.4694 -0.0524
 3081TIP3    H130734   1.362   1.146   3.519 -2.2307 -0.1880  0.5668
 3081TIP3    H230735   1.291   1.243   3.610  0.0583  2.0374  0.0839
 3082TIP3   OH230736   4.203   5.114  15.123  0.0149  0.3752  0.0046
 3082TIP3    H130737   4.175   5.106  15.214 -1.5386 -0.6279 -0.5282
 3082TIP3    H230738   4.214   5.024  15.093 -2.1004  0.5427 -1.5159
 3083TIP3   OH230739   5.942   5.405   5.544 -0.4055  0.3298 -0.6333
 3083TIP3    H130740   5.950   5.320   5.501 -1.8240 -0.0147 -0.2886
 3083TIP3    H230741   5.873   5.450   5.495 -0.7997  0.6275  0.1706
 3084TIP3   OH230742   5.300   2.980  12.515 -0.3789  0.5319  0.6215
 3084TIP3    H130743   5.338   2.928  12.587 -1.4992 -1.2300  0.0002
 3084TIP3    H230744   5.370   2.985  12.450 -0.7475 -1.6717 -0.0121
 3085TIP3   OH230745   4.132   1.858   4.374  0.2871 -0.0052 -0.2822
 3085TIP3    H130746   4.152   1.866   4.281 -0.5108  1.0098 -0.3846
 3085TIP3    H230747   4.064   1.790   4.378 -1.1128  1.3185 -0.6848
 3086TIP3   OH230748   5.836   3.811  11.073  0.7322 -0.2554  0.1290
 3086TIP3    H130749   5.908   3.750  11.087  0.6769 -0.2929  0.2509
 3086TIP3    H230750   5.759   3.756  11.064  0.5391 -0.1646  1.1637
 3087TIP3   OH230751   1.820   1.032  14.167 -0.7629 -0.7903 -0.2440
 3087TIP3    H130752   1.885   0.972  14.203 -1.0898 -1.9881 -1.5510
 3087TIP3    H230753   1.743   0.977  14.151 -2.1466  0.5920  1.2693
 3088TIP3   OH230754   3.332   5.313   1.999  0.0951  0.1650 -0.2151
 3088TIP3    H130755   3.401   5.355   2.050 -1.1401  0.5637  1.1655
 3088TIP3    H230756   3.254   5.365   2.017 -1.4692 -2.5715  1.4448
 3089TIP3   OH230757   4.147   5.981   5.050  0.5712 -0.1697 -0.8803
 3089TIP3    H130758   4.088   5.906   5.040 -1.3894  0.8758  1.7883
 3089TIP3    H230759   4.223   5.945   5.097 -2.4697  0.0868  5.0955
 3090TIP3   OH230760   2.285   4.475   2.615 -0.1822  0.2077 -0.2829
 3090TIP3    H130761   2.244   4.545   2.667 -1.0084  0.2855 -1.0049
 3090TIP3    H230762   2.213   4.414   2.597  0.2796 -0.2401 -0.6288
 3091TIP3   OH230763   4.149   1.001  12.257  0.0951  0.7337 -0.5312
 3091TIP3    H130764   4.174   0.938  12.189 -0.2834  0.3780 -0.3469
 3091TIP3    H230765   4.232   1.040  12.284  0.7152 -1.5213  1.1531
 3092TIP3   OH230766   3.359   2.248   2.915  0.2165 -0.0938 -0.3879
 3092TIP3    H130767   3.382   2.254   3.008 -0.3982 -0.3785 -0.2157
 3092TIP3    H230768   3.343   2.155   2.900 -0.6570  0.0669 -0.5350
 3093TIP3   OH230769   5.253   1.461  12.626  0.6521  0.0771  0.0058
 3093TIP3    H130770   5.266   1.540  12.678  0.4095  0.3591 -0.3507
 3093TIP3    H230771   5.316   1.469  12.554  2.3612 -1.2523  1.2926
 3094TIP3   OH230772   6.657   2.650   2.447 -0.3720  0.5331  0.4388
 3094TIP3    H130773   6.607   2.568   2.448 -1.1930  0.9999 -0.5863
 3094TIP3    H230774   6.683   2.661   2.356 -0.1514  1.3424  0.5963
 3095TIP3   OH230775   0.230   4.925   6.177  0.4319 -0.2783  0.0357
 3095TIP3    H130776   0.259   5.004   6.223 -0.7056 -0.2111  0.6816
 3095TIP3    H230777   0.165   4.886   6.236  0.4490 -1.3057 -0.6025
 3096TIP3   OH230778   0.268   6.291   3.068  0.1551 -0.3092  0.4818
 3096TIP3    H130779   0.233   6.249   2.990  0.2797  0.5305 -0.0373
 3096TIP3    H230780   0.272   6.384   3.046  0.2441 -0.0626  1.4682
 3097TIP3   OH230781   4.947   0.193   3.739 -0.4409 -0.5234  0.1164
 3097TIP3    H130782   4.928   0.150   3.656  1.2216 -0.6160 -0.2584
 3097TIP3    H230783   5.016   0.256   3.718  0.4902 -1.0188  1.5321
 3098TIP3   OH230784   3.231   0.625  13.919  0.2519  0.5199  0.4673
 3098TIP3    H130785   3.145   0.651  13.887 -0.2868 -0.5144  1.0198
 3098TIP3    H230786   3.251   0.544  13.872  0.7834  0.5830  0.5754
 3099TIP3   OH230787   2.019   1.148  13.744  1.0844 -0.4455  0.4372
 3099TIP3    H130788   2.091   1.211  13.746  1.4788 -0.8821  1.8823
 3099TIP3    H230789   1.962   1.177  13.674  0.4269  2.4730  2.0358
 3100TIP3   OH230790   3.922   3.999   4.381  0.0976 -0.6973  1.0266
 3100TIP3    H130791   3.937   3.992   4.287 -0.9185 -1.2075  0.8961
 3100TIP3    H230792   3.996   4.051   4.413  0.3894 -0.4260 -0.0612
 3101TIP3   OH230793   0.631   0.556   0.124  0.4096 -0.0028 -0.1454
 3101TIP3    H130794   0.595   0.568   0.212  1.8386 -0.6207  0.5602
 3101TIP3    H230795   0.692   0.629   0.113 -1.7416  1.6929 -1.7760
 3102TIP3   OH230796   3.631   1.166  11.319  0.4045 -0.4285  0.0554
 3102TIP3    H130797   3.694   1.114  11.268 -0.8278 -2.0221  0.0639
 3102TIP3    H230798   3.567   1.196  11.254  0.8289  0.6896  0.1344
 3103TIP3   OH230799   2.044   2.434   3.016 -0.1155 -0.5857  0.3782
 3103TIP3    H130800   2.014   2.351   2.979  1.0288 -0.6686 -0.4128
 3103TIP3    H230801   2.137   2.439   2.992 -0.4859  1.5765 -0.8430
 3104TIP3   OH230802   6.770   4.021  13.425  0.1618  0.1689  0.1147
 3104TIP3    H130803   6.812   3.944  13.387 -1.7821 -0.7962 -0.2096
 3104TIP3    H230804   6.688   4.030  13.376  0.1045  2.1417  0.5044
 3105TIP3   OH230805   6.344   4.834  13.243 -0.0896 -0.5274 -0.5355
 3105TIP3    H130806   6.359   4.769  13.175  0.5595 -1.6748  0.6587
 3105TIP3    H230807   6.408   4.903  13.225  0.4005 -1.0496 -0.8211
 3106TIP3   OH230808   3.477   1.343   4.148  0.2677 -0.0669  0.3485
 3106TIP3    H130809   3.566   1.342   4.113  0.0033 -0.1292 -0.3502
 3106TIP3    H230810   3.483   1.296   4.231  0.6556 -1.2437 -0.3113
 3107TIP3   OH230811   6.732   1.103  15.419  0.2659 -0.1760  0.0628
 3107TIP3    H130812   6.763   1.037  15.481  0.0999 -1.7359 -1.4310
 3107TIP3    H230813   6.809   1.125  15.367  0.8552  2.4908  1.8975
 3108TIP3   OH230814   5.806   3.274   1.435 -0.0432  0.0452 -0.2014
 3108TIP3    H130815   5.733   3.292   1.494  0.7180 -2.0843  1.5429
 3108TIP3    H230816   5.855   3.356   1.430 -1.2716  0.8389  0.4955
 3109TIP3   OH230817   2.774   2.246  14.737  0.4873 -0.4002 -0.2209
 3109TIP3    H130818   2.857   2.223  14.780 -0.3053 -0.9586  1.0665
 3109TIP3    H230819   2.717   2.273  14.809 -0.2243  0.7397 -1.1697
 3110TIP3   OH230820   4.682   5.524   1.034 -0.1524  0.0177  0.3882
 3110TIP3    H130821   4.675   5.606   1.081  0.1885 -0.6897  1.7238
 3110TIP3    H230822   4.594   5.509   0.998 -0.2690  0.8376  0.3099
 3111TIP3   OH230823   4.536   1.365   6.575  0.1136 -0.1634 -0.0969
 3111TIP3    H130824   4.598   1.379   6.647  0.1347 -1.2434  0.1075
 3111TIP3    H230825   4.573   1.415   6.502  0.0450  1.0243  0.6413
 3112TIP3   OH230826   6.101   4.740   0.142  0.2907 -0.2582  0.0721
 3112TIP3    H130827   6.130   4.648   0.141 -0.4573 -0.5424  1.2929
 3112TIP3    H230828   6.165   4.786   0.088  2.7520 -0.9233  2.2199
 3113TIP3   OH230829   2.166   2.651  11.894 -0.0286  0.2186 -0.6095
 3113TIP3    H130830   2.249   2.606  11.878  0.0055 -0.2591  0.7927
 3113TIP3    H230831   2.112   2.628  11.818  0.2664 -1.5751 -0.3194
 3114TIP3   OH230832   0.705   6.823   2.882 -0.1678 -0.0463 -0.0299
 3114TIP3    H130833   0.709   6.861   2.970  1.8082 -0.2468  0.0292
 3114TIP3    H230834   0.612   6.811   2.864 -0.6328  0.6073  1.7678
 3115TIP3   OH230835   0.852   5.939  14.233 -0.5567  0.0613 -0.8786
 3115TIP3    H130836   0.798   6.014  14.257 -0.3744 -0.0614 -0.0505
 3115TIP3    H230837   0.826   5.918  14.143 -1.3325  0.4845 -0.7603
 3116TIP3   OH230838   1.774   5.059  14.340  0.0160  0.0508 -0.1115
 3116TIP3    H130839   1.699   5.053  14.399  0.5262  0.6540  0.6183
 3116TIP3    H230840   1.795   4.968  14.319 -1.7292 -0.1033 -1.4110
 3117TIP3   OH230841   3.851   3.282  17.040  0.0798  0.0342 -0.0412
 3117TIP3    H130842   3.935   3.254  17.078  0.2464 -0.3607 -0.6995
 3117TIP3    H230843   3.827   3.360  17.091  0.2330 -0.5633  0.9694
 3118TIP3   OH230844   1.455   5.021   6.364  0.6867  0.1674 -0.0111
 3118TIP3    H130845   1.407   5.000   6.444  0.3218 -0.5637 -0.4134
 3118TIP3    H230846   1.396   5.079   6.315  1.3853  1.5887  0.7561
 3119TIP3   OH230847   3.270   0.602  12.674 -0.1814 -0.0951  0.1488
 3119TIP3    H130848   3.255   0.694  12.653  1.8860  0.8617  2.4179
 3119TIP3    H230849   3.222   0.588  12.756 -0.9407 -1.2313 -0.4642
 3120TIP3   OH230850   3.148   6.633  11.586 -0.2769 -0.3481 -0.5949
 3120TIP3    H130851   3.118   6.595  11.669 -1.1609  1.1265 -0.1915
 3120TIP3    H230852   3.173   6.558  11.533 -0.3559 -1.3740  0.7538
 3121TIP3   OH230853   1.121   3.030  16.919  0.3681 -0.3966 -0.5391
 3121TIP3    H130854   1.217   3.036  16.923  0.2672  1.0244  1.0051
 3121TIP3    H230855   1.098   2.976  16.993 -0.0977  0.9027  0.2955
 3122TIP3   OH230856   3.738   1.719   4.956  0.3571  0.3218  0.2522
 3122TIP3    H130857   3.770   1.629   4.946  1.8528  0.7748  0.6411
 3122TIP3    H230858   3.758   1.741   5.048  0.7461  1.3086 -0.0570
 3123TIP3   OH230859   4.155   0.665   1.938 -0.0875  0.3453  0.3413
 3123TIP3    H130860   4.097   0.727   1.894  0.3732 -0.5707 -1.6641
 3123TIP3    H230861   4.241   0.679   1.898  0.5345 -0.0498  1.4700
 3124TIP3   OH230862   4.526   4.975   3.227 -0.3502  0.7603  0.1238
 3124TIP3    H130863   4.531   5.040   3.297  1.6772 -0.4553  1.1717
 3124TIP3    H230864   4.615   4.941   3.218 -0.9976 -0.6778 -1.5735
 3125TIP3   OH230865   6.683   6.646  12.907 -0.0507  0.3044  0.2130
 3125TIP3    H130866   6.746   6.718  12.905 -0.0385  0.2816 -0.4267
 3125TIP3    H230867   6.735   6.569  12.928  0.1599  0.2639 -0.4458
 3126TIP3   OH230868   2.094   4.443  11.766 -0.2775 -0.2566  0.0744
 3126TIP3    H130869   2.069   4.377  11.701 -1.1200  0.5825 -0.4773
 3126TIP3    H230870   2.182   4.416  11.794  0.6580  0.0370 -2.3418
 3127TIP3   OH230871   0.517   2.905   6.400  0.3962 -0.2927 -0.1029
 3127TIP3    H130872   0.565   2.940   6.475  0.3641 -0.4495 -0.0084
 3127TIP3    H230873   0.441   2.963   6.391 -0.0009 -0.7103  0.4519
 3128TIP3   OH230874   6.758   0.212   4.374 -0.4892  0.2696  0.3238
 3128TIP3    H130875   6.806   0.294   4.380 -0.8953  0.5529 -0.2494
 3128TIP3    H230876   6.813   0.156   4.319  0.0267 -0.0273  1.1160
 3129TIP3   OH230877   6.269   5.143  13.267  0.0820  0.0522 -0.4606
 3129TIP3    H130878   6.251   5.068  13.210 -0.7660  0.7247 -1.1128
 3129TIP3    H230879   6.286   5.215  13.206 -0.4961  0.7118  0.1386
 3130TIP3   OH230880   0.827   0.778  14.877  0.0137 -0.0248 -0.2996
 3130TIP3    H130881   0.736   0.809  14.881  0.5277  1.7425 -1.1192
 3130TIP3    H230882   0.829   0.721  14.801 -0.4792 -0.3351 -0.0859
 3131TIP3   OH230883   3.275   6.377  12.624  0.1145  0.2761 -0.2170
 3131TIP3    H130884   3.282   6.421  12.709  0.4549  0.0314 -0.1155
 3131TIP3    H230885   3.183   6.351  12.618  0.3682 -0.9404  0.7042
 3132TIP3   OH230886   1.931   4.751  12.893  0.1643  0.4298  0.1711
 3132TIP3    H130887   1.868   4.679  12.900 -0.9682  1.3303 -0.4523
 3132TIP3    H230888   1.936   4.771  12.799 -0.1865  1.7105  0.4031
 3133TIP3   OH230889   1.550   3.490   1.320  0.3615 -0.2117 -0.1925
 3133TIP3    H130890   1.463   3.483   1.281 -0.4197 -0.1820  1.4707
 3133TIP3    H230891   1.559   3.582   1.345 -0.3903 -0.7509  2.3143
 3134TIP3   OH230892   6.448   1.474   2.157  0.1021  0.4441 -0.3332
 3134TIP3    H130893   6.379   1.535   2.183 -0.0611  0.7321 -1.4237
 3134TIP3    H230894   6.530   1.518   2.181 -0.0273  0.9148 -0.7664
 3135TIP3   OH230895   3.791   0.853   6.000  0.3689  0.3543 -0.1220
 3135TIP3    H130896   3.720   0.891   6.050  0.1445  0.5758 -0.6000
 3135TIP3    H230897   3.808   0.768   6.042 -0.6761 -0.0349 -0.4448
 3136TIP3   OH230898   2.134   5.117   0.869 -0.7819 -0.5033 -0.3228
 3136TIP3    H130899   2.205   5.101   0.931  0.8593 -1.1091 -2.2673
 3136TIP3    H230900   2.118   5.211   0.874  0.3021 -0.3248  0.0121
 3137TIP3   OH230901   5.757   6.407   1.757 -0.9171 -0.2938  0.0725
 3137TIP3    H130902   5.848   6.429   1.736 -0.9678  1.7622  1.6703
 3137TIP3    H230903   5.763   6.343   1.828 -0.6718  0.4111  0.7052
 3138TIP3   OH230904   6.734   1.010  16.927 -0.1196 -0.0853 -0.4012
 3138TIP3    H130905   6.730   1.105  16.914 -1.3680 -0.2785 -1.6827
 3138TIP3    H230906   6.725   0.974  16.839  3.3449 -1.3969 -0.3745
 3139TIP3   OH230907   6.193   6.004   5.868 -0.2672  0.5814  0.2393
 3139TIP3    H130908   6.169   6.030   5.957  2.1171  0.4952  0.9720
 3139TIP3    H230909   6.142   5.924   5.853  1.2834 -1.0268  2.6693
 3140TIP3   OH230910   4.168   2.296   0.214 -0.3663  0.4626  0.6605
 3140TIP3    H130911   4.240   2.294   0.278  0.2313  0.5836 -0.0020
 3140TIP3    H230912   4.089   2.304   0.268  0.0391 -0.6302  1.4439
 3141TIP3   OH230913   1.787   6.283   3.481 -0.2153 -0.7841  0.6343
 3141TIP3    H130914   1.826   6.370   3.490 -0.7243 -0.4821  0.0426
 3141TIP3    H230915   1.823   6.249   3.398 -0.3467 -0.9596  0.6467
 3142TIP3   OH230916   0.117   1.800   3.254  0.4810 -0.0771 -0.1974
 3142TIP3    H130917   0.133   1.729   3.192  0.3763 -0.6083  0.3726
 3142TIP3    H230918   0.192   1.799   3.313 -0.6679 -1.3510  1.3270
 3143TIP3   OH230919   5.604   4.803  11.630 -0.2956 -0.1142 -0.0742
 3143TIP3    H130920   5.560   4.859  11.695 -2.7803 -0.7014 -1.1199
 3143TIP3    H230921   5.666   4.861  11.587 -0.8840  1.1303  0.6938
 3144TIP3   OH230922   1.480   0.349   4.937 -0.7809  0.5039 -0.4456
 3144TIP3    H130923   1.470   0.256   4.956  0.9046  0.0782 -1.3993
 3144TIP3    H230924   1.492   0.390   5.022  1.2313 -0.5782 -0.1574
 3145TIP3   OH230925   3.364   1.224   2.454  0.0715 -0.6403  0.2172
 3145TIP3    H130926   3.349   1.153   2.392 -0.5100  0.2024 -0.6293
 3145TIP3    H230927   3.351   1.304   2.404  1.3991  0.1007  0.9850
 3146TIP3   OH230928   3.041   4.464  16.401 -0.0184  0.3750  0.0666
 3146TIP3    H130929   3.053   4.370  16.394 -0.3868  0.2904  0.5213
 3146TIP3    H230930   2.983   4.486  16.328  0.2763  0.2892 -0.1947
 3147TIP3   OH230931   6.215   3.656  13.615 -0.0146 -0.1532 -0.0427
 3147TIP3    H130932   6.198   3.630  13.524  0.6852  0.6145 -0.4018
 3147TIP3    H230933   6.288   3.717  13.609  0.0560 -0.1222  1.0488
 3148TIP3   OH230934   0.750   1.657   3.616  0.2329  0.3203  0.3056
 3148TIP3    H130935   0.811   1.588   3.589 -1.3988 -1.0507 -0.0585
 3148TIP3    H230936   0.794   1.700   3.689  1.0184 -1.5836  1.0241
 3149TIP3   OH230937   1.058   4.134   2.205  0.2558 -0.0209 -0.7399
 3149TIP3    H130938   1.091   4.098   2.288  0.1787 -1.4134 -1.2861
 3149TIP3    H230939   1.125   4.197   2.178  0.1519  0.6570  0.4956
 3150TIP3   OH230940   1.321   2.758  16.622  0.4247  0.1288 -0.1265
 3150TIP3    H130941   1.351   2.841  16.586 -0.7363  0.1447 -1.1170
 3150TIP3    H230942   1.232   2.775  16.654  0.4822 -0.5273  0.4215
 3151TIP3   OH230943   1.688   3.219   4.071  0.2189 -0.6169  0.1455
 3151TIP3    H130944   1.698   3.126   4.050  1.5145 -1.2146  2.9073
 3151TIP3    H230945   1.768   3.241   4.117 -1.1373  1.1675  1.8129
 3152TIP3   OH230946   4.204   5.643   4.449  0.4032  0.1803  0.4388
 3152TIP3    H130947   4.206   5.723   4.500 -0.8206  0.1095  0.6275
 3152TIP3    H230948   4.205   5.573   4.514 -0.1925  0.0798  0.3503
 3153TIP3   OH230949   1.095   0.536  11.883  0.1474 -0.7801 -0.0754
 3153TIP3    H130950   1.078   0.465  11.945 -1.0572  0.3191  0.9111
 3153TIP3    H230951   1.009   0.559  11.848  0.1297  1.7159  1.3802
 3154TIP3   OH230952   4.372   2.414  12.662  0.3710 -0.3130  0.3162
 3154TIP3    H130953   4.434   2.444  12.596  0.9671  1.1620  1.4910
 3154TIP3    H230954   4.394   2.322  12.676  0.4243 -0.5654 -1.2964
 3155TIP3   OH230955   3.244   3.094  15.939 -0.4179  0.0507  0.5031
 3155TIP3    H130956   3.315   3.072  15.999 -1.0215 -1.5302  0.6938
 3155TIP3    H230957   3.281   3.078  15.852 -0.3906 -0.3482  0.5842
 3156TIP3   OH230958   2.770   4.232  17.035  0.0586  0.5186 -0.5246
 3156TIP3    H130959   2.812   4.205  17.116  0.8190 -0.9056 -1.3466
 3156TIP3    H230960   2.722   4.155  17.006 -1.8660  1.6387 -0.4262
 3157TIP3   OH230961   3.517   6.453  11.339  0.1301  0.6824 -0.6044
 3157TIP3    H130962   3.503   6.456  11.434 -0.3948  0.4199 -0.6647
 3157TIP3    H230963   3.594   6.396  11.328  0.3812  0.9668 -0.3222
 3158TIP3   OH230964   0.622   6.209   2.090 -0.2782 -0.1168  0.0063
 3158TIP3    H130965   0.613   6.304   2.099  2.1620  0.0784  1.2659
 3158TIP3    H230966   0.569   6.173   2.160  0.3072  0.4468  0.7681
 3159TIP3   OH230967   1.896   6.832   5.335 -0.2785  0.3603  0.4911
 3159TIP3    H130968   1.950   6.855   5.410 -2.2082  2.2745  1.3588
 3159TIP3    H230969   1.824   6.780   5.371 -0.0241 -0.6681 -0.4027
 3160TIP3   OH230970   0.330   5.140  15.962  0.0090  0.0699  0.0341
 3160TIP3    H130971   0.254   5.099  15.919 -0.2996  0.4084  0.2551
 3160TIP3    H230972   0.327   5.231  15.934  1.8788 -0.4458 -2.1431
 3161TIP3   OH230973   6.622   4.644   2.091 -0.1296  0.4427  0.0925
 3161TIP3    H130974   6.564   4.716   2.114  1.0025  0.8268  1.9110
 3161TIP3    H230975   6.710   4.681   2.098  0.4784 -1.0654  0.9684
 3162TIP3   OH230976   4.817   0.284   4.190  0.0746 -0.3926  0.1776
 3162TIP3    H130977   4.822   0.261   4.097  0.5525 -2.4766  0.6746
 3162TIP3    H230978   4.743   0.233   4.224  0.5052 -0.3902  1.1506
 3163TIP3   OH230979   5.452   0.951   1.672  0.9535  0.7924  0.0106
 3163TIP3    H130980   5.423   0.972   1.583 -0.0970 -0.5134  0.0088
 3163TIP3    H230981   5.513   1.021   1.695  0.4714  1.6992 -1.3563
 3164TIP3   OH230982   1.776   5.446  17.151 -0.4822  0.4256 -0.3668
 3164TIP3    H130983   1.831   5.525  17.157  0.0234  0.1930 -1.6668
 3164TIP3    H230984   1.823   5.380  17.202 -0.5062  0.7418  0.0694
 3165TIP3   OH230985   0.133   0.359   4.878  0.9497  1.3839  0.4629
 3165TIP3    H130986   0.160   0.275   4.915  1.5498  1.0588 -0.6636
 3165TIP3    H230987   0.207   0.417   4.895  2.4400  0.5612 -2.3897
 3166TIP3   OH230988   0.155   3.753  13.177  0.1638 -0.2428 -0.5438
 3166TIP3    H130989   0.074   3.720  13.138 -0.3097 -0.0069  0.2148
 3166TIP3    H230990   0.191   3.812  13.111 -0.1357 -0.5668 -1.0008
 3167TIP3   OH230991   2.549   5.917  16.258  0.2413 -0.1505 -0.0162
 3167TIP3    H130992   2.560   5.889  16.348  1.1891  0.2161 -0.0069
 3167TIP3    H230993   2.588   5.847  16.206 -0.0199 -0.2124 -0.1335
 3168TIP3   OH230994   0.185   6.480   1.078 -0.1478 -0.3751  0.6273
 3168TIP3    H130995   0.166   6.422   1.151 -2.4190 -1.9022 -1.0414
 3168TIP3    H230996   0.240   6.428   1.020  0.1278  0.1650  0.4008
 3169TIP3   OH230997   5.440   5.588   5.231 -0.0640 -0.8875 -0.4049
 3169TIP3    H130998   5.413   5.645   5.303  2.4084 -1.3610  1.0055
 3169TIP3    H230999   5.462   5.648   5.159 -0.2984 -0.2548  0.0459
 3170TIP3   OH231000   3.184   1.663  14.400 -0.2696  0.1631 -0.2240
 3170TIP3    H131001   3.204   1.682  14.492 -0.6922 -1.9351  0.3700
 3170TIP3    H231002   3.244   1.718  14.351 -0.3455  1.6726  1.2945
 3171TIP3   OH231003   4.107   5.393  11.538  0.2260  0.1263 -0.1895
 3171TIP3    H131004   4.202   5.394  11.526  0.2587  2.4558 -0.2326
 3171TIP3    H231005   4.072   5.423  11.454 -0.6581 -1.8156 -0.5628
 3172TIP3   OH231006   0.956   4.778   6.086  0.1206  0.6588  0.0635
 3172TIP3    H131007   0.902   4.783   6.164 -0.2850  0.4668 -0.2018
 3172TIP3    H231008   1.017   4.852   6.094 -0.1099  0.8113  0.4172
 3173TIP3   OH231009   6.721   1.931  13.217 -0.3761 -0.4758 -0.0639
 3173TIP3    H131010   6.742   1.860  13.278  0.0899  0.6830  1.1648
 3173TIP3    H231011   6.681   1.998  13.272  0.1969  0.6646 -1.0125
 3174TIP3   OH231012   3.642   4.387   5.263  0.3022  0.2602  0.2376
 3174TIP3    H131013   3.592   4.468   5.257  0.4533  0.5404  2.2020
 3174TIP3    H231014   3.613   4.346   5.344 -0.9938 -2.5578 -1.4936
 3175TIP3   OH231015   2.284   1.174   3.609  0.0283  0.2659  0.3442
 3175TIP3    H131016   2.313   1.215   3.691  0.7425  1.7740 -0.6051
 3175TIP3    H231017   2.361   1.179   3.552 -0.8150  0.3893 -0.8191
 3176TIP3   OH231018   1.527   2.025  14.643 -0.0186  0.3044  0.4913
 3176TIP3    H131019   1.507   2.077  14.565  1.8095  1.7044  0.8819
 3176TIP3    H231020   1.621   2.008  14.637 -0.0081 -0.2994  1.9425
 3177TIP3   OH231021   2.634   5.772  17.120  0.1111 -0.2192 -0.2456
 3177TIP3    H131022   2.593   5.790  17.035  2.2283 -0.4030 -1.3819
 3177TIP3    H231023   2.620   5.678  17.133  1.3891 -0.5829 -1.3404
 3178TIP3   OH231024   0.320   4.585   1.346 -0.7312  0.8929 -0.0536
 3178TIP3    H131025   0.339   4.647   1.417 -0.4884 -1.1138  1.7339
 3178TIP3    H231026   0.353   4.628   1.267  1.0707  2.2606  1.3639
 3179TIP3   OH231027   0.266   0.147   4.986  0.0857  0.3667 -0.3385
 3179TIP3    H131028   0.277   0.067   5.037 -1.2110  0.2168 -0.2521
 3179TIP3    H231029   0.355   0.177   4.968  0.6400  0.8877  2.7181
 3180TIP3   OH231030   1.473   1.941  16.750  0.3099 -0.6801  0.1071
 3180TIP3    H131031   1.457   1.981  16.836 -1.4901 -1.4038  0.1342
 3180TIP3    H231032   1.395   1.960  16.699  1.4866  0.0273 -1.5428
 3181TIP3   OH231033   6.161   1.929  13.657  0.1131 -0.0070  0.1499
 3181TIP3    H131034   6.135   2.018  13.631  1.6798 -0.0001 -1.6766
 3181TIP3    H231035   6.170   1.933  13.752 -1.8435  1.1995  0.3254
 3182TIP3   OH231036   3.936   0.930  13.612 -0.4882  0.1660 -0.3723
 3182TIP3    H131037   4.020   0.957  13.574  0.0650  0.2410  0.8326
 3182TIP3    H231038   3.949   0.838  13.634 -1.0013 -0.0336 -0.8720
 3183TIP3   OH231039   4.473   5.956  11.378  0.0280  0.1002  0.1678
 3183TIP3    H131040   4.482   6.022  11.447  0.5386  1.7325 -1.4055
 3183TIP3    H231041   4.558   5.956  11.333  0.3652 -2.2965  0.6385
 3184TIP3   OH231042   1.133   0.750  11.174 -0.8373 -0.3096  0.0544
 3184TIP3    H131043   1.073   0.734  11.246  0.8498  1.5436  2.0275
 3184TIP3    H231044   1.208   0.693  11.192 -1.3324 -1.5559 -1.5901
 3185TIP3   OH231045   4.847   2.971  14.742  0.0725 -0.4705 -0.5951
 3185TIP3    H131046   4.858   2.970  14.647 -0.6343 -0.7309 -0.6806
 3185TIP3    H231047   4.763   2.928  14.757  0.0226 -0.1361  0.1291
 3186TIP3   OH231048   0.627   2.277   0.295 -0.4966 -0.0619  0.0210
 3186TIP3    H131049   0.552   2.219   0.285  0.0522 -0.7289 -0.2776
 3186TIP3    H231050   0.664   2.256   0.380 -0.6800  0.3123  0.1969
 3187TIP3   OH231051   2.137   4.188   2.821  0.2671 -0.5901 -0.5257
 3187TIP3    H131052   2.165   4.099   2.797 -0.6728 -0.9058 -0.4749
 3187TIP3    H231053   2.044   4.180   2.840  0.2836  0.3098  0.0044
 3188TIP3   OH231054   1.088   5.616  13.029  0.2214 -0.2700  0.5236
 3188TIP3    H131055   1.183   5.627  13.018  0.0987 -0.5905 -1.2182
 3188TIP3    H231056   1.071   5.646  13.118  1.6464  1.9201  0.1455
 3189TIP3   OH231057   4.233   1.166  11.942  0.0642  0.3569 -0.2105
 3189TIP3    H131058   4.218   1.073  11.926  0.1388  0.3704 -0.3680
 3189TIP3    H231059   4.268   1.170  12.031 -1.3924  0.3813  0.3838
 3190TIP3   OH231060   4.053   2.993   5.333  0.2459  0.0312 -0.3339
 3190TIP3    H131061   3.998   3.063   5.368  0.2781  0.0099 -0.2412
 3190TIP3    H231062   4.140   3.011   5.368  0.2481 -0.0713 -0.2854
 3191TIP3   OH231063   3.519   2.027   5.629  0.4434  0.2058 -0.2122
 3191TIP3    H131064   3.542   1.942   5.667  2.6413  1.2636  1.0130
 3191TIP3    H231065   3.576   2.034   5.552 -1.1248 -0.1967 -1.4682
 3192TIP3   OH231066   5.946   0.578   3.574 -0.0936  0.1634  0.6763
 3192TIP3    H131067   5.940   0.541   3.662  0.4151  1.4921  1.3008
 3192TIP3    H231068   6.020   0.639   3.578 -1.2462  1.7023 -0.1012
 3193TIP3   OH231069   3.727   3.434   4.795 -0.0815 -0.1641 -0.2840
 3193TIP3    H131070   3.699   3.477   4.876  0.5967 -0.7222  0.2673
 3193TIP3    H231071   3.645   3.408   4.752 -0.4610  0.6099 -0.0424
 3194TIP3   OH231072   4.534   3.814  13.604 -0.0408  0.1426  0.2905
 3194TIP3    H131073   4.475   3.846  13.672 -1.6712  1.4403 -1.6001
 3194TIP3    H231074   4.562   3.893  13.558  0.5791 -0.7259 -0.8668
 3195TIP3   OH231075   0.883   4.268   3.236 -0.2556  0.5335  0.2896
 3195TIP3    H131076   0.969   4.290   3.270 -0.3097 -0.4565  1.1247
 3195TIP3    H231077   0.847   4.205   3.299 -1.2691  0.3341 -0.4488
 3196TIP3   OH231078   3.818   6.033  11.107 -0.3309  0.0124  0.6849
 3196TIP3    H131079   3.872   6.110  11.126  0.3675 -0.5055  0.8367
 3196TIP3    H231080   3.879   5.959  11.112 -0.5008 -0.3538 -1.6817
 3197TIP3   OH231081   6.295   3.396  15.724 -0.6612  0.2418 -0.0050
 3197TIP3    H131082   6.293   3.311  15.679 -1.6321  1.5834 -2.6749
 3197TIP3    H231083   6.211   3.437  15.703  0.1255  2.2125  0.4859
 3198TIP3   OH231084   1.625   1.413   1.624  0.1782  0.5326 -0.1067
 3198TIP3    H131085   1.533   1.398   1.646  0.1936 -0.7028 -0.7661
 3198TIP3    H231086   1.653   1.331   1.583  1.5226  0.9623 -0.0946
 3199TIP3   OH231087   0.688   1.074   2.474  0.2317 -0.2771 -0.4052
 3199TIP3    H131088   0.723   0.994   2.512 -3.4823 -2.2616 -0.6665
 3199TIP3    H231089   0.688   1.137   2.545  4.5457  0.1560 -0.5463
 3200TIP3   OH231090   5.362   5.324  13.639 -0.5324 -0.0647 -0.1059
 3200TIP3    H131091   5.452   5.324  13.609 -0.3806  0.2262  0.3405
 3200TIP3    H231092   5.329   5.412  13.619 -0.1215  0.4883  1.4361
 3201TIP3   OH231093   1.993   3.389   3.669 -0.0223 -0.4880 -0.1461
 3201TIP3    H131094   1.975   3.310   3.618  1.3689 -0.0333 -1.4068
 3201TIP3    H231095   2.087   3.404   3.657 -0.6030  2.6292 -1.8136
 3202TIP3   OH231096   4.316   0.863   1.638 -0.1968  0.1865  0.5145
 3202TIP3    H131097   4.243   0.825   1.588 -0.0934  1.9908 -1.1074
 3202TIP3    H231098   4.394   0.822   1.601 -0.1502  1.1972 -0.5375
 3203TIP3   OH231099   6.228   3.755   1.508 -0.1742  0.2662  0.3713
 3203TIP3    H131100   6.151   3.740   1.563 -1.0161  1.9794 -0.2619
 3203TIP3    H231101   6.288   3.805   1.563 -0.4338  0.7910  0.1813
 3204TIP3   OH231102   2.131   0.129  13.645 -0.3470 -0.0033 -0.2990
 3204TIP3    H131103   2.163   0.147  13.734  1.5799 -0.0166 -0.9434
 3204TIP3    H231104   2.043   0.166  13.644  0.3135  1.7765  1.0325
 3205TIP3   OH231105   5.606   5.001  10.896  0.1710  0.4440 -0.2135
 3205TIP3    H131106   5.552   4.995  10.975  0.3800  0.9080 -0.0328
 3205TIP3    H231107   5.575   5.081  10.853  1.0637  1.0031  0.1574
 3206TIP3   OH231108   1.755   0.365   2.061 -0.1910 -0.1425 -0.3209
 3206TIP3    H131109   1.812   0.307   2.011  0.3050  0.8413 -0.9200
 3206TIP3    H231110   1.690   0.307   2.101  1.3016 -1.3080  0.4881
 3207TIP3   OH231111   1.066   2.179  14.157  0.2275  0.1451  0.0968
 3207TIP3    H131112   0.988   2.233  14.149 -0.5587 -0.8949  0.5408
 3207TIP3    H231113   1.037   2.091  14.135  0.6261 -0.7579  2.8448
 3208TIP3   OH231114   3.238   0.175  11.612 -0.2565  0.3625 -0.6023
 3208TIP3    H131115   3.258   0.176  11.518 -0.6382  0.9915 -0.6771
 3208TIP3    H231116   3.207   0.263  11.632 -0.6577  0.0925  0.0135
 3209TIP3   OH231117   1.638   4.905  15.638  0.4992  0.4866 -0.3873
 3209TIP3    H131118   1.690   4.946  15.569 -0.2781 -0.7763 -1.7953
 3209TIP3    H231119   1.612   4.977  15.695  1.8513  1.4558 -0.9399
 3210TIP3   OH231120   2.738   0.292  15.663  0.3436  0.1163 -0.3500
 3210TIP3    H131121   2.657   0.343  15.676  0.2236 -0.3612  0.8734
 3210TIP3    H231122   2.807   0.348  15.698  0.2259 -0.4965  0.8911
 3211TIP3   OH231123   5.716   1.683  11.586 -0.2922  0.7381  0.1803
 3211TIP3    H131124   5.756   1.595  11.590  0.9504  1.3215  1.6791
 3211TIP3    H231125   5.724   1.717  11.675 -1.6058  2.0343 -0.1571
 3212TIP3   OH231126   4.013   3.215  15.936  0.7156 -0.0151 -0.1616
 3212TIP3    H131127   3.984   3.136  15.980 -0.2821 -1.0716 -2.5372
 3212TIP3    H231128   4.095   3.238  15.980  1.0379 -2.3693  0.5965
 3213TIP3   OH231129   0.377   1.560  16.950  0.7244 -0.1557 -0.1638
 3213TIP3    H131130   0.329   1.643  16.946 -1.8665 -1.5593 -0.2053
 3213TIP3    H231131   0.397   1.549  17.043  0.5233  0.2041 -0.0763
 3214TIP3   OH231132   0.149   0.351  12.289 -0.0038 -0.1472  0.1481
 3214TIP3    H131133   0.128   0.443  12.305  1.0581 -0.1211  1.6353
 3214TIP3    H231134   0.238   0.341  12.322  0.1950 -1.5416 -0.7280
 3215TIP3   OH231135   6.212   2.916  11.777 -0.2106  0.1709  0.1980
 3215TIP3    H131136   6.283   2.975  11.803  0.2673 -0.8786  1.3869
 3215TIP3    H231137   6.184   2.874  11.859 -0.3951 -1.3890 -0.6158
 3216TIP3   OH231138   1.210   3.544  12.642 -0.5526 -0.4380  0.1894
 3216TIP3    H131139   1.151   3.619  12.634  0.0379  0.0382  0.2286
 3216TIP3    H231140   1.255   3.540  12.557 -1.8224 -1.8297 -0.4776
 3217TIP3   OH231141   0.156   4.945  17.033  0.5984  0.5497  0.0505
 3217TIP3    H131142   0.101   4.868  17.021 -0.9178  1.6290 -0.1858
 3217TIP3    H231143   0.193   4.962  16.946 -2.3437  2.4409 -0.9515
 3218TIP3   OH231144   4.036   2.916  16.978  0.1597  0.2845  0.2250
 3218TIP3    H131145   3.970   2.859  17.016 -0.3061  1.0762  0.6350
 3218TIP3    H231146   3.987   2.987  16.937  0.7012  0.0484 -0.8849
 3219TIP3   OH231147   6.578   2.783  11.743  0.1242  0.1756  0.3028
 3219TIP3    H131148   6.658   2.772  11.793 -0.3862 -2.1794  0.7078
 3219TIP3    H231149   6.510   2.742  11.797 -1.1939  1.2724 -0.4636
 3220TIP3   OH231150   4.936   2.605  10.960 -0.1981  0.3108  0.0785
 3220TIP3    H131151   4.964   2.536  11.020  1.0108  0.6841 -0.0396
 3220TIP3    H231152   4.844   2.584  10.941  0.5520 -2.2415 -1.2275
 3221TIP3   OH231153   5.186   4.570   3.981 -0.1766  0.2660 -0.0418
 3221TIP3    H131154   5.258   4.592   3.922 -1.1017  0.2305 -1.2375
 3221TIP3    H231155   5.116   4.630   3.957 -1.1570 -0.8909 -0.1683
 3222TIP3   OH231156   3.830   1.439  11.505  0.7417 -0.2138  0.0879
 3222TIP3    H131157   3.844   1.422  11.411 -1.1853  1.1081 -0.5086
 3222TIP3    H231158   3.795   1.357  11.539 -2.4003  0.3773 -1.3285
 3223TIP3   OH231159   3.648   4.965   1.458 -0.0656  0.1611 -0.3150
 3223TIP3    H131160   3.691   5.050   1.460  0.1513  0.0342  0.6715
 3223TIP3    H231161   3.555   4.984   1.470  0.1865  0.1427  2.1601
 3224TIP3   OH231162   4.046   3.065  15.404 -0.3386  0.6139  0.1305
 3224TIP3    H131163   4.131   3.051  15.360 -0.1271 -1.0240  0.9571
 3224TIP3    H231164   3.984   3.012  15.353 -1.0578  2.3830 -0.9088
 3225TIP3   OH231165   1.655   1.671   1.497 -0.0846  0.2922  0.2908
 3225TIP3    H131166   1.716   1.638   1.432 -2.3092  1.9399 -2.8565
 3225TIP3    H231167   1.598   1.596   1.517  0.6209 -0.2240  0.4013
 3226TIP3   OH231168   1.109   4.213  13.398  0.2534  0.0208 -0.1868
 3226TIP3    H131169   1.102   4.246  13.487 -1.1428  0.2171 -0.3480
 3226TIP3    H231170   1.192   4.248  13.365 -0.7232  2.6704 -0.0445
 3227TIP3   OH231171   2.989   3.467   1.444  0.0576 -0.1560 -0.2494
 3227TIP3    H131172   3.068   3.414   1.443 -0.1275 -0.4898  1.1507
 3227TIP3    H231173   2.919   3.405   1.422 -0.0818 -0.3711  0.7670
 3228TIP3   OH231174   3.829   4.372   6.517  0.2470  0.3335 -0.1200
 3228TIP3    H131175   3.915   4.410   6.499  0.4997  0.5569  1.4363
 3228TIP3    H231176   3.847   4.281   6.538 -0.3446 -0.7750 -3.6828
 3229TIP3   OH231177   6.376   2.774  13.629  0.2021  0.2332 -0.6020
 3229TIP3    H131178   6.371   2.783  13.534 -2.9501 -0.2867 -0.5979
 3229TIP3    H231179   6.287   2.792  13.659  0.8448 -0.7368  2.1555
 3230TIP3   OH231180   1.525   5.984  14.444 -0.0084  0.3906  0.3956
 3230TIP3    H131181   1.504   5.930  14.521 -1.2797 -0.1251 -0.2825
 3230TIP3    H231182   1.583   6.052  14.478  2.2039 -1.7473  1.1531
 3231TIP3   OH231183   1.314   6.011   0.581  0.2554  0.5432  0.2438
 3231TIP3    H131184   1.265   5.929   0.587  0.3946  0.4962  0.8568
 3231TIP3    H231185   1.377   5.995   0.511 -0.1799  0.3779 -0.1159
 3232TIP3   OH231186   0.822   5.876   3.734 -0.2965 -0.0740 -0.3262
 3232TIP3    H131187   0.822   5.969   3.716  0.4497 -0.0788 -0.3821
 3232TIP3    H231188   0.731   5.856   3.758 -0.0348  1.0992  1.9424
 3233TIP3   OH231189   6.300   3.661   4.163 -0.2824  0.4351  0.4075
 3233TIP3    H131190   6.263   3.704   4.085 -1.0347  0.7365  0.9208
 3233TIP3    H231191   6.232   3.599   4.190  0.5781 -0.7470 -0.0243
 3234TIP3   OH231192   1.297   1.580  15.628 -0.3552  0.3956 -0.5811
 3234TIP3    H131193   1.379   1.542  15.659 -1.1430 -0.5517  0.4699
 3234TIP3    H231194   1.287   1.660  15.679 -1.2649 -0.7647  1.1615
 3235TIP3   OH231195   4.967   6.639   3.802 -0.2750  0.0849  0.3703
 3235TIP3    H131196   4.974   6.707   3.735 -0.8550 -1.2150 -1.0495
 3235TIP3    H231197   5.017   6.674   3.876 -1.1243  2.3673 -0.0264
 3236TIP3   OH231198   6.782   1.231   2.465 -0.4551  0.3985 -0.1495
 3236TIP3    H131199   6.821   1.282   2.536  0.0709 -1.4250  0.9215
 3236TIP3    H231200   6.696   1.272   2.451  0.8925  3.1915 -1.1636
 3237TIP3   OH231201   4.873   4.976   3.756  0.4560  0.9373  0.3528
 3237TIP3    H131202   4.937   4.949   3.690 -1.7183  0.1486 -1.5830
 3237TIP3    H231203   4.817   4.899   3.767 -0.9080  1.9779  1.0135
 3238TIP3   OH231204   6.536   4.508   5.970 -0.2087  0.5213 -0.2549
 3238TIP3    H131205   6.505   4.461   6.047 -0.4457  2.3093  0.8048
 3238TIP3    H231206   6.596   4.447   5.927 -1.0366 -0.9816  0.6371
 3239TIP3   OH231207   3.395   6.805   4.126 -0.3522  0.2445  0.0931
 3239TIP3    H131208   3.455   6.831   4.196  1.6542 -1.5210 -0.8673
 3239TIP3    H231209   3.417   6.863   4.053 -0.2475  0.0089 -0.0629
 3240TIP3   OH231210   0.927   3.145  14.150 -0.0276 -0.1791 -0.5872
 3240TIP3    H131211   0.972   3.069  14.111 -0.4684 -0.9971  0.4431
 3240TIP3    H231212   0.836   3.118  14.155 -0.5208  1.1510 -1.8886
 3241TIP3   OH231213   1.270   6.363  12.116 -0.0033  0.0728  0.0288
 3241TIP3    H131214   1.301   6.453  12.109  2.4982 -0.8663 -2.8688
 3241TIP3    H231215   1.337   6.317  12.167 -1.5267 -0.1234  1.9675
 3242TIP3   OH231216   0.513   4.458  13.210 -0.4198 -0.1412 -0.6798
 3242TIP3    H131217   0.422   4.484  13.194 -0.3389  0.9107  0.4463
 3242TIP3    H231218   0.512   4.419  13.297 -0.0435 -1.5221 -1.2746
 3243TIP3   OH231219   5.181   2.222   6.014  0.3990 -0.0698 -0.3536
 3243TIP3    H131220   5.170   2.128   6.027  1.3348  0.0415  1.4676
 3243TIP3    H231221   5.205   2.230   5.921 -0.5190 -1.5220 -0.7514
 3244TIP3   OH231222   3.689   2.229  12.075 -0.0622  0.4510 -0.0512
 3244TIP3    H131223   3.696   2.257  11.984 -1.5056  2.4145  0.3710
 3244TIP3    H231224   3.777   2.240  12.110  0.5768 -0.5753 -1.2277
 3245TIP3   OH231225   3.028   5.189   3.207  0.5194 -0.4399  0.0284
 3245TIP3    H131226   2.951   5.238   3.236  0.3932 -0.9439  0.5766
 3245TIP3    H231227   2.995   5.133   3.137  0.7903  0.6707 -1.0035
 3246TIP3   OH231228   2.505   5.319  13.438 -0.4874  0.2529 -0.1888
 3246TIP3    H131229   2.490   5.333  13.345 -1.5602  0.7998  0.0428
 3246TIP3    H231230   2.450   5.244  13.461 -0.7443  0.5293  0.1233
 3247TIP3   OH231231   5.414   1.959   4.523  0.4619 -0.4845 -0.0240
 3247TIP3    H131232   5.498   1.960   4.569  0.3131 -0.6246  0.2482
 3247TIP3    H231233   5.376   2.046   4.541  0.0973 -0.7819  0.6833
 3248TIP3   OH231234   6.585   4.943   5.031 -0.0313  0.1191 -0.0052
 3248TIP3    H131235   6.668   4.897   5.015  0.6382  1.5215 -0.7848
 3248TIP3    H231236   6.521   4.896   4.976  0.1749 -1.1035  0.7618
 3249TIP3   OH231237   5.338   1.567   1.678 -0.3392 -0.2586  0.3562
 3249TIP3    H131238   5.403   1.637   1.685 -0.9577  0.6501 -1.9713
 3249TIP3    H231239   5.254   1.610   1.697 -1.0031  0.3204 -3.1805
 3250TIP3   OH231240   0.726   3.621   1.380  0.7776 -0.0869  0.3128
 3250TIP3    H131241   0.667   3.546   1.373  0.2770  0.4695 -2.8579
 3250TIP3    H231242   0.811   3.587   1.352  0.9425  0.1130  0.5736
 3251TIP3   OH231243   6.492   3.908   1.284 -0.5085  0.2464  0.1280
 3251TIP3    H131244   6.580   3.938   1.307 -0.9956  0.0309  2.4745
 3251TIP3    H231245   6.437   3.985   1.295 -0.9638 -0.1999  1.0415
 3252TIP3   OH231246   1.595   4.455  16.987  0.2690 -0.0976 -0.0439
 3252TIP3    H131247   1.559   4.449  16.899 -2.8716  0.7351  1.0328
 3252TIP3    H231248   1.643   4.538  16.989 -1.0401  0.6915 -0.5560
 3253TIP3   OH231249   3.672   4.457  14.829 -0.1759 -0.8926 -0.4218
 3253TIP3    H131250   3.674   4.419  14.741  0.2353 -3.4462  0.5941
 3253TIP3    H231251   3.709   4.544  14.818  0.5688 -1.4054 -2.6571
 3254TIP3   OH231252   6.425   1.054   3.981  0.2339  0.0065 -0.3002
 3254TIP3    H131253   6.495   1.119   3.967 -0.9836  1.2685 -0.7046
 3254TIP3    H231254   6.354   1.104   4.022  0.0626 -1.5517  1.4557
 3255TIP3   OH231255   5.922   0.551   2.683  0.4462  0.1338 -0.0061
 3255TIP3    H131256   5.913   0.575   2.591  0.6610 -1.0598 -0.3535
 3255TIP3    H231257   5.865   0.612   2.730 -2.9830 -1.7554 -1.3140
 3256TIP3   OH231258   5.536   2.323   1.040 -0.2230 -0.0750  0.0073
 3256TIP3    H131259   5.609   2.373   1.075  0.3777  0.4139 -1.8357
 3256TIP3    H231260   5.571   2.234   1.029 -0.0631  0.0438 -0.4293
 3257TIP3   OH231261   0.231   4.618   2.775 -0.1057  0.3075  0.3326
 3257TIP3    H131262   0.281   4.686   2.819  0.6459  0.1687 -0.2864
 3257TIP3    H231263   0.140   4.637   2.797  0.0935  1.5300  0.1391
 3258TIP3   OH231264   2.719   3.385   1.026  0.5085  0.8006  0.0400
 3258TIP3    H131265   2.812   3.397   1.046  1.4186 -3.9269 -0.1520
 3258TIP3    H231266   2.712   3.405   0.933  1.7263 -0.2027 -0.2945
 3259TIP3   OH231267   6.102   6.410  12.831 -0.8106 -0.4967  0.2156
 3259TIP3    H131268   6.126   6.444  12.745 -1.6596  0.8819  0.4689
 3259TIP3    H231269   6.006   6.420  12.834 -0.6540  1.0684  1.9081
 3260TIP3   OH231270   0.470   6.446  14.487  0.1821  0.3790 -0.1066
 3260TIP3    H131271   0.548   6.402  14.518 -0.8247 -0.7444  0.9423
 3260TIP3    H231272   0.415   6.457  14.564 -1.5152 -0.6332 -1.0925
 3261TIP3   OH231273   5.656   2.587   5.607  0.0240  0.2275  0.1603
 3261TIP3    H131274   5.720   2.576   5.678  0.7919 -2.6077 -0.8418
 3261TIP3    H231275   5.706   2.626   5.536 -0.3297  1.4567  0.5553
 3262TIP3   OH231276   3.384   3.756  11.729 -0.3528 -0.1113 -0.1121
 3262TIP3    H131277   3.437   3.831  11.700 -1.1127 -0.3759 -2.4208
 3262TIP3    H231278   3.448   3.691  11.759  0.5579  0.1874 -1.3228
 3263TIP3   OH231279   1.494   5.347   3.442  0.0230  0.4954  0.1050
 3263TIP3    H131280   1.439   5.404   3.496 -0.3759  0.2145  0.0018
 3263TIP3    H231281   1.561   5.405   3.406 -1.7293  1.4071 -1.8953
 3264TIP3   OH231282   0.391   2.666  13.076 -0.0884 -0.4693  0.5386
 3264TIP3    H131283   0.331   2.692  13.146 -0.0052 -2.3418  1.3535
 3264TIP3    H231284   0.478   2.687  13.109 -0.1684  2.0411 -0.5557
 3265TIP3   OH231285   1.040   4.524  11.524  0.2167 -0.1808  0.3020
 3265TIP3    H131286   1.135   4.531  11.509  0.1737  0.3151  0.2393
 3265TIP3    H231287   1.020   4.597  11.583  0.0294 -0.8642  1.1028
 3266TIP3   OH231288   2.353   4.492   1.047 -0.1905  0.9217  0.2449
 3266TIP3    H131289   2.274   4.482   0.993 -1.0027 -1.2444  1.7209
 3266TIP3    H231290   2.359   4.587   1.063 -1.2928  1.3507 -1.5816
 3267TIP3   OH231291   1.433   3.152   3.928 -0.5217  0.2008  0.4803
 3267TIP3    H131292   1.517   3.179   3.966 -1.0328 -1.0288  2.6031
 3267TIP3    H231293   1.458   3.107   3.847  0.7534  1.0838  0.3478
 3268TIP3   OH231294   5.654   3.193  11.395 -0.1515 -0.3230  0.1937
 3268TIP3    H131295   5.619   3.282  11.384  1.5828  0.3835  0.0748
 3268TIP3    H231296   5.641   3.151  11.310  2.7880  1.2746 -1.2036
 3269TIP3   OH231297   1.583   0.438  11.935 -0.0940  0.4927  0.3981
 3269TIP3    H131298   1.643   0.490  11.881  0.0062 -0.3979 -0.3782
 3269TIP3    H231299   1.552   0.369  11.876  0.1318 -0.6003  1.5250
 3270TIP3   OH231300   1.841   6.457  15.874  0.6317  0.5200 -0.2167
 3270TIP3    H131301   1.849   6.465  15.969  0.7333  3.1282 -0.3610
 3270TIP3    H231302   1.830   6.364  15.858  0.7963 -0.0016  2.3345
 3271TIP3   OH231303   1.231   0.010  14.224 -0.1983  0.4466  0.4086
 3271TIP3    H131304   1.179  -0.057  14.179  0.9282 -0.2431  0.1118
 3271TIP3    H231305   1.198   0.009  14.314 -1.8021  1.1577 -0.1284
 3272TIP3   OH231306   5.884   2.982   5.272  0.6232 -0.2592 -0.3053
 3272TIP3    H131307   5.949   2.955   5.336 -0.8309  1.8757  2.2923
 3272TIP3    H231308   5.930   3.042   5.214  1.2815  0.2433  0.7165
 3273TIP3   OH231309   0.286   4.745  11.093  0.7393  0.1079  0.8064
 3273TIP3    H131310   0.297   4.771  11.185 -0.8552  3.7472  0.1368
 3273TIP3    H231311   0.192   4.747  11.079  0.9846  0.0306 -1.0181
 3274TIP3   OH231312   5.230   4.058  15.107 -0.0880  0.0557  0.2240
 3274TIP3    H131313   5.300   4.026  15.050 -0.6841 -1.0775  0.0883
 3274TIP3    H231314   5.260   4.038  15.196 -0.2120 -0.3868  0.1694
 3275TIP3   OH231315   4.199   4.377  13.419 -0.3808  0.0044  0.4503
 3275TIP3    H131316   4.139   4.412  13.485 -0.3860  0.4686  0.2032
 3275TIP3    H231317   4.256   4.451  13.397 -1.6283  0.4593 -1.4963
 3276TIP3   OH231318   6.539   1.258  17.023 -0.8631  0.1448 -0.3234
 3276TIP3    H131319   6.457   1.308  17.019 -1.1740 -0.1108  1.7762
 3276TIP3    H231320   6.512   1.167  17.035 -0.2591 -0.1660 -1.1820
 3277TIP3   OH231321   4.352   2.839   1.727 -0.5208  0.2418  0.4025
 3277TIP3    H131322   4.311   2.761   1.765 -1.4797  0.4908 -0.0767
 3277TIP3    H231323   4.360   2.818   1.634 -0.9760  0.7888  0.2384
 3278TIP3   OH231324   4.763   6.240  17.111 -0.0120 -0.0189  0.2946
 3278TIP3    H131325   4.759   6.325  17.156  0.5942  0.6546 -0.8632
 3278TIP3    H231326   4.817   6.185  17.167  1.1377  0.9575  0.1769
 3279TIP3   OH231327   3.847   6.111  16.171  0.0912  0.3003  0.0352
 3279TIP3    H131328   3.870   6.145  16.258 -0.1778  0.2439  0.1293
 3279TIP3    H231329   3.766   6.156  16.149  0.9879  1.5486 -0.8953
 3280TIP3   OH231330   6.000   1.833   4.653  0.2819 -0.3256  0.1146
 3280TIP3    H131331   6.040   1.785   4.581  0.5153  0.5099 -0.3219
 3280TIP3    H231332   6.010   1.775   4.729  3.0293  0.1665  0.2042
 3281TIP3   OH231333   3.556   6.450  16.455  0.4597 -0.1166 -0.0052
 3281TIP3    H131334   3.650   6.467  16.460  0.2072  1.0377  1.3015
 3281TIP3    H231335   3.518   6.531  16.421 -0.0925 -0.5479 -0.4491
 3282TIP3   OH231336   2.326   5.901   3.543 -0.4057 -0.2257 -0.1406
 3282TIP3    H131337   2.332   5.918   3.637 -2.1616  2.6770 -0.4420
 3282TIP3    H231338   2.333   5.805   3.536  0.4874 -0.4883  2.8292
 3283TIP3   OH231339   1.489   6.301  14.614  0.0466 -0.6491 -0.2565
 3283TIP3    H131340   1.432   6.350  14.554  1.9936  0.6210 -1.1658
 3283TIP3    H231341   1.561   6.270  14.559  2.4322  1.4023  1.5035
 3284TIP3   OH231342   6.842   2.172   3.177  0.0788 -0.1154  0.0066
 3284TIP3    H131343   6.845   2.267   3.190 -1.7264 -0.1766  1.1400
 3284TIP3    H231344   6.833   2.162   3.082 -0.6865  0.9056 -0.0528
 3285TIP3   OH231345   6.315   1.599   1.520 -0.0064  0.1431  0.0618
 3285TIP3    H131346   6.226   1.565   1.515  0.4052 -0.9732 -0.0514
 3285TIP3    H231347   6.357   1.570   1.439  0.6846 -0.0606  0.4763
 3286TIP3   OH231348   0.111   5.592  11.683 -0.2069 -0.2279 -0.0292
 3286TIP3    H131349   0.073   5.614  11.598  1.8923 -0.2508 -1.0321
 3286TIP3    H231350   0.150   5.505  11.671 -0.3561 -0.4892  1.1509
 3287TIP3   OH231351   5.145   5.236   2.337  0.2664 -1.1139  0.2150
 3287TIP3    H131352   5.237   5.240   2.311  0.2257  0.2342  0.1976
 3287TIP3    H231353   5.147   5.248   2.432  0.1865 -2.5716  0.4221
 3288TIP3   OH231354   2.152   1.194  14.781  0.2247  0.0027  0.2513
 3288TIP3    H131355   2.216   1.169  14.714  2.7043  0.3836  2.3633
 3288TIP3    H231356   2.093   1.254  14.735  0.1943 -1.7661 -2.2503
 3289TIP3   OH231357   3.397   3.286  15.368  0.5146 -0.2461 -0.4583
 3289TIP3    H131358   3.406   3.232  15.447 -0.3936 -2.2084 -1.6260
 3289TIP3    H231359   3.434   3.233  15.298  2.9861  2.1936 -1.1584
 3290TIP3   OH231360   6.402   2.800   1.546  0.9462 -0.1233 -0.3773
 3290TIP3    H131361   6.460   2.837   1.613  1.5463  1.7414 -1.8211
 3290TIP3    H231362   6.409   2.861   1.472 -1.9281 -0.4935 -1.0821
 3291TIP3   OH231363   2.136   3.281   4.571 -0.5549 -0.0687  0.3466
 3291TIP3    H131364   2.073   3.212   4.550  0.1010 -0.7619  0.5858
 3291TIP3    H231365   2.191   3.242   4.639 -1.0573  1.2046  1.5176
 3292TIP3   OH231366   6.473   1.733  12.150  0.0250 -0.4445  0.2780
 3292TIP3    H131367   6.411   1.789  12.103  0.3069 -1.3363 -1.2018
 3292TIP3    H231368   6.559   1.767  12.128  0.1194  0.0295  1.3404
 3293TIP3   OH231369   0.654   4.991   5.566  0.1062 -0.0883  0.1359
 3293TIP3    H131370   0.639   5.001   5.472  1.2172  1.0611  0.0547
 3293TIP3    H231371   0.711   4.914   5.573  1.2875  0.7257 -0.2821
 3294TIP3   OH231372   3.942   3.184   3.675  0.0185  0.0517 -0.1061
 3294TIP3    H131373   3.849   3.203   3.692  0.0024 -0.1627  0.0430
 3294TIP3    H231374   3.988   3.261   3.707 -0.4829  2.9892 -5.2962
 3295TIP3   OH231375   6.133   5.010   3.866  0.1781  0.5135  0.2704
 3295TIP3    H131376   6.174   4.969   3.942 -1.5438 -0.2815  0.8160
 3295TIP3    H231377   6.166   4.959   3.791 -0.1355 -0.4075  0.7368
 3296TIP3   OH231378   3.928   5.041   3.707  0.1007  0.3483  0.0156
 3296TIP3    H131379   3.924   5.043   3.611 -2.8325 -0.8875  0.0062
 3296TIP3    H231380   3.898   4.954   3.731  0.1083  0.8571  2.0885
 3297TIP3   OH231381   4.540   4.979   0.387  0.0701 -0.0129 -0.3740
 3297TIP3    H131382   4.607   4.992   0.454 -0.0729 -1.2344  0.0220
 3297TIP3    H231383   4.484   4.910   0.421 -0.6959  0.1500 -1.2413
 3298TIP3   OH231384   5.823   5.881  12.236 -0.2057  0.4809  0.5479
 3298TIP3    H131385   5.879   5.813  12.274  1.6906  1.2632 -0.7201
 3298TIP3    H231386   5.767   5.835  12.174  1.5504  0.1247 -0.8224
 3299TIP3   OH231387   6.691   2.781  11.364  0.2406 -0.0207  0.4372
 3299TIP3    H131388   6.729   2.777  11.276  0.9779  0.7108  0.7098
 3299TIP3    H231389   6.650   2.695  11.376 -1.1842  0.3811 -1.1844
 3300TIP3   OH231390   0.964   1.306  13.863 -0.4921  0.4200  1.3016
 3300TIP3    H131391   1.043   1.340  13.821 -0.0346 -0.2513  1.6134
 3300TIP3    H231392   0.893   1.331  13.804  0.1614 -0.7487 -0.0208
 3301TIP3   OH231393   1.537   3.628  16.556  0.1445 -0.7352  0.0491
 3301TIP3    H131394   1.548   3.712  16.600 -0.7586  0.0855 -1.2512
 3301TIP3    H231395   1.467   3.585  16.606  1.1790 -1.1100  1.2344
 3302TIP3   OH231396   5.253   5.783  15.802 -0.3009 -0.2887 -0.1117
 3302TIP3    H131397   5.280   5.799  15.893 -1.1793  2.7996 -0.2534
 3302TIP3    H231398   5.334   5.787  15.752 -0.0193 -0.0690  0.3513
 3303TIP3   OH231399   2.758   2.976  14.329  0.4999  0.0443  0.4461
 3303TIP3    H131400   2.738   2.954  14.238  0.8304  0.6903  0.2112
 3303TIP3    H231401   2.805   2.899  14.362 -0.4020 -0.5601  0.3443
 3304TIP3   OH231402   6.545   1.117   4.268 -0.4313  0.0567 -0.3966
 3304TIP3    H131403   6.519   1.207   4.250  1.0015  0.2847 -1.5598
 3304TIP3    H231404   6.632   1.125   4.306 -0.2053 -0.8418 -0.7052
 3305TIP3   OH231405   2.292   4.327   4.832 -0.4638  0.3112 -0.5488
 3305TIP3    H131406   2.322   4.315   4.742  0.1350 -2.7779 -0.0759
 3305TIP3    H231407   2.373   4.332   4.883 -0.7353 -1.0420  0.0608
 3306TIP3   OH231408   2.858   2.026   0.347  0.3358 -0.6811  0.0099
 3306TIP3    H131409   2.791   1.999   0.409  0.1751 -2.8693 -1.0345
 3306TIP3    H231410   2.936   1.975   0.371  0.9088  0.0187 -0.3020
 3307TIP3   OH231411   1.141   3.982   1.682 -0.1001  0.4548  0.2619
 3307TIP3    H131412   1.156   3.888   1.684 -2.1240  0.0716 -0.0996
 3307TIP3    H231413   1.214   4.018   1.633  0.1705 -1.0586 -0.4848
 3308TIP3   OH231414   1.493   1.660  13.747  0.0088  0.4724 -0.3307
 3308TIP3    H131415   1.506   1.569  13.722  1.6738  0.1821  1.3451
 3308TIP3    H231416   1.399   1.671  13.753 -0.2820 -0.6076 -2.3194
 3309TIP3   OH231417   3.321   4.715   0.449 -0.6054 -0.0230 -0.6920
 3309TIP3    H131418   3.227   4.727   0.435 -1.0674  0.1957  2.1105
 3309TIP3    H231419   3.352   4.801   0.479  0.5448 -0.0842 -1.6112
 3310TIP3   OH231420   2.462   4.390  10.459  0.1296  0.1678  0.4483
 3310TIP3    H131421   2.366   4.384  10.460  0.1776 -0.8750  1.7695
 3310TIP3    H231422   2.491   4.300  10.459  1.1009  0.4574  1.5684
 3311TIP3   OH231423   3.724   3.339   0.148  0.1211  0.5158 -0.6902
 3311TIP3    H131424   3.720   3.275   0.219  1.3905  0.0122 -1.0329
 3311TIP3    H231425   3.636   3.340   0.110 -0.2037 -0.2035  0.0302
 3312TIP3   OH231426   5.709   5.561  14.432  0.5358 -0.3322  0.0669
 3312TIP3    H131427   5.746   5.482  14.393  1.3174 -0.7577  1.5931
 3312TIP3    H231428   5.783   5.602  14.477 -0.2670  0.2793  0.8579
 3313TIP3   OH231429   1.328   2.008  15.577  0.4087 -0.6543 -0.1041
 3313TIP3    H131430   1.381   1.967  15.509 -0.0688  0.0379 -0.9101
 3313TIP3    H231431   1.238   1.997  15.548  0.2619  0.7529 -0.2405
 3314TIP3   OH231432   6.055   1.959  12.751  0.0595 -0.3950  0.0550
 3314TIP3    H131433   6.131   1.914  12.788  2.4972  2.2596 -1.2401
 3314TIP3    H231434   6.047   1.924  12.663 -0.0933 -0.5414  0.1277
 3315TIP3   OH231435   4.245   1.493   0.266 -0.9280  0.7654  0.3691
 3315TIP3    H131436   4.157   1.511   0.300 -0.4561  2.6683  0.6776
 3315TIP3    H231437   4.301   1.558   0.309  1.0156 -1.6231  1.7015
 3316TIP3   OH231438   0.724   3.127   0.115 -0.0306 -0.3267 -0.3157
 3316TIP3    H131439   0.643   3.168   0.084  0.6722  1.3946  0.0035
 3316TIP3    H231440   0.747   3.175   0.194  0.1606 -2.2438  0.8410
 3317TIP3   OH231441   5.448   0.134   6.581  0.5588 -0.1339  0.3794
 3317TIP3    H131442   5.467   0.219   6.622  2.1309 -0.0677 -0.4309
 3317TIP3    H231443   5.379   0.096   6.637 -0.7349  1.9697  0.3216
 3318TIP3   OH231444   6.464   2.244  12.690 -0.0013 -0.3793  0.6096
 3318TIP3    H131445   6.555   2.215  12.699 -0.1568 -1.3508 -0.5987
 3318TIP3    H231446   6.425   2.180  12.630 -1.5483 -0.1126  1.2926
 3319TIP3   OH231447   5.713   5.679   5.443  0.4994  0.4432 -0.5346
 3319TIP3    H131448   5.722   5.741   5.516  1.5137 -1.1591  0.7701
 3319TIP3    H231449   5.621   5.686   5.418 -0.1904  0.2378  1.6800
 3320TIP3   OH231450   3.619   0.066  16.638  0.3435 -0.3584  0.1755
 3320TIP3    H131451   3.672   0.146  16.644 -0.3877  0.1622 -0.2044
 3320TIP3    H231452   3.613   0.048  16.545  0.3650 -0.7660  0.2532
 3321TIP3   OH231453   5.886   1.629  14.647  0.0155 -0.4738  0.2978
 3321TIP3    H131454   5.906   1.595  14.735  0.7992  1.0102  0.7327
 3321TIP3    H231455   5.959   1.597  14.593  1.4919  1.4809  0.9917
 3322TIP3   OH231456   5.742   2.261  11.311  0.7497 -0.2304 -0.5769
 3322TIP3    H131457   5.760   2.178  11.356  0.0634 -1.2080 -2.0505
 3322TIP3    H231458   5.826   2.285  11.272  0.6071 -1.0469 -1.4196
 3323TIP3   OH231459   4.133   3.361  15.180 -0.4306  0.9307 -0.0359
 3323TIP3    H131460   4.212   3.404  15.148  0.5447 -2.5047 -2.8250
 3323TIP3    H231461   4.072   3.364  15.105 -0.4933 -1.8640 -0.1942
 3324TIP3   OH231462   4.030   6.649   2.481  0.4303 -0.3065 -0.0958
 3324TIP3    H131463   4.084   6.640   2.559 -0.3433 -0.7875  0.3993
 3324TIP3    H231464   3.987   6.564   2.472 -0.8911  0.3244  0.0235
 3325TIP3   OH231465   1.704   0.370  15.523  0.2229  0.1770  0.3280
 3325TIP3    H131466   1.633   0.370  15.588  0.1903  2.6599  0.3998
 3325TIP3    H231467   1.782   0.394  15.573  1.0119 -1.7490  0.0996
 3326TIP3   OH231468   4.995   3.942   4.839 -0.3589  0.0463  0.3188
 3326TIP3    H131469   4.959   3.997   4.910 -1.6627 -1.1776  0.6418
 3326TIP3    H231470   5.081   3.980   4.822  1.0003 -0.9105  4.0890
 3327TIP3   OH231471   0.495   3.627  16.980  0.3335  0.3230  0.3435
 3327TIP3    H131472   0.481   3.573  16.902 -1.1890 -1.2810  1.6138
 3327TIP3    H231473   0.590   3.631  16.991  0.5443 -0.0572 -1.1404
 3328TIP3   OH231474   4.635   1.221  11.411  0.9302 -0.6557  0.1451
 3328TIP3    H131475   4.622   1.126  11.419 -0.5989 -0.4260  0.8510
 3328TIP3    H231476   4.661   1.249  11.499  1.4883 -0.4365 -0.0907
 3329TIP3   OH231477   5.638   2.253  15.123  0.0872  0.0059 -0.2620
 3329TIP3    H131478   5.660   2.341  15.152  2.5589 -0.5618 -0.2066
 3329TIP3    H231479   5.664   2.250  15.031  0.0307 -0.6673 -0.2635
 3330TIP3   OH231480   5.123   3.565  13.754 -0.6273 -0.0295 -0.0520
 3330TIP3    H131481   5.158   3.614  13.679 -0.4041  0.0682  0.1175
 3330TIP3    H231482   5.041   3.609  13.775 -0.7571 -0.1398 -0.3261
 3331TIP3   OH231483   1.539   0.403   1.486  0.5113  0.1911 -0.1296
 3331TIP3    H131484   1.551   0.498   1.488 -1.3281  0.4729 -0.0829
 3331TIP3    H231485   1.568   0.373   1.572  0.2705  0.8436  0.1832
 3332TIP3   OH231486   2.355   6.427   2.742  0.2943  0.2782 -0.0997
 3332TIP3    H131487   2.273   6.425   2.694 -0.5950 -0.9613  1.3566
 3332TIP3    H231488   2.423   6.437   2.675 -0.9424 -0.2634 -1.4779
 3333TIP3   OH231489   1.105   2.801  14.522 -0.1964  0.3013  0.2552
 3333TIP3    H131490   1.115   2.874  14.583  1.6497 -1.0185  1.6474
 3333TIP3    H231491   1.014   2.773  14.532 -0.0827  0.4802  2.0124
 3334TIP3   OH231492   6.170   6.348   2.282 -0.2930  0.0632  0.1812
 3334TIP3    H131493   6.160   6.270   2.337  1.4368 -0.2650  0.0693
 3334TIP3    H231494   6.100   6.407   2.312 -1.4890 -1.4053  0.4272
 3335TIP3   OH231495   1.220   0.414  17.217 -0.2824 -0.1107  0.3986
 3335TIP3    H131496   1.236   0.422  17.311  2.2842  1.2269 -0.0645
 3335TIP3    H231497   1.154   0.481  17.199 -0.9341 -0.5007  1.2415
 3336TIP3   OH231498   0.572   2.296   3.762  0.0491  0.1734  0.0069
 3336TIP3    H131499   0.618   2.352   3.699 -0.6844  1.9187  0.9652
 3336TIP3    H231500   0.479   2.311   3.744 -0.1586  0.1231  1.0140
 3337TIP3   OH231501   5.921   6.660  13.817  0.5896  0.5758  0.1342
 3337TIP3    H131502   5.947   6.617  13.899 -2.1267  0.5869  1.1152
 3337TIP3    H231503   5.944   6.597  13.749  2.0910  0.1694  0.9852
 3338TIP3   OH231504   6.587   5.360  10.963 -0.1160 -0.3714  0.1074
 3338TIP3    H131505   6.513   5.392  10.911 -0.1128  0.8715  0.8191
 3338TIP3    H231506   6.655   5.340  10.899 -0.3533  0.4665 -0.4195
 3339TIP3   OH231507   2.478   6.212  10.514 -0.3785 -0.7556 -0.3792
 3339TIP3    H131508   2.474   6.117  10.502  2.7227 -1.5397  3.0232
 3339TIP3    H231509   2.424   6.228  10.592  0.3178 -0.0169 -0.0305
 3340TIP3   OH231510   0.745   6.478  16.964 -0.4965  0.3442  0.0591
 3340TIP3    H131511   0.831   6.443  16.986 -1.0548 -2.0358 -1.2799
 3340TIP3    H231512   0.691   6.458  17.040 -0.8024 -1.8342 -0.6746
 3341TIP3   OH231513   0.460   6.152  10.428 -0.4031 -0.0046  0.4389
 3341TIP3    H131514   0.377   6.123  10.390  0.0662 -0.6240 -0.1409
 3341TIP3    H231515   0.514   6.073  10.431  1.7464  1.0289 -3.3137
 3342TIP3   OH231516   1.396   6.697   1.728  0.5964  0.3536 -0.3623
 3342TIP3    H131517   1.363   6.619   1.773 -0.5945  1.1291  0.1492
 3342TIP3    H231518   1.319   6.734   1.684  1.5605  0.0685 -2.4082
 3343TIP3   OH231519   6.028   0.220  13.456  0.0946  0.1330  0.0286
 3343TIP3    H131520   5.979   0.140  13.477 -0.3202  0.7034  1.3863
 3343TIP3    H231521   6.095   0.192  13.394 -1.8480 -0.7110 -1.8246
 3344TIP3   OH231522   6.181   2.303   2.536  0.0749 -0.2704 -0.0181
 3344TIP3    H131523   6.145   2.220   2.568 -2.0759  0.9214  0.8935
 3344TIP3    H231524   6.218   2.281   2.450 -2.1843 -1.8158 -0.6963
 3345TIP3   OH231525   3.168   2.103   0.200 -0.3524 -0.0541  0.0232
 3345TIP3    H131526   3.149   2.032   0.261  0.3463  0.5558  0.9824
 3345TIP3    H231527   3.093   2.162   0.208  0.0800  0.4040  0.8888
 3346TIP3   OH231528   0.342   6.757  15.974  0.4922  0.1361  0.2102
 3346TIP3    H131529   0.292   6.838  15.987 -0.9631 -0.8559  1.1049
 3346TIP3    H231530   0.364   6.756  15.881  0.9374  1.7707  0.2714
 3347TIP3   OH231531   6.642   6.149  16.213  0.5833 -0.6455 -0.3879
 3347TIP3    H131532   6.686   6.222  16.255 -0.6681  0.1796 -0.4767
 3347TIP3    H231533   6.599   6.101  16.284 -0.0647 -0.2631 -0.5111
 3348TIP3   OH231534   3.597   4.934   2.893  0.3035  0.6486  0.2444
 3348TIP3    H131535   3.572   4.846   2.922 -1.1021  0.0012 -2.5563
 3348TIP3    H231536   3.514   4.982   2.888  0.7585  1.3837 -0.5774
 3349TIP3   OH231537   2.228   5.726  16.975  0.2269  0.4389  0.5828
 3349TIP3    H131538   2.257   5.796  17.033  0.0037  0.7018  0.3802
 3349TIP3    H231539   2.300   5.663  16.976  0.9556  1.2292 -0.1544
 3350TIP3   OH231540   2.047   1.050  16.374 -0.2339  0.1217 -0.0066
 3350TIP3    H131541   2.059   1.084  16.286 -0.4979 -1.1434 -0.5565
 3350TIP3    H231542   1.964   1.088  16.404 -1.7172 -1.7509 -1.4953
 3351TIP3   OH231543   4.459   3.751  13.239 -0.0028  0.0018  0.5536
 3351TIP3    H131544   4.489   3.752  13.149  1.2292  0.6787  0.9501
 3351TIP3    H231545   4.473   3.840  13.270 -0.9006 -0.0907  1.2620
 3352TIP3   OH231546   1.092   4.824  11.916 -0.5345 -0.4552 -0.3241
 3352TIP3    H131547   1.083   4.810  11.822 -0.8031 -1.1167 -0.2057
 3352TIP3    H231548   1.048   4.749  11.956 -3.6514  1.5635  0.3906
 3353TIP3   OH231549   0.482   4.762  11.657 -0.3170  0.0050  0.1874
 3353TIP3    H131550   0.566   4.727  11.626 -0.1689  0.3701  0.1820
 3353TIP3    H231551   0.437   4.686  11.695  0.2905 -0.0519  0.7988
 3354TIP3   OH231552   0.006   0.853   4.528  0.4033 -0.3534 -0.0016
 3354TIP3    H131553  -0.063   0.866   4.593 -1.3734  0.2200 -1.8805
 3354TIP3    H231554  -0.002   0.760   4.503 -0.7533  0.0535 -1.2756
 3355TIP3   OH231555   2.934   6.045   5.163  0.1251  0.5800  0.1690
 3355TIP3    H131556   2.999   6.046   5.093 -0.1337  1.2642 -0.0682
 3355TIP3    H231557   2.932   5.954   5.193  1.0085  0.4980  0.0084
 3356TIP3   OH231558   1.590   3.525   5.475  0.0117 -0.3939  0.3354
 3356TIP3    H131559   1.547   3.611   5.471  1.4271  0.4361  1.6828
 3356TIP3    H231560   1.634   3.517   5.390 -1.4652 -0.5656 -0.4522
 3357TIP3   OH231561   2.724   5.368   4.323 -0.3359 -0.2430 -0.3967
 3357TIP3    H131562   2.727   5.463   4.334  0.5641 -0.3149  0.1638
 3357TIP3    H231563   2.711   5.355   4.229  2.1389  0.4510 -0.9123
 3358TIP3   OH231564   0.275   2.333  12.354  0.2943  0.5219 -0.3730
 3358TIP3    H131565   0.353   2.284  12.327  0.1836 -0.0230  0.2782
 3358TIP3    H231566   0.301   2.376  12.435 -0.4330 -0.6285  0.5086
 3359TIP3   OH231567   3.006   3.069   0.665 -0.4311 -0.6786 -0.4181
 3359TIP3    H131568   2.957   3.151   0.663  2.5000  1.2672 -2.9339
 3359TIP3    H231569   3.055   3.072   0.747 -0.0532  0.3323 -0.6700
 3360TIP3   OH231570   5.433   0.655  11.425 -0.2880 -0.3024  0.2461
 3360TIP3    H131571   5.381   0.735  11.417  0.6572  0.2117 -1.2092
 3360TIP3    H231572   5.400   0.612  11.504 -2.3192  0.4247 -0.1500
 3361TIP3   OH231573   5.746   3.893   1.967 -0.1933 -0.0289  0.4416
 3361TIP3    H131574   5.698   3.912   1.887 -2.6542 -0.1715  1.8034
 3361TIP3    H231575   5.686   3.916   2.038  1.7231 -0.3205  2.2686
 3362TIP3   OH231576   2.612   1.747  16.660  0.1267  0.3296 -0.3603
 3362TIP3    H131577   2.702   1.779  16.652 -0.7695  3.5121  0.9945
 3362TIP3    H231578   2.622   1.655  16.686  3.1158  1.4119  3.2269
 3363TIP3   OH231579   1.553   0.570  17.134 -0.2739 -0.0618 -0.1569
 3363TIP3    H131580   1.637   0.526  17.144  0.7158  1.2048 -2.1844
 3363TIP3    H231581   1.576   0.659  17.106 -2.2793  0.3874 -0.5324
 3364TIP3   OH231582   4.862   3.813  15.536  0.7625  0.0403 -0.1040
 3364TIP3    H131583   4.786   3.761  15.558  1.4187 -0.8820  0.0367
 3364TIP3    H231584   4.937   3.761  15.566  1.4415  0.9991 -0.0741
 3365TIP3   OH231585   2.255   0.213   1.490  0.2310 -0.5122 -0.3684
 3365TIP3    H131586   2.244   0.148   1.421 -0.9053 -0.3610 -0.3512
 3365TIP3    H231587   2.166   0.242   1.510  0.3999 -1.3310  1.9197
 3366TIP3   OH231588   1.658   2.506  13.021  0.4740  0.1827  0.0023
 3366TIP3    H131589   1.641   2.564  12.946  0.8754  1.4244  0.8415
 3366TIP3    H231590   1.686   2.423  12.982  4.2041  1.8303 -1.2758
 3367TIP3   OH231591   2.235   1.566  16.298 -0.2072  0.2315 -0.0759
 3367TIP3    H131592   2.157   1.565  16.353 -1.3647 -1.1291 -1.6429
 3367TIP3    H231593   2.308   1.577  16.359 -1.5025 -0.2491  1.6158
 3368TIP3   OH231594   0.190   2.810   6.469  0.2503 -0.2161  0.2670
 3368TIP3    H131595   0.250   2.837   6.400 -0.1746 -0.2976 -0.1420
 3368TIP3    H231596   0.111   2.861   6.454  0.4779  0.4513  1.2615
 3369TIP3   OH231597   0.061   5.163  12.040 -0.2930  0.3055 -0.0051
 3369TIP3    H131598   0.024   5.077  12.021  1.0849 -0.3446  0.1968
 3369TIP3    H231599   0.042   5.215  11.961  0.8529 -0.8486 -1.0688
 3370TIP3   OH231600   6.319   4.297  15.435 -0.4814 -1.1516 -0.2010
 3370TIP3    H131601   6.373   4.360  15.387  0.5002 -2.0135 -0.2646
 3370TIP3    H231602   6.235   4.340  15.445 -0.6767 -0.8451 -2.5492
 3371TIP3   OH231603   3.749   3.914   2.717  0.5249  0.3633  0.1042
 3371TIP3    H131604   3.798   3.982   2.671 -0.1041  0.8107  0.0808
 3371TIP3    H231605   3.733   3.951   2.804  0.3538  0.1650  0.1581
 3372TIP3   OH231606   2.940   2.963   3.209 -0.3784 -0.0409 -0.0473
 3372TIP3    H131607   2.946   2.959   3.114 -0.7839  0.9295 -0.1234
 3372TIP3    H231608   2.846   2.969   3.227 -0.2299  1.6672  0.3049
 3373TIP3   OH231609   3.103   2.247  10.808 -0.0534 -0.2428  0.3263
 3373TIP3    H131610   3.133   2.290  10.728 -0.1546  1.2488  1.0502
 3373TIP3    H231611   3.172   2.184  10.830  1.3995  1.3709  0.6082
 3374TIP3   OH231612   5.561   6.244  12.082 -0.5650 -0.6379 -0.0565
 3374TIP3    H131613   5.599   6.187  12.149  0.7050 -0.1365 -0.3240
 3374TIP3    H231614   5.608   6.326  12.090 -0.9714 -0.2938 -1.0178
 3375TIP3   OH231615   3.478   5.361   3.170 -0.1859 -0.8379 -0.4431
 3375TIP3    H131616   3.421   5.348   3.245  0.8947 -1.1253  0.3630
 3375TIP3    H231617   3.433   5.425   3.115  1.0137  3.1698  2.7343
 3376TIP3   OH231618   0.055   5.838  11.981 -0.1907 -0.1438 -0.5488
 3376TIP3    H131619   0.082   5.904  12.045  0.0074  0.4761 -1.2597
 3376TIP3    H231620   0.135   5.819  11.932 -0.9936  1.9664 -2.9210
 3377TIP3   OH231621   2.727   1.658  13.372  0.9427  0.0561  0.7118
 3377TIP3    H131622   2.805   1.606  13.390  1.3414  0.5855  0.5591
 3377TIP3    H231623   2.692   1.681  13.458  0.5661 -0.7511  0.7771
 3378TIP3   OH231624   4.010   0.623  15.883  0.5132 -0.3292 -0.3914
 3378TIP3    H131625   3.997   0.603  15.790  0.0650 -1.4000 -0.1119
 3378TIP3    H231626   4.015   0.538  15.925  0.0464  0.1549  0.6682
 3379TIP3   OH231627   1.461   4.695   1.385  0.2600 -0.0596 -0.3598
 3379TIP3    H131628   1.501   4.629   1.442 -0.0324 -0.6491 -0.8323
 3379TIP3    H231629   1.407   4.747   1.445 -0.0419 -0.6697 -0.0865
 3380TIP3   OH231630   1.452   1.532  13.481 -0.9429 -0.2077  0.6625
 3380TIP3    H131631   1.424   1.441  13.486  1.7814 -1.3646 -1.9642
 3380TIP3    H231632   1.547   1.528  13.486 -0.7035  2.4369 -0.1974
 3381TIP3   OH231633   6.668   0.209   5.379 -0.4062 -0.0954  0.0897
 3381TIP3    H131634   6.719   0.239   5.303  0.8851  1.1184  1.3751
 3381TIP3    H231635   6.644   0.290   5.425 -1.6152 -0.7844  0.7223
 3382TIP3   OH231636   3.749   5.800  13.890 -0.1457 -0.0343  0.0473
 3382TIP3    H131637   3.683   5.863  13.865  0.9342  0.9365 -0.4354
 3382TIP3    H231638   3.783   5.833  13.973  1.4129  0.8607 -0.8954
 3383TIP3   OH231639   4.925   2.700   3.000  0.5691  0.7689  0.1799
 3383TIP3    H131640   4.864   2.773   2.995  0.2185  0.5543  1.1844
 3383TIP3    H231641   4.916   2.656   2.915 -0.2671  1.0611  0.1076
 3384TIP3   OH231642   3.097   3.547  11.447  0.1199  0.4202 -0.0189
 3384TIP3    H131643   3.057   3.582  11.367 -2.6643  0.9620  1.4698
 3384TIP3    H231644   3.143   3.468  11.418 -1.9985 -0.2234 -2.0138
 3385TIP3   OH231645   4.803   0.012   2.091  0.3142 -0.2908 -0.0491
 3385TIP3    H131646   4.836   0.089   2.137  0.5434 -1.3268  1.6116
 3385TIP3    H231647   4.873  -0.012   2.031  0.9058 -0.1270  0.5607
 3386TIP3   OH231648   0.376   4.961   2.207  0.4392 -0.6552 -0.4080
 3386TIP3    H131649   0.344   4.871   2.206  1.0192 -0.8702 -0.0678
 3386TIP3    H231650   0.317   5.008   2.149 -1.5393 -0.6639  1.4791
 3387TIP3   OH231651   3.255   4.376   0.821 -0.5772 -0.6418  0.1228
 3387TIP3    H131652   3.350   4.371   0.835 -0.8148 -1.6396  1.5397
 3387TIP3    H231653   3.239   4.468   0.801  0.9990 -0.8562 -2.7563
 3388TIP3   OH231654   1.368   0.919  10.632  0.0830 -0.1699  0.0703
 3388TIP3    H131655   1.414   0.931  10.549 -1.4884  0.8794 -0.7155
 3388TIP3    H231656   1.281   0.957  10.617 -0.9417 -1.7534  1.5715
 3389TIP3   OH231657   0.347   0.235  13.255 -0.2644 -0.5534  0.4550
 3389TIP3    H131658   0.371   0.158  13.307  1.3987 -0.2871  0.1360
 3389TIP3    H231659   0.285   0.201  13.191  0.5635 -1.6989  0.2085
 3390TIP3   OH231660   2.060   0.760   2.767 -0.5801 -0.6566  0.0184
 3390TIP3    H131661   2.146   0.780   2.805  1.3520 -1.1916 -3.6887
 3390TIP3    H231662   2.047   0.827   2.700 -3.5206 -0.1227  0.9845
 3391TIP3   OH231663   1.615   3.353  15.222 -0.1364 -0.2227  0.3107
 3391TIP3    H131664   1.700   3.375  15.259  0.6286 -0.1151 -1.4429
 3391TIP3    H231665   1.568   3.436  15.219  1.3722  0.6372 -2.8124
 3392TIP3   OH231666   5.061   6.253  15.483  0.3161  0.2223  0.3045
 3392TIP3    H131667   5.133   6.288  15.430  0.2983 -1.0743 -0.6561
 3392TIP3    H231668   5.103   6.225  15.564  1.1011 -1.2760 -0.5674
 3393TIP3   OH231669   6.807   1.340  11.942  0.2137 -0.8120 -0.1656
 3393TIP3    H131670   6.753   1.264  11.917 -1.5736 -0.0038  1.0108
 3393TIP3    H231671   6.897   1.307  11.942 -0.1793 -2.1207 -2.6235
 3394TIP3   OH231672   6.502   3.990   6.419  0.1825 -0.2181  0.5099
 3394TIP3    H131673   6.445   3.957   6.489  0.6841 -0.8535  0.6272
 3394TIP3    H231674   6.529   4.077   6.450  1.1546 -0.8649  1.5737
 3395TIP3   OH231675   4.226   0.071  13.340 -0.1186  0.6689  0.7943
 3395TIP3    H131676   4.222   0.099  13.249 -0.2256  0.9331  0.8799
 3395TIP3    H231677   4.217   0.152  13.391  0.8875  0.6382  1.0328
 3396TIP3   OH231678   5.963   0.807   3.049  0.9352  0.4324  0.3595
 3396TIP3    H131679   6.040   0.833   3.101  0.3430  0.8503  1.0511
 3396TIP3    H231680   5.987   0.829   2.959  0.6542  3.0648  0.8381
 3397TIP3   OH231681   1.480   6.448   0.778  0.9071  0.0796 -0.2347
 3397TIP3    H131682   1.441   6.484   0.858 -1.7358  0.1095 -1.4418
 3397TIP3    H231683   1.564   6.412   0.807  0.0884  0.1436  2.5350
 3398TIP3   OH231684   4.562   1.827   0.571 -0.0772  0.4138 -0.3054
 3398TIP3    H131685   4.547   1.918   0.599 -0.2221  0.6864 -1.2305
 3398TIP3    H231686   4.621   1.835   0.496 -0.5794 -0.2134 -0.7755
 3399TIP3   OH231687   3.422   4.592   4.071  0.3222  0.0626  0.3476
 3399TIP3    H131688   3.513   4.585   4.100  0.8213  0.4014 -1.0281
 3399TIP3    H231689   3.374   4.621   4.148  1.5039  0.5794  0.9164
 3400TIP3   OH231690   4.497   1.736  13.314  0.1897 -0.1065  0.0064
 3400TIP3    H131691   4.407   1.736  13.281  1.4667  1.6158 -4.1395
 3400TIP3    H231692   4.489   1.763  13.406 -3.5462 -1.6177  0.3120
 3401TIP3   OH231693   5.848   3.765   0.210  0.2222 -0.0244 -0.5318
 3401TIP3    H131694   5.793   3.768   0.133 -0.8675  2.6663  0.2604
 3401TIP3    H231695   5.934   3.739   0.177 -0.5011 -0.1672 -2.4206
 3402TIP3   OH231696   6.021   0.261  14.446 -0.4301  0.5244 -0.2632
 3402TIP3    H131697   5.958   0.229  14.511  0.5380 -0.2414  0.3101
 3402TIP3    H231698   5.999   0.212  14.366  0.3098 -0.7650  0.3055
 3403TIP3   OH231699   6.073   2.053   1.071  0.3842  0.6414  0.4087
 3403TIP3    H131700   6.018   1.991   1.119  2.8164 -0.4686  1.9490
 3403TIP3    H231701   6.135   1.997   1.023  1.7920  1.8231  0.7813
 3404TIP3   OH231702   2.917   2.925   2.932  0.2167  0.6379  0.0238
 3404TIP3    H131703   2.975   2.862   2.889  0.6041  1.3630 -0.5534
 3404TIP3    H231704   2.935   3.008   2.887 -3.1315  0.4596 -2.0343
 3405TIP3   OH231705   2.369   0.710  11.718  0.7586 -0.2629 -0.6650
 3405TIP3    H131706   2.335   0.620  11.718  1.8585 -0.6903  0.1465
 3405TIP3    H231707   2.329   0.750  11.640 -0.1151 -1.2976 -0.7774
 3406TIP3   OH231708   5.880   2.879   3.285 -0.2630  0.1773 -0.2884
 3406TIP3    H131709   5.890   2.942   3.214 -0.1203 -0.0427 -0.4642
 3406TIP3    H231710   5.893   2.794   3.244 -2.1131 -0.0966 -0.3977
 3407TIP3   OH231711   0.002   6.062   5.070  0.0809  0.0832 -0.0317
 3407TIP3    H131712  -0.062   6.057   5.140  0.7871 -0.7028  0.5782
 3407TIP3    H231713  -0.036   6.012   4.998 -0.4954  0.6126 -0.1065
 3408TIP3   OH231714   6.634   5.345  14.561 -0.0664 -0.1731 -0.3608
 3408TIP3    H131715   6.716   5.348  14.512  0.9625 -0.1649  1.3023
 3408TIP3    H231716   6.575   5.403  14.512  1.5708  1.5020 -0.4653
 3409TIP3   OH231717   3.435   5.855   3.346 -0.2681 -0.3169 -0.2505
 3409TIP3    H131718   3.362   5.796   3.329 -1.7103  1.5890 -1.1356
 3409TIP3    H231719   3.403   5.913   3.415  0.4267  0.5074 -0.6028
 3410TIP3   OH231720   4.546   3.571   3.897  0.2483  0.1631  0.3452
 3410TIP3    H131721   4.463   3.536   3.930  1.0535 -1.7990  0.3748
 3410TIP3    H231722   4.612   3.539   3.959  1.2968 -0.1942 -0.9328
 3411TIP3   OH231723   0.973   4.862  15.928  0.1591  0.5583  0.8176
 3411TIP3    H131724   0.889   4.909  15.928  0.1222  0.4936  0.6752
 3411TIP3    H231725   1.031   4.916  15.875  0.0730  0.3661  0.5282
 3412TIP3   OH231726   1.011   6.059   3.949 -0.1819 -0.0646 -0.2364
 3412TIP3    H131727   0.949   5.991   3.974  1.5406 -1.8134 -0.4705
 3412TIP3    H231728   1.089   6.042   4.001  1.3860 -0.1700 -2.4448
 3413TIP3   OH231729   2.590   2.608  11.213 -0.2396 -0.3530  0.1328
 3413TIP3    H131730   2.548   2.686  11.176 -0.6804  0.2371  1.7885
 3413TIP3    H231731   2.518   2.549  11.234 -0.0004 -0.6537  0.1195
 3414TIP3   OH231732   5.550   0.270   2.779 -0.5824  0.2652  0.2994
 3414TIP3    H131733   5.567   0.324   2.856  1.3634  1.1007 -0.6397
 3414TIP3    H231734   5.469   0.224   2.799  0.8070 -0.9928  3.6293
 3415TIP3   OH231735   2.477   6.806   1.100  0.5644  0.2146  0.3790
 3415TIP3    H131736   2.410   6.873   1.100 -0.6072 -0.9142 -0.3045
 3415TIP3    H231737   2.559   6.853   1.118 -0.1532  1.8723 -0.5287
 3416TIP3   OH231738   3.296   3.455   5.043  0.3361  0.0119 -0.0157
 3416TIP3    H131739   3.345   3.535   5.026  0.2956 -0.1941 -1.1929
 3416TIP3    H231740   3.262   3.429   4.957  1.2882 -1.8727  0.1327
 3417TIP3   OH231741   3.034   2.374  12.394 -0.3573  0.0513  0.4852
 3417TIP3    H131742   2.944   2.407  12.398 -0.6235 -0.0503 -2.2957
 3417TIP3    H231743   3.028   2.283  12.422 -0.9140  0.3307  1.3172
 3418TIP3   OH231744   5.400   1.255   2.830 -0.0517  0.3485  0.5870
 3418TIP3    H131745   5.375   1.190   2.765 -1.1326  2.0835 -0.8430
 3418TIP3    H231746   5.496   1.249   2.834 -0.1099 -1.1195  0.3184
 3419TIP3   OH231747   5.156   3.469  14.458 -0.5732 -0.6163 -0.7095
 3419TIP3    H131748   5.215   3.516  14.517 -1.2219  1.3674 -1.5725
 3419TIP3    H231749   5.195   3.382  14.450  1.9481  0.4398 -0.8068
 3420TIP3   OH231750   2.738   1.989  12.917 -0.1080  0.4294 -0.7443
 3420TIP3    H131751   2.687   1.998  12.997 -0.8358  0.0378 -1.1468
 3420TIP3    H231752   2.777   1.902  12.922 -1.0443 -0.0427 -1.2935
 3421TIP3   OH231753   3.058   1.117  15.316 -0.2945 -0.3930 -0.0846
 3421TIP3    H131754   3.131   1.121  15.377 -0.3611  0.7533 -0.0557
 3421TIP3    H231755   3.095   1.146  15.233 -0.5505 -0.5279 -0.2480
 3422TIP3   OH231756   3.339   3.187  17.196  0.5328  0.4983  0.8061
 3422TIP3    H131757   3.395   3.256  17.230 -0.4693  0.9929  1.5075
 3422TIP3    H231758   3.255   3.201  17.240 -0.2903  0.0855 -0.5819
 3423TIP3   OH231759   5.130   2.590  12.594  0.1744  0.6335 -0.3782
 3423TIP3    H131760   5.039   2.619  12.579  0.2416  0.1740 -1.8311
 3423TIP3    H231761   5.125   2.495  12.596  0.4569  0.6372  0.8204
 3424TIP3   OH231762   1.951   4.761   5.469  0.1002  0.4510 -0.1939
 3424TIP3    H131763   1.864   4.726   5.450 -1.1865  3.0488  0.4981
 3424TIP3    H231764   1.993   4.769   5.384  0.0287 -1.5738 -0.4693
 3425TIP3   OH231765   5.251   4.966   4.454  0.1948  0.2626  0.3154
 3425TIP3    H131766   5.258   5.060   4.436  1.3027  0.3174  0.9603
 3425TIP3    H231767   5.223   4.928   4.370  0.3311  1.0925 -0.1199
 3426TIP3   OH231768   2.274   5.512   3.840 -0.1933 -0.7486  0.0601
 3426TIP3    H131769   2.213   5.543   3.908 -0.1874 -2.0776  0.7068
 3426TIP3    H231770   2.337   5.584   3.831 -0.8022 -0.1046  0.6941
 3427TIP3   OH231771   4.590   5.736   1.455 -0.0656  0.0181 -0.3674
 3427TIP3    H131772   4.568   5.717   1.364 -2.2396  1.9324 -0.3379
 3427TIP3    H231773   4.510   5.774   1.491  0.7989 -0.5220  2.3117
 3428TIP3   OH231774   0.566   1.711  16.540 -0.4998  0.6871  0.1071
 3428TIP3    H131775   0.496   1.775  16.554 -0.3225  0.3084  3.5733
 3428TIP3    H231776   0.638   1.741  16.597  0.7832 -0.8863 -0.5965
 3429TIP3   OH231777   4.826   0.811   5.619  0.0959 -0.0579 -0.8294
 3429TIP3    H131778   4.804   0.773   5.534 -0.0799  0.4576 -1.0196
 3429TIP3    H231779   4.801   0.904   5.611 -0.0361 -0.0330 -0.1761
 3430TIP3   OH231780   5.031   2.575   6.186  0.4489 -0.4839  0.0112
 3430TIP3    H131781   5.107   2.586   6.243  0.9371  0.2301 -0.7578
 3430TIP3    H231782   5.062   2.520   6.115  0.6343  0.8264 -0.9604
 3431TIP3   OH231783   3.419   4.221  14.194  0.2916  0.0361  0.4169
 3431TIP3    H131784   3.371   4.279  14.253 -2.5362  1.1341 -2.6496
 3431TIP3    H231785   3.351   4.179  14.141  2.5815 -1.5686 -1.4693
 3432TIP3   OH231786   1.782   5.024  13.981 -0.6661 -0.3520 -0.0385
 3432TIP3    H131787   1.815   4.935  13.994 -0.6793 -0.0278  2.7031
 3432TIP3    H231788   1.858   5.074  13.951 -0.0479 -0.7928  0.7657
 3433TIP3   OH231789   5.393   5.420  12.222  0.2968  0.1479 -0.3876
 3433TIP3    H131790   5.364   5.426  12.131  3.5896 -0.0904 -1.5821
 3433TIP3    H231791   5.417   5.509  12.246  1.5548 -0.1377 -0.5517
 3434TIP3   OH231792   0.433   5.298  15.585  0.1228 -0.2591  0.6037
 3434TIP3    H131793   0.418   5.299  15.491  0.9142 -1.6790  0.4303
 3434TIP3    H231794   0.353   5.258  15.621  0.1511 -0.4461  0.4606
 3435TIP3   OH231795   5.314   6.344   0.092 -0.2500  0.2016 -0.0596
 3435TIP3    H131796   5.287   6.253   0.085  0.7155 -0.0583 -0.5914
 3435TIP3    H231797   5.252   6.392   0.036  0.3745 -0.3910 -1.3016
 3436TIP3   OH231798   4.943   0.538  15.028  0.0855  0.3532 -0.5425
 3436TIP3    H131799   4.984   0.565  15.110  0.8172  0.5507 -0.9634
 3436TIP3    H231800   4.910   0.620  14.989 -1.1137  0.1423  0.0009
 3437TIP3   OH231801   1.601   3.466  11.960  0.4759  0.1975 -0.8575
 3437TIP3    H131802   1.542   3.463  12.036  2.3338  2.0316  0.7689
 3437TIP3    H231803   1.616   3.374  11.938 -0.1337 -0.3964  1.0120
 3438TIP3   OH231804   4.534   2.725   2.015 -0.0130  0.7626 -0.3750
 3438TIP3    H131805   4.440   2.728   1.996 -0.1548 -0.0348  0.1350
 3438TIP3    H231806   4.539   2.687   2.103  0.7667  1.3244 -0.1655
 3439TIP3   OH231807   1.715   4.427  15.398 -0.8599 -0.0535  0.0398
 3439TIP3    H131808   1.809   4.442  15.388 -1.0952  0.6537 -1.2557
 3439TIP3    H231809   1.679   4.513  15.420 -1.1897 -0.3631  0.7342
 3440TIP3   OH231810   3.365   6.719  11.991  0.3704 -0.3361  0.1358
 3440TIP3    H131811   3.364   6.719  11.895  0.6433 -1.6491  0.1117
 3440TIP3    H231812   3.436   6.779  12.014  0.3958 -0.1214 -0.4849
 3441TIP3   OH231813   3.936   1.745  16.342 -0.2435  0.4797  0.4695
 3441TIP3    H131814   4.025   1.715  16.327 -1.0643 -0.9506 -1.9719
 3441TIP3    H231815   3.942   1.841  16.341  1.1646  0.3971 -0.2442
 3442TIP3   OH231816   2.112   2.062  13.407  0.1260  0.0691 -0.1723
 3442TIP3    H131817   2.070   2.148  13.416  0.2682  0.4557 -2.5107
 3442TIP3    H231818   2.042   1.999  13.422 -0.3289  0.6241  0.0966
 3443TIP3   OH231819   4.440   1.022  16.733  0.9439  0.5764  0.7950
 3443TIP3    H131820   4.360   1.003  16.783  0.2787  2.3930  0.5057
 3443TIP3    H231821   4.511   0.999  16.793  0.3087 -2.3573  0.5912
 3444TIP3   OH231822   4.655   5.971  16.565  0.3248 -0.0881  0.0891
 3444TIP3    H131823   4.694   5.926  16.640  3.6558 -1.7296 -2.3736
 3444TIP3    H231824   4.676   6.063  16.578  1.0543 -0.3768  1.0293
 3445TIP3   OH231825   5.552   1.379   2.154 -0.2036 -0.0289  0.0878
 3445TIP3    H131826   5.510   1.463   2.137 -1.7330 -0.6215  0.7493
 3445TIP3    H231827   5.497   1.338   2.220  1.3267 -0.9533  0.8516
 3446TIP3   OH231828   0.134   4.417  16.336 -0.4667  0.5131 -0.0828
 3446TIP3    H131829   0.050   4.452  16.304 -0.5059  0.5888  0.1032
 3446TIP3    H231830   0.200   4.462  16.282 -0.5574  0.2584 -0.4083
 3447TIP3   OH231831   1.047   3.396  11.400  0.0223  0.5200  0.2159
 3447TIP3    H131832   1.041   3.301  11.388  0.0494  0.2742  1.8122
 3447TIP3    H231833   1.042   3.432  11.312  3.8772 -1.1283 -0.9403
 3448TIP3   OH231834   1.612   4.358   2.678  0.0111  0.2417 -0.7003
 3448TIP3    H131835   1.523   4.359   2.645 -0.0005  0.0001 -0.6724
 3448TIP3    H231836   1.609   4.305   2.758  0.0521  0.7624 -0.3403
 3449TIP3   OH231837   4.402   2.959  15.023 -0.3792  0.7693 -0.1066
 3449TIP3    H131838   4.443   3.027  14.969 -1.2852  0.4607 -1.2285
 3449TIP3    H231839   4.310   2.960  14.997 -0.6552 -0.0490  0.7664
 3450TIP3   OH231840   4.405   3.184  13.053 -0.1277 -0.3348  0.1493
 3450TIP3    H131841   4.399   3.196  12.958  1.5613 -0.9096 -0.0699
 3450TIP3    H231842   4.476   3.120  13.065  0.5755  0.6666  1.8322
 3451TIP3   OH231843   6.815   2.603  11.630  0.1821  0.0162 -0.2895
 3451TIP3    H131844   6.746   2.619  11.694  0.1421 -0.0950 -0.3050
 3451TIP3    H231845   6.788   2.523  11.585  0.0531  0.2584 -0.6525
 3452TIP3   OH231846   2.299   2.995   3.698 -0.0498 -0.0137 -0.4661
 3452TIP3    H131847   2.218   2.981   3.747  0.1163  1.2695  0.2189
 3452TIP3    H231848   2.330   2.906   3.678 -1.9702 -0.5361 -1.3809
 3453TIP3   OH231849   6.510   3.575  12.495 -0.1810  0.6146 -0.1796
 3453TIP3    H131850   6.532   3.597  12.405 -1.8084 -1.5734 -1.2159
 3453TIP3    H231851   6.589   3.537  12.531 -0.0437 -0.2479 -1.3394
 3454TIP3   OH231852   5.247   2.963  10.899  0.3289  0.0628 -0.2172
 3454TIP3    H131853   5.204   2.895  10.847  0.9689  0.7620 -1.7224
 3454TIP3    H231854   5.325   2.987  10.848  2.2054 -0.7222  2.1260
 3455TIP3   OH231855   5.848   0.858   3.547 -0.0250  0.2425 -0.2581
 3455TIP3    H131856   5.876   0.766   3.549  0.6294  0.3717 -1.8434
 3455TIP3    H231857   5.782   0.865   3.616 -0.6141 -1.6041 -0.5874
 3456TIP3   OH231858   4.902   5.241   2.782 -0.1159 -0.0251  0.2441
 3456TIP3    H131859   4.895   5.152   2.747  1.6950 -0.6739  1.4395
 3456TIP3    H231860   4.835   5.290   2.733  0.6966 -1.3794 -2.4545
 3457TIP3   OH231861   5.329   5.968   5.157 -0.2112 -0.1933 -0.5992
 3457TIP3    H131862   5.359   6.023   5.229  0.4145  1.1038 -1.8142
 3457TIP3    H231863   5.397   5.901   5.149 -1.0103 -1.2533  0.9255
 3458TIP3   OH231864   0.024   6.276  15.118 -0.5635  0.0602 -0.4781
 3458TIP3    H131865   0.107   6.283  15.071 -1.1780  0.3365 -1.5675
 3458TIP3    H231866   0.001   6.367  15.139 -0.4622 -0.0368  0.0713
 3459TIP3   OH231867   2.255   5.691   0.928  0.0320 -0.2688 -0.2928
 3459TIP3    H131868   2.190   5.660   0.866 -0.8786 -1.1179  1.0434
 3459TIP3    H231869   2.321   5.622   0.932  0.2091 -0.1127 -0.4750
 3460TIP3   OH231870   2.716   0.024  16.393  0.3137 -0.4999 -0.8394
 3460TIP3    H131871   2.769   0.056  16.320  2.2068  0.6292  0.9269
 3460TIP3    H231872   2.768  -0.045  16.433 -0.2142 -0.3984  0.0516
 3461TIP3   OH231873   3.573   3.513   5.259 -0.4874  0.2284 -0.4059
 3461TIP3    H131874   3.500   3.546   5.207  1.2451  1.3427 -2.2604
 3461TIP3    H231875   3.532   3.470   5.334 -3.0090  1.1365 -1.1873
 3462TIP3   OH231876   5.579   6.011   2.881 -0.2432  0.1029  0.1176
 3462TIP3    H131877   5.591   6.002   2.976  1.1020 -0.1917 -0.0578
 3462TIP3    H231878   5.540   6.097   2.869 -0.0520  0.3073  0.9281
 3463TIP3   OH231879   0.445   3.185  16.263  0.1666 -0.2321 -0.4275
 3463TIP3    H131880   0.439   3.196  16.168  2.3400  1.0017 -0.4908
 3463TIP3    H231881   0.483   3.098  16.274 -0.0266 -0.3527 -0.6892
 3464TIP3   OH231882   1.001   2.053   4.858 -0.0377  0.1738 -0.9083
 3464TIP3    H131883   0.940   2.013   4.920 -0.4667 -1.1571 -2.1404
 3464TIP3    H231884   1.013   2.142   4.890 -1.6237  0.0657  0.0862
 3465TIP3   OH231885   0.189   6.415   1.757  0.4755 -0.0318  0.6115
 3465TIP3    H131886   0.202   6.507   1.733  0.7104  0.5616  2.8229
 3465TIP3    H231887   0.119   6.386   1.699  1.3277  1.1124 -1.0861
 3466TIP3   OH231888   1.327   4.849   1.581 -0.1650  0.6344  0.1383
 3466TIP3    H131889   1.267   4.813   1.647  0.4149  0.0198  0.3496
 3466TIP3    H231890   1.388   4.902   1.632  0.1210  0.3783  0.0621
 3467TIP3   OH231891   2.111   0.319   4.354 -0.2721 -0.1327 -0.0435
 3467TIP3    H131892   2.144   0.408   4.363  0.3991 -0.3583 -0.2869
 3467TIP3    H231893   2.084   0.311   4.263 -2.3422  0.5012  0.4575
 3468TIP3   OH231894   1.715   5.632  11.100  0.1559  0.0278  0.2896
 3468TIP3    H131895   1.720   5.538  11.081  1.0031 -0.2793  1.8861
 3468TIP3    H231896   1.692   5.672  11.015 -1.8959 -1.7374 -0.0977
 3469TIP3   OH231897   4.410   6.264   2.986  0.1191 -0.3236  0.2120
 3469TIP3    H131898   4.405   6.204   3.061 -0.0691 -0.8514 -0.2175
 3469TIP3    H231899   4.491   6.239   2.942  0.6723  0.5503  0.7038
 3470TIP3   OH231900   4.560   0.926   4.952 -0.0472  0.2158 -0.0497
 3470TIP3    H131901   4.474   0.939   4.993 -0.3941 -0.4173 -0.5497
 3470TIP3    H231902   4.609   1.005   4.974 -0.7083  0.5245  0.3672
 3471TIP3   OH231903   3.034   4.126   4.977 -0.1986  0.0939 -0.5922
 3471TIP3    H131904   2.939   4.116   4.976 -0.2450  0.1728  0.6408
 3471TIP3    H231905   3.068   4.044   4.943 -0.7093 -0.1325 -0.5647
 3472TIP3   OH231906   6.105   2.719   3.825  0.5341 -0.0160  0.4987
 3472TIP3    H131907   6.138   2.632   3.849 -1.0009 -0.3196  1.6547
 3472TIP3    H231908   6.012   2.705   3.810  0.4844  1.2350 -0.4990
 3473TIP3   OH231909   5.367   6.538   0.997 -0.2154 -0.0370 -0.2414
 3473TIP3    H131910   5.447   6.573   1.036  0.1760 -1.1469 -0.0250
 3473TIP3    H231911   5.352   6.594   0.920  0.9884 -0.0528 -0.5120
 3474TIP3   OH231912   5.401   1.508  12.902  0.2795 -0.3475  0.1247
 3474TIP3    H131913   5.409   1.432  12.844  0.0965  0.8307 -1.5228
 3474TIP3    H231914   5.462   1.490  12.974  0.2990 -1.9959 -0.2633
 3475TIP3   OH231915   4.555   2.805  11.551  0.1436 -0.2294 -0.2586
 3475TIP3    H131916   4.489   2.746  11.512 -0.3349  1.8075 -2.8039
 3475TIP3    H231917   4.507   2.886  11.569  1.3180  0.2581  0.7839
 3476TIP3   OH231918   3.045   2.578  16.312 -0.5866  0.4618  0.0879
 3476TIP3    H131919   3.057   2.535  16.396 -0.4205  1.5641  0.6385
 3476TIP3    H231920   3.107   2.651  16.312 -1.2900  1.0854 -0.5558
 3477TIP3   OH231921   1.361   1.561   0.807 -0.5992 -0.4483  0.8307
 3477TIP3    H131922   1.306   1.608   0.745  0.1563 -0.3433  0.2318
 3477TIP3    H231923   1.420   1.628   0.843  1.8143 -1.1877 -1.4598
 3478TIP3   OH231924   5.162   6.820  10.545 -0.0839 -0.3751 -0.9358
 3478TIP3    H131925   5.221   6.749  10.569  2.2875  1.7762  0.0541
 3478TIP3    H231926   5.197   6.897  10.589 -1.9678  1.6361 -2.6733
 3479TIP3   OH231927   1.220   5.837   3.287  0.1520  0.2218 -0.2317
 3479TIP3    H131928   1.173   5.777   3.229  0.3402 -0.8643  0.7054
 3479TIP3    H231929   1.311   5.834   3.255  0.0190  0.5991 -0.6542
 3480TIP3   OH231930   1.188   4.621  13.054  0.3541  0.2743 -0.3130
 3480TIP3    H131931   1.174   4.698  13.109  0.5575  0.3010 -0.2975
 3480TIP3    H231932   1.134   4.636  12.977 -3.1644 -1.5433  1.5551
 3481TIP3   OH231933   1.257   5.830   5.983 -0.7178  0.1499 -0.2352
 3481TIP3    H131934   1.351   5.813   5.976 -0.6702  0.7350 -1.1442
 3481TIP3    H231935   1.252   5.916   6.026 -0.8936 -0.6525  1.4384
 3482TIP3   OH231936   6.056   3.375  16.675  0.1674  0.9591 -0.4209
 3482TIP3    H131937   6.027   3.436  16.608  0.3845  1.0576 -0.4230
 3482TIP3    H231938   5.988   3.307  16.676 -0.7368  1.8397  0.4573
 3483TIP3   OH231939   2.683   1.347  13.371 -0.6264  0.1474 -0.6688
 3483TIP3    H131940   2.588   1.353  13.358 -0.6239 -1.7666 -2.0533
 3483TIP3    H231941   2.701   1.253  13.373  1.2384  0.4671 -0.2823
 3484TIP3   OH231942   4.278   0.600   3.921  0.3234 -0.3892  0.4958
 3484TIP3    H131943   4.200   0.632   3.966  0.9334  2.3455 -0.1896
 3484TIP3    H231944   4.304   0.522   3.969 -1.3821  0.0983  2.3149
 3485TIP3   OH231945   3.435   1.333  11.217  0.3917 -0.1740 -0.3921
 3485TIP3    H131946   3.458   1.387  11.292 -1.9431 -0.3458  0.5400
 3485TIP3    H231947   3.357   1.374  11.181  0.8048 -0.7549 -2.0448
 3486TIP3   OH231948   3.758   0.198   6.128  0.2517 -0.7626  0.9005
 3486TIP3    H131949   3.705   0.123   6.100 -1.2695  0.0317  1.5806
 3486TIP3    H231950   3.803   0.226   6.048 -0.2158 -1.5650  0.3418
 3487TIP3   OH231951   5.610   4.592  11.076 -0.0661  0.1896  0.1425
 3487TIP3    H131952   5.702   4.569  11.068  0.5776  2.8401 -1.1588
 3487TIP3    H231953   5.593   4.595  11.170  0.9822 -0.9507  0.3810
 3488TIP3   OH231954   5.457   6.210   3.108  0.0799 -0.2703 -0.0777
 3488TIP3    H131955   5.532   6.181   3.159  0.5543  1.9762  0.6271
 3488TIP3    H231956   5.383   6.207   3.169  0.5515  1.9318  0.7041
 3489TIP3   OH231957   3.690   3.157   4.529  0.2100  0.8768  0.6761
 3489TIP3    H131958   3.639   3.170   4.609 -0.4889 -3.0691  1.0845
 3489TIP3    H231959   3.766   3.106   4.557  1.7032  2.1674 -0.7835
 3490TIP3   OH231960   4.490   4.840  16.925 -0.0358 -0.0500 -0.6648
 3490TIP3    H131961   4.443   4.805  16.850 -1.5556 -0.5159  0.4632
 3490TIP3    H231962   4.523   4.763  16.971  1.3652  0.2524 -1.1190
 3491TIP3   OH231963   6.533   6.799  11.996 -0.4976  0.4993  0.2322
 3491TIP3    H131964   6.591   6.862  11.954 -1.9607  0.8573 -1.3831
 3491TIP3    H231965   6.506   6.841  12.077  0.7504  0.7180  0.5508
 3492TIP3   OH231966   0.514   0.378   1.172 -0.9063 -0.6516 -0.3264
 3492TIP3    H131967   0.569   0.408   1.100  0.8572  1.0048  1.5957
 3492TIP3    H231968   0.457   0.452   1.191 -0.6864 -0.7105  0.6019
 3493TIP3   OH231969   6.436   1.109   2.395  0.0767  0.1882 -0.4213
 3493TIP3    H131970   6.491   1.164   2.338 -0.2179  1.0808  0.1302
 3493TIP3    H231971   6.365   1.079   2.338  0.4388  0.0773 -0.8210
 3494TIP3   OH231972   3.705   5.752   3.852 -0.3434  0.6706  0.5010
 3494TIP3    H131973   3.693   5.830   3.798  0.3484  0.8639  0.6150
 3494TIP3    H231974   3.636   5.692   3.823 -0.6590  1.1901  0.1676
 3495TIP3   OH231975   5.091   5.087  16.718  0.6441  0.5000 -0.0179
 3495TIP3    H131976   5.168   5.139  16.696 -0.1042  1.7907  0.2844
 3495TIP3    H231977   5.043   5.141  16.780  0.5662 -1.2033  1.5040
 3496TIP3   OH231978   1.299   3.820  16.197  0.1829  0.6763 -0.1829
 3496TIP3    H131979   1.238   3.755  16.163 -0.0030  0.0720  1.2258
 3496TIP3    H231980   1.251   3.902  16.196 -0.1256  0.4931 -0.5191
 3497TIP3   OH231981   4.466   5.837   5.530 -0.8593  0.0986  0.1317
 3497TIP3    H131982   4.447   5.763   5.472 -1.1430 -0.3984  0.8483
 3497TIP3    H231983   4.399   5.902   5.508  0.3237  0.8075 -1.6026
 3498TIP3   OH231984   1.840   2.777  15.088  0.5132 -0.3012 -0.1427
 3498TIP3    H131985   1.848   2.867  15.054 -0.4343 -0.1754 -0.0598
 3498TIP3    H231986   1.902   2.773  15.161  0.5997  0.2640 -0.1808
 3499TIP3   OH231987   1.431   0.787  16.292  0.3970  0.1789 -0.3312
 3499TIP3    H131988   1.373   0.726  16.248  1.2419 -0.6080 -0.3738
 3499TIP3    H231989   1.498   0.732  16.333  0.3221  0.9709  0.9066
 3500TIP3   OH231990   1.425   4.614  16.016  0.2918 -0.9482  0.3601
 3500TIP3    H131991   1.513   4.584  15.995  0.7760  0.7595 -0.2457
 3500TIP3    H231992   1.375   4.601  15.936  0.8259  0.8715 -0.3304
 3501TIP3   OH231993   0.016   3.923   5.010  0.0822  0.2645  0.2695
 3501TIP3    H131994  -0.049   3.902   4.942 -0.1431 -0.3506  0.6721
 3501TIP3    H231995   0.046   3.838   5.042  1.6030  0.5290 -0.3873
 3502TIP3   OH231996   2.665   2.678   5.483 -0.2692  0.1447 -0.4939
 3502TIP3    H131997   2.759   2.690   5.470 -0.5274  0.8406 -2.0245
 3502TIP3    H231998   2.650   2.701   5.575  0.9504  0.7111 -0.4129
 3503TIP3   OH231999   3.239   3.687  14.420 -0.1153 -0.4424 -0.3251
 3503TIP3    H132000   3.253   3.593  14.435  3.8465 -0.0208 -0.1834
 3503TIP3    H232001   3.207   3.719  14.504  3.1842 -1.0990  1.4007
 3504TIP3   OH232002   2.469   6.207  15.565 -0.1446 -0.5472 -0.2164
 3504TIP3    H132003   2.390   6.218  15.512  0.9756 -0.2586 -1.9010
 3504TIP3    H232004   2.502   6.121  15.541  0.5700 -0.2636 -0.2689
 3505TIP3   OH232005   1.051   5.024  12.105 -0.1205 -0.0734  0.1286
 3505TIP3    H132006   0.964   4.993  12.130 -0.3024 -0.8521 -1.3080
 3505TIP3    H232007   1.082   4.958  12.042  1.9934 -0.4252  1.4476
 3506TIP3   OH232008   1.758   6.141  15.147 -0.1016  0.1583  0.0125
 3506TIP3    H132009   1.787   6.142  15.238  0.1777 -0.5155 -0.0686
 3506TIP3    H232010   1.837   6.124  15.096 -0.6227 -1.8731 -0.1968
 3507TIP3   OH232011   0.201   3.061   0.711 -0.0745 -0.5638  0.4621
 3507TIP3    H132012   0.235   3.036   0.625 -0.4981 -0.2441  0.2035
 3507TIP3    H232013   0.148   3.139   0.695 -1.6021 -1.5194  0.7451
 3508TIP3   OH232014   0.906   3.449  12.957  0.5906 -0.2204 -0.0799
 3508TIP3    H132015   0.957   3.513  12.906  1.2058 -1.1299 -0.6522
 3508TIP3    H232016   0.816   3.483  12.955  0.9791  0.8783  0.0616
 3509TIP3   OH232017   4.313   2.461   5.262  0.6019  0.1309  0.3067
 3509TIP3    H132018   4.235   2.414   5.234 -1.0610  1.4760  2.3679
 3509TIP3    H232019   4.303   2.549   5.224  0.1645  0.8453  1.9905
 3510TIP3   OH232020   5.024   5.073  17.163 -0.3955 -0.2174 -0.5263
 3510TIP3    H132021   5.110   5.035  17.146  0.3229  0.6672  0.9478
 3510TIP3    H232022   4.971   5.048  17.088  0.5053 -2.7235 -0.4204
 3511TIP3   OH232023   4.406   5.648  16.125  0.5152  0.9940 -0.0401
 3511TIP3    H132024   4.474   5.582  16.119  0.4457  0.5577  2.5499
 3511TIP3    H232025   4.324   5.598  16.124  0.4587  0.9687  1.7787
 3512TIP3   OH232026   4.985   4.263  14.999 -0.1516  0.3452  0.1597
 3512TIP3    H132027   5.009   4.255  15.091  0.4104 -0.0197 -0.0152
 3512TIP3    H232028   5.014   4.181  14.959  0.9347  1.0926 -0.6327
 3513TIP3   OH232029   0.527   4.670   2.322  0.1253 -0.5653 -0.4992
 3513TIP3    H132030   0.553   4.762   2.315 -0.9907 -0.2646 -0.8539
 3513TIP3    H232031   0.442   4.673   2.367 -0.2968 -1.3620 -1.2210
 3514TIP3   OH232032   1.131   2.236   6.289 -0.1793 -0.3187 -0.3624
 3514TIP3    H132033   1.129   2.187   6.372 -0.4454  0.7637  0.2864
 3514TIP3    H232034   1.200   2.300   6.300  0.8465 -1.1736 -1.5998
 3515TIP3   OH232035   6.630   6.802  11.163 -0.1722 -0.6216  0.1841
 3515TIP3    H132036   6.557   6.771  11.109 -1.6549 -1.7632  2.6815
 3515TIP3    H232037   6.668   6.722  11.200 -0.0048  0.1744  1.8077
 3516TIP3   OH232038   5.016   3.476   0.967 -0.0126 -0.8045  0.0061
 3516TIP3    H132039   4.993   3.567   0.950 -1.4085 -1.3044 -0.9771
 3516TIP3    H232040   4.935   3.436   0.999  0.8746 -1.4567  1.5450
 3517TIP3   OH232041   5.430   0.374  16.988 -0.1735 -0.3832  0.2126
 3517TIP3    H132042   5.510   0.352  16.939 -0.8782 -2.5669 -0.0753
 3517TIP3    H232043   5.362   0.322  16.945 -1.5835  0.7440  1.0335
 3518TIP3   OH232044   3.962   6.616   0.882  0.0815 -0.8440  0.0782
 3518TIP3    H132045   3.909   6.669   0.940  0.6596 -0.6946  0.4789
 3518TIP3    H232046   3.910   6.538   0.866 -0.2839 -0.6707  0.4090
 3519TIP3   OH232047   6.828   5.130   3.299 -0.1726 -0.2095  0.0893
 3519TIP3    H132048   6.735   5.148   3.285  0.1656  2.2023  0.4934
 3519TIP3    H232049   6.873   5.203   3.257  1.5630 -1.3460 -0.1177
 3520TIP3   OH232050   0.214   6.157  16.489 -0.4702 -0.0896 -0.0070
 3520TIP3    H132051   0.239   6.231  16.544  0.4377  0.0328 -0.5570
 3520TIP3    H232052   0.139   6.117  16.534 -0.7608  0.9591  0.4616
 3521TIP3   OH232053   1.023   4.293   1.386  0.2214  0.0217 -0.1223
 3521TIP3    H132054   1.103   4.290   1.334 -0.4469 -0.5748 -1.1465
 3521TIP3    H232055   0.984   4.377   1.363 -0.6838 -0.7525 -1.5724
 3522TIP3   OH232056   0.408   0.616  16.650  0.6339 -0.1919 -0.3075
 3522TIP3    H132057   0.468   0.680  16.612 -0.2292  0.8229 -0.0108
 3522TIP3    H232058   0.334   0.614  16.588  0.2237 -0.1760  0.1806
 3523TIP3   OH232059   4.230   3.863   5.343  0.3593  0.1057 -0.0242
 3523TIP3    H132060   4.278   3.812   5.408  0.5564  0.3119 -0.0070
 3523TIP3    H232061   4.296   3.884   5.277  0.7376  1.9423  0.8847
 3524TIP3   OH232062   6.389   4.063  12.736  0.3030  0.3797  0.0736
 3524TIP3    H132063   6.450   4.053  12.663  0.1845  1.5886 -0.2019
 3524TIP3    H232064   6.435   4.120  12.798 -0.1558  0.4866  0.3171
 3525TIP3   OH232065   2.291   3.653   5.424  1.0489  0.1639  0.2321
 3525TIP3    H132066   2.330   3.726   5.377 -2.1278  0.8470 -1.6133
 3525TIP3    H232067   2.253   3.692   5.503  1.3762  0.0630  0.4415
 3526TIP3   OH232068   3.273   3.215   5.183  0.1102 -0.4962  0.3217
 3526TIP3    H132069   3.232   3.200   5.097  0.8680 -0.2902 -0.0848
 3526TIP3    H232070   3.313   3.301   5.175 -0.2250 -0.2695  1.0559
 3527TIP3   OH232071   1.493   0.457  11.547  1.0044  0.2270 -0.9504
 3527TIP3    H132072   1.416   0.449  11.603  0.7847 -0.3421 -1.3225
 3527TIP3    H232073   1.471   0.406  11.469  2.1333 -0.7615 -0.6534
 3528TIP3   OH232074   0.208   1.809   0.590 -0.0913  0.4537 -0.1171
 3528TIP3    H132075   0.230   1.732   0.537  2.7774  0.1597  1.2660
 3528TIP3    H232076   0.250   1.882   0.544 -0.9861  0.8620 -0.3021
 3529TIP3   OH232077   4.661   2.655   5.296 -0.1433  0.2512  0.2358
 3529TIP3    H132078   4.612   2.629   5.218 -0.1476  1.3078 -0.1330
 3529TIP3    H232079   4.599   2.642   5.368 -0.4013 -0.0225 -0.0314
 3530TIP3   OH232080   5.279   5.763   5.728 -0.0749  0.0476  0.2881
 3530TIP3    H132081   5.312   5.837   5.677  0.2259 -1.1021 -1.2448
 3530TIP3    H232082   5.184   5.765   5.714 -0.1231  0.4064  0.6398
 3531TIP3   OH232083   3.778   2.533   2.867  0.8175 -0.4303  0.2990
 3531TIP3    H132084   3.862   2.522   2.912  1.4893  0.6892 -0.6367
 3531TIP3    H232085   3.796   2.594   2.796 -0.6015 -0.8501 -0.4700
 3532TIP3   OH232086   0.183   4.245  11.660  0.4847  0.7495  0.4436
 3532TIP3    H132087   0.181   4.149  11.661  0.9141  0.7151 -0.6731
 3532TIP3    H232088   0.117   4.270  11.595 -1.0929  1.3112  2.1575
 3533TIP3   OH232089   3.550   4.423   3.416 -0.5294  0.2141 -0.0228
 3533TIP3    H132090   3.628   4.440   3.469 -0.1423 -0.3845 -0.3820
 3533TIP3    H232091   3.476   4.447   3.472 -0.1045  0.2146  0.5400
 3534TIP3   OH232092   6.232   4.778  14.261  0.0903  0.0526 -0.1910
 3534TIP3    H132093   6.220   4.868  14.291 -1.7231 -0.6955  1.5637
 3534TIP3    H232094   6.145   4.739  14.267  1.1440 -2.3791  1.0686
 3535TIP3   OH232095   3.273   0.418   5.779 -0.4299 -0.3110  0.4247
 3535TIP3    H132096   3.251   0.331   5.745 -1.3965 -0.8644  2.3723
 3535TIP3    H232097   3.197   0.472   5.759 -1.3474 -0.8396  2.3106
 3536TIP3   OH232098   3.706   6.011  13.130 -0.1532  0.0734 -0.7873
 3536TIP3    H132099   3.695   6.101  13.162 -1.9528 -0.6910  0.9503
 3536TIP3    H232100   3.621   5.988  13.095  0.1053 -1.1795 -0.6147
 3537TIP3   OH232101   4.224   1.592   1.851  0.0527 -0.3907 -0.0868
 3537TIP3    H132102   4.244   1.498   1.842 -0.9258 -0.5241 -1.1428
 3537TIP3    H232103   4.132   1.594   1.876  0.1262  0.2867  0.1323
 3538TIP3   OH232104   5.665   1.805  14.729  0.3380  0.3286 -0.3063
 3538TIP3    H132105   5.738   1.767  14.679  0.9044  1.3607 -0.2985
 3538TIP3    H232106   5.634   1.734  14.785  1.5578 -0.0437 -0.0752
 3539TIP3   OH232107   4.642   5.468  13.362  0.6597  0.4949 -0.9197
 3539TIP3    H132108   4.662   5.528  13.434  0.2076 -0.3634 -0.0703
 3539TIP3    H232109   4.640   5.525  13.284  2.0842  1.2873 -0.4226
 3540TIP3   OH232110   5.181   0.728  14.712  0.3293 -0.0226  0.2982
 3540TIP3    H132111   5.101   0.751  14.759 -0.6715 -1.5467 -0.5599
 3540TIP3    H232112   5.216   0.811  14.681 -0.7428  0.7043  0.9844
 3541TIP3   OH232113   2.553   4.329  16.773 -0.1000  0.3240  0.3887
 3541TIP3    H132114   2.611   4.365  16.705  0.1484 -0.6537  0.0677
 3541TIP3    H232115   2.613   4.301  16.843 -0.2735  0.3136  0.5336
 3542TIP3   OH232116   5.814   4.281  15.577 -0.1360 -0.8018  0.3780
 3542TIP3    H132117   5.813   4.286  15.481 -0.4640 -0.9495  0.3752
 3542TIP3    H232118   5.816   4.187  15.596  0.5701 -0.7649  0.5106
 3543TIP3   OH232119   6.361   2.734  13.363  0.7085 -0.6113 -0.3890
 3543TIP3    H132120   6.413   2.708  13.287  1.4807 -0.7505  0.1727
 3543TIP3    H232121   6.279   2.687  13.354  0.4393  0.0418 -1.5915
 3544TIP3   OH232122   5.583   4.780   2.882  0.2993  0.2380 -0.1726
 3544TIP3    H132123   5.557   4.839   2.811 -0.3154  0.4986  0.2619
 3544TIP3    H232124   5.605   4.838   2.955  2.2044  0.0365 -0.5307
 3545TIP3   OH232125   5.691   0.683   4.928 -0.1658 -0.1471 -0.1867
 3545TIP3    H132126   5.730   0.731   5.002 -1.1896 -1.3603  1.1995
 3545TIP3    H232127   5.648   0.751   4.876  1.0748  0.8069 -0.0160
 3546TIP3   OH232128   2.260   0.507  14.382  0.1967 -0.0136 -0.7438
 3546TIP3    H132129   2.313   0.557  14.320  0.0035  0.8932 -0.2015
 3546TIP3    H232130   2.210   0.447  14.328  0.2319  0.5749 -1.4435
 3547TIP3   OH232131   5.404   0.436  15.279 -1.0320 -0.4694 -0.3948
 3547TIP3    H132132   5.371   0.444  15.369 -0.4986  1.2415 -0.3084
 3547TIP3    H232133   5.335   0.389  15.233 -0.9071 -2.2304  1.0899
 3548TIP3   OH232134   0.201   4.588   0.129  0.5644 -0.2596 -0.5011
 3548TIP3    H132135   0.168   4.596   0.039  1.2493  0.2713 -0.7140
 3548TIP3    H232136   0.293   4.562   0.118  1.0760  1.2103 -0.0117
 3549TIP3   OH232137   2.398   4.375  12.527 -0.3177 -0.4588 -0.4120
 3549TIP3    H132138   2.364   4.369  12.438 -0.2804 -1.3416 -0.3781
 3549TIP3    H232139   2.360   4.300  12.572  0.2117 -0.4102  0.1280
 3550TIP3   OH232140   1.165   0.840  14.186  0.1556 -0.0059  0.1676
 3550TIP3    H132141   1.172   0.751  14.150 -1.5974  0.1979 -0.8059
 3550TIP3    H232142   1.167   0.827  14.281  1.5976 -0.8876  0.0598
 3551TIP3   OH232143   4.463   2.214   1.697  0.0384  0.2600  0.3408
 3551TIP3    H132144   4.498   2.148   1.756 -0.5652  0.6148  1.1154
 3551TIP3    H232145   4.443   2.289   1.753 -0.9536  0.4541 -0.2376
 3552TIP3   OH232146   4.930   1.618  15.250 -0.2142  0.0031  0.3892
 3552TIP3    H132147   4.956   1.582  15.335 -1.6663 -0.4220  0.6776
 3552TIP3    H232148   5.009   1.610  15.196  0.1575 -1.6238  1.0971
 3553TIP3   OH232149   3.557   5.963  11.504 -0.1222 -0.1747  0.2735
 3553TIP3    H132150   3.565   5.886  11.448 -0.0636 -0.0432  0.0982
 3553TIP3    H232151   3.549   5.929  11.593  0.4327 -0.3626  0.2508
 3554TIP3   OH232152   1.297   4.576  11.418  0.0361  0.1012 -0.1914
 3554TIP3    H132153   1.380   4.596  11.462 -0.4070  2.3988 -0.2667
 3554TIP3    H232154   1.321   4.558  11.328  0.5608 -0.5537  0.0682
 3555TIP3   OH232155   4.806   0.449   3.098 -0.0118 -0.0895  0.1383
 3555TIP3    H132156   4.802   0.450   3.003  1.1620  2.2651  0.0531
 3555TIP3    H232157   4.853   0.529   3.121 -1.2507 -0.0164  2.7607
 3556TIP3   OH232158   0.424   4.953   6.466  0.5064  0.4604 -0.0263
 3556TIP3    H132159   0.383   5.028   6.422 -2.1885 -1.8510 -1.7636
 3556TIP3    H232160   0.384   4.876   6.426  0.9967 -1.9543  3.6245
 3557TIP3   OH232161   1.232   1.462  14.066  0.2677 -0.1053  0.2570
 3557TIP3    H132162   1.138   1.471  14.084  0.1531  0.1081 -0.4472
 3557TIP3    H232163   1.263   1.403  14.135 -1.1741 -3.7114 -1.9084
 3558TIP3   OH232164   0.463   1.977   3.111  0.5136 -0.2534 -0.0893
 3558TIP3    H132165   0.418   1.969   3.195  1.1911  1.4080  0.4905
 3558TIP3    H232166   0.473   2.072   3.099  1.8915 -0.5107 -1.2426
 3559TIP3   OH232167   4.420   2.967   0.516  0.4266  0.5628  0.0714
 3559TIP3    H132168   4.365   3.043   0.498 -0.2890  0.1643  0.5180
 3559TIP3    H232169   4.430   2.924   0.432 -0.6112  0.2079  0.1144
 3560TIP3   OH232170   5.693   2.603   0.427 -0.1270  0.1311 -0.1313
 3560TIP3    H132171   5.762   2.663   0.397  0.3345  0.1976  0.9977
 3560TIP3    H232172   5.676   2.630   0.517 -1.8644  0.2952 -0.4914
 3561TIP3   OH232173   5.461   0.938   3.244  0.1244 -0.0406 -0.4398
 3561TIP3    H132174   5.502   0.957   3.160 -1.6839 -0.0806 -1.3845
 3561TIP3    H232175   5.502   1.000   3.305  3.1714 -1.5652 -0.7580
 3562TIP3   OH232176   0.741   2.957   0.438 -0.2463  0.9814 -0.5817
 3562TIP3    H132177   0.828   2.992   0.418  0.2019 -1.0458 -2.5730
 3562TIP3    H232178   0.752   2.914   0.523  0.5615  1.1772 -0.5756
 3563TIP3   OH232179   1.087   4.004   1.408 -0.5457  0.2952  0.2809
 3563TIP3    H132180   1.084   3.995   1.503 -0.4107  0.0774  0.2657
 3563TIP3    H232181   1.073   4.097   1.392 -2.0221  0.1125  0.4353
 3564TIP3   OH232182   5.980   6.198   3.713 -0.0782  0.3850  0.4690
 3564TIP3    H132183   6.022   6.121   3.752 -1.6481 -0.4976  0.5189
 3564TIP3    H232184   5.992   6.267   3.777  1.2770  0.1682  0.4735
 3565TIP3   OH232185   1.588   6.283   1.460  0.1763 -0.2294 -0.2294
 3565TIP3    H132186   1.622   6.361   1.417  0.1589  0.5517  1.1160
 3565TIP3    H232187   1.662   6.249   1.510 -0.5357  0.5612  1.4282
 3566TIP3   OH232188   6.433   0.009  15.157 -0.5130  0.3507 -0.4021
 3566TIP3    H132189   6.340   0.025  15.139 -0.4879 -0.8053 -1.7729
 3566TIP3    H232190   6.433  -0.049  15.233 -0.9285  0.2694 -0.4622
 3567TIP3   OH232191   2.459   6.315  11.850 -0.0965  0.3006 -0.3192
 3567TIP3    H132192   2.507   6.262  11.786  0.9287 -0.6349  1.1594
 3567TIP3    H232193   2.515   6.391  11.866 -0.0468  0.2185 -0.0883
 3568TIP3   OH232194   3.524   2.262   5.380 -0.5092 -0.2978  0.2433
 3568TIP3    H132195   3.490   2.230   5.297 -0.0827 -1.1658  0.3877
 3568TIP3    H232196   3.584   2.193   5.410  0.5593  0.6964  0.5020
 3569TIP3   OH232197   5.568   3.854   5.039 -0.1931 -0.5922 -0.5052
 3569TIP3    H132198   5.510   3.903   4.980 -0.9940 -0.5964  0.2567
 3569TIP3    H232199   5.549   3.762   5.019 -2.2619 -0.6629  1.3636
 3570TIP3   OH232200   4.451   1.143   5.383 -0.1042 -0.8085  0.4168
 3570TIP3    H132201   4.415   1.212   5.438  3.3524  1.0212  0.6867
 3570TIP3    H232202   4.512   1.097   5.440 -0.0714 -2.0932 -0.6165
 3571TIP3   OH232203   1.171   4.019  12.791 -0.1824  0.2901 -0.2986
 3571TIP3    H132204   1.098   4.079  12.777 -1.4419 -0.8498  1.0462
 3571TIP3    H232205   1.176   4.008  12.886 -0.3618 -2.1077 -0.4946
 3572TIP3   OH232206   3.176   3.021  13.082 -0.0129 -0.4641  0.3245
 3572TIP3    H132207   3.147   3.103  13.123  0.1569 -0.6881  0.8953
 3572TIP3    H232208   3.199   2.964  13.155 -0.3309 -1.1002 -0.0634
 3573TIP3   OH232209   6.329   6.240  16.114  0.0885  0.4248 -0.3987
 3573TIP3    H132210   6.351   6.165  16.169  1.3983  0.4497 -0.8633
 3573TIP3    H232211   6.398   6.244  16.048 -0.4024  1.5527 -0.8870
 3574TIP3   OH232212   5.865   5.043   0.942  0.1547  0.0928  0.4633
 3574TIP3    H132213   5.882   5.109   1.010  2.1505  0.1731 -0.0417
 3574TIP3    H232214   5.945   4.990   0.941  0.2432  0.1881 -1.9241
 3575TIP3   OH232215   5.129   3.566   2.870  0.4757 -0.3267  0.3886
 3575TIP3    H132216   5.081   3.598   2.946 -1.2703 -1.5064 -0.1621
 3575TIP3    H232217   5.076   3.591   2.795  1.9906  0.5050 -0.4566
 3576TIP3   OH232218   2.850   6.345  16.530  0.2214  0.2930  0.1177
 3576TIP3    H132219   2.828   6.313  16.442 -1.2459 -0.3307  0.6712
 3576TIP3    H232220   2.861   6.266  16.582  3.5730  0.5760  0.0066
 3577TIP3   OH232221   4.587   5.493  15.029 -0.1935  0.4615  0.1717
 3577TIP3    H132222   4.539   5.415  15.002  0.1567  0.1962  0.3142
 3577TIP3    H232223   4.591   5.487  15.124  1.7051 -0.4778  0.0842
 3578TIP3   OH232224   4.919   0.924  11.691 -0.3672  0.0570  0.0786
 3578TIP3    H132225   4.920   0.847  11.634 -1.1649  0.6525 -0.7818
 3578TIP3    H232226   4.827   0.932  11.719 -0.0303 -0.0878  1.2737
 3579TIP3   OH232227   3.085   3.494  10.344 -0.4272 -0.2515 -0.5899
 3579TIP3    H132228   3.117   3.416  10.389  0.5203 -1.0852 -2.5899
 3579TIP3    H232229   3.158   3.522  10.289 -1.0370  1.5748 -0.5262
 3580TIP3   OH232230   3.466   6.750  13.597 -0.2558 -0.1217 -0.4367
 3580TIP3    H132231   3.408   6.816  13.559  0.2456  0.6786  0.1470
 3580TIP3    H232232   3.554   6.785  13.581  0.0419 -0.9306 -0.6095
 3581TIP3   OH232233   3.838   4.012   1.336  0.1502 -0.1377 -0.2763
 3581TIP3    H132234   3.832   4.103   1.307 -1.2371  0.0555  0.5485
 3581TIP3    H232235   3.749   3.977   1.328  0.6706 -1.4636 -0.6481
 3582TIP3   OH232236   6.220   4.675   4.189  0.0684  0.0882  0.0485
 3582TIP3    H132237   6.264   4.622   4.123  0.2766  1.5346 -1.0298
 3582TIP3    H232238   6.256   4.763   4.177  1.2014  0.1743  3.0550
 3583TIP3   OH232239   2.620   1.734  13.617  0.2199 -0.1220 -0.0766
 3583TIP3    H132240   2.600   1.758  13.707  0.2436 -1.3192  0.2605
 3583TIP3    H232241   2.535   1.722  13.575  0.1976 -1.0098  0.1992
 3584TIP3   OH232242   4.481   0.635   3.432 -0.6185 -0.4123  0.3012
 3584TIP3    H132243   4.553   0.662   3.489  0.1703  0.7040 -1.1685
 3584TIP3    H232244   4.415   0.703   3.443 -1.1465 -1.0110  1.0200
 3585TIP3   OH232245   2.768   6.757   5.342  0.5075  0.0387 -0.1856
 3585TIP3    H132246   2.788   6.806   5.422 -2.6684  1.4599 -0.0981
 3585TIP3    H232247   2.675   6.771   5.328 -0.0845 -4.0128 -1.6472
 3586TIP3   OH232248   5.537   1.661   0.165  0.2495  0.4062  0.3048
 3586TIP3    H132249   5.467   1.707   0.120  0.6395 -0.3812 -1.1578
 3586TIP3    H232250   5.617   1.707   0.139  0.4480  0.1774  0.4993
 3587TIP3   OH232251   0.034   5.529   2.402 -0.3342 -0.3170  0.3859
 3587TIP3    H132252  -0.016   5.590   2.458 -0.6413 -0.8319  0.6861
 3587TIP3    H232253   0.109   5.504   2.456 -0.2892 -0.3201  0.3208
 3588TIP3   OH232254   3.511   0.799  16.348 -0.3009 -0.3242  0.2961
 3588TIP3    H132255   3.532   0.783  16.256  1.4728 -1.4997  0.8600
 3588TIP3    H232256   3.458   0.879  16.346 -0.1922 -0.2386 -1.7246
 3589TIP3   OH232257   6.570   1.202  13.485 -0.1107 -0.2689  0.6824
 3589TIP3    H132258   6.633   1.195  13.557 -0.6877 -1.3629  1.1042
 3589TIP3    H232259   6.613   1.161  13.410 -0.1412 -0.6244  0.8558
 3590TIP3   OH232260   2.436   1.787   5.641  0.5457  0.4235 -0.6352
 3590TIP3    H132261   2.350   1.745   5.642  0.2223  0.9981  2.0200
 3590TIP3    H232262   2.430   1.852   5.570 -1.9974  1.8771  0.7821
 3591TIP3   OH232263   3.819   2.974   5.155 -0.0535  0.3991  0.3575
 3591TIP3    H132264   3.886   2.975   5.223 -0.3350 -1.0638  0.6824
 3591TIP3    H232265   3.738   2.998   5.200 -0.5779 -2.2529  0.9825
 3592TIP3   OH232266   1.014   2.677   3.400 -0.3540 -0.3247  0.3681
 3592TIP3    H132267   0.979   2.599   3.357 -2.0652 -0.2979  1.5804
 3592TIP3    H232268   1.099   2.650   3.434 -0.1069 -1.0895 -0.8221
 3593TIP3   OH232269   5.746   0.069   6.204 -0.2498  0.1551  0.0338
 3593TIP3    H132270   5.729   0.164   6.208 -0.9809  0.0752 -0.9384
 3593TIP3    H232271   5.701   0.034   6.280 -1.6779  0.3634 -0.6878
 3594TIP3   OH232272   3.392   5.393   0.218 -0.2523 -0.8586  0.5655
 3594TIP3    H132273   3.383   5.451   0.142 -0.5664 -2.1660 -0.4306
 3594TIP3    H232274   3.351   5.441   0.290 -1.5385 -0.3158 -0.4814
 3595TIP3   OH232275   6.431   5.590   0.370  0.0617 -0.3804  0.3998
 3595TIP3    H132276   6.441   5.629   0.283 -0.7099  0.7326  0.7861
 3595TIP3    H232277   6.447   5.497   0.356  0.5315 -0.1409 -0.8245
 3596TIP3   OH232278   1.728   3.159  16.658  0.2298 -0.2703 -0.7035
 3596TIP3    H132279   1.771   3.120  16.734  1.7156  2.7235  0.1578
 3596TIP3    H232280   1.794   3.155  16.589  0.0159 -0.2281 -0.9105
 3597TIP3   OH232281   4.041   3.308  13.815  0.3828 -0.4038 -0.4915
 3597TIP3    H132282   3.965   3.251  13.812  1.1625 -1.5148  0.2948
 3597TIP3    H232283   4.023   3.369  13.886  0.3186 -0.8003 -0.1651
 3598TIP3   OH232284   1.879   3.845  15.160  0.0145 -0.2266  0.6113
 3598TIP3    H132285   1.891   3.865  15.067  0.2958  2.1074  1.0966
 3598TIP3    H232286   1.961   3.804  15.186  0.6109  0.6598  0.1855
 3599TIP3   OH232287   3.273   2.915  11.507  0.5641  0.0920 -0.8995
 3599TIP3    H132288   3.191   2.924  11.459  0.5070  1.1538 -0.6457
 3599TIP3    H232289   3.332   2.868  11.448 -0.4272 -1.3011 -0.8165
 3600TIP3   OH232290   0.763   0.947   2.016 -0.7101  0.2698  0.2350
 3600TIP3    H132291   0.787   0.868   1.967 -1.5696 -0.8762  1.5623
 3600TIP3    H232292   0.720   1.003   1.952  0.3879 -0.1081 -0.8595
 3601TIP3   OH232293   1.806   6.125   4.824  0.4664  0.4425  0.5876
 3601TIP3    H132294   1.811   6.041   4.869 -0.3645  0.2372  0.3189
 3601TIP3    H232295   1.892   6.137   4.785  0.5380 -0.3709  0.4750
 3602TIP3   OH232296   0.939   2.679   3.784 -0.0533 -0.1956  0.2011
 3602TIP3    H132297   1.005   2.611   3.771 -0.3069 -0.5730  0.8483
 3602TIP3    H232298   0.930   2.686   3.879  0.4035  1.1682  0.1607
 3603TIP3   OH232299   5.838   1.371   5.788 -0.2665  0.1036 -0.0911
 3603TIP3    H132300   5.836   1.441   5.722 -2.7896  1.9180  1.6928
 3603TIP3    H232301   5.906   1.398   5.849 -0.7672  0.6952  0.2224
 3604TIP3   OH232302   2.105   1.115   5.507  0.8506  0.4513  0.1254
 3604TIP3    H132303   2.097   1.082   5.597  1.5838  1.1746  0.4708
 3604TIP3    H232304   2.164   1.191   5.515  1.5126  0.0831 -1.0705
 3605TIP3   OH232305   5.065   1.405   2.983  0.2583  0.4975 -0.6411
 3605TIP3    H132306   5.141   1.418   2.926  1.7750 -1.2848  0.8452
 3605TIP3    H232307   5.098   1.422   3.071 -2.2674  4.1807 -0.2106
 3606TIP3   OH232308   1.027   4.279  16.597 -0.3139 -0.0330  0.2964
 3606TIP3    H132309   1.107   4.229  16.611 -0.4686 -0.3307  0.1256
 3606TIP3    H232310   0.958   4.213  16.589 -0.7185  0.2477  1.3310
 3607TIP3   OH232311   0.706   2.219  15.121 -0.4651  0.1638 -0.2835
 3607TIP3    H132312   0.734   2.266  15.043 -1.9225  0.5315 -0.6240
 3607TIP3    H232313   0.631   2.167  15.093 -0.7831  0.0147  0.7811
 3608TIP3   OH232314   4.924   3.174   0.198  0.3229  0.3836  0.4495
 3608TIP3    H132315   5.019   3.164   0.198  0.2492 -0.5249  1.3245
 3608TIP3    H232316   4.909   3.266   0.177  1.4747  1.0585  2.3309
 3609TIP3   OH232317   1.063   5.814  12.118 -0.0255  0.0542  0.7495
 3609TIP3    H132318   1.119   5.852  12.051  0.9709 -0.1132  1.4583
 3609TIP3    H232319   1.075   5.871  12.195  0.1503 -0.6866  1.2843
 3610TIP3   OH232320   6.066   4.733  12.445 -0.1699  0.1336 -0.0183
 3610TIP3    H132321   5.994   4.770  12.394  0.1779  0.2072 -0.4589
 3610TIP3    H232322   6.095   4.658  12.394  0.4151  0.4162 -0.1083
 3611TIP3   OH232323   5.287   6.769   3.677  0.1364  0.1259  0.6566
 3611TIP3    H132324   5.248   6.719   3.749  0.6697  0.6051  1.2866
 3611TIP3    H232325   5.381   6.767   3.694  0.4689 -1.2084 -0.9692
 3612TIP3   OH232326   2.901   3.599   5.169  0.4854  0.1971  0.3085
 3612TIP3    H132327   2.830   3.551   5.212  0.9409 -2.1851 -1.3748
 3612TIP3    H232328   2.947   3.532   5.117  1.7669  2.3123 -1.4622
 3613TIP3   OH232329   2.863   6.643  11.835  0.1352  0.5330 -0.3085
 3613TIP3    H132330   2.893   6.670  11.922  0.7639 -1.0041 -0.0080
 3613TIP3    H232331   2.899   6.710  11.776  3.1032 -0.4444  0.1981
 3614TIP3   OH232332   4.964   4.258  16.936 -0.1172  0.1723 -0.1003
 3614TIP3    H132333   4.870   4.244  16.950 -1.0361  4.3497 -0.9660
 3614TIP3    H232334   4.978   4.233  16.845 -0.2616 -0.7519  0.1134
 3615TIP3   OH232335   1.938   0.778   3.990 -0.0333 -0.0574 -0.4117
 3615TIP3    H132336   2.004   0.767   3.921  1.8063 -2.9692  1.5963
 3615TIP3    H232337   1.865   0.722   3.962  0.2326 -0.3539 -0.5163
 3616TIP3   OH232338   2.358   2.888   4.904 -0.1894  0.1088  0.6804
 3616TIP3    H132339   2.444   2.930   4.908  0.4090 -0.9195 -0.5845
 3616TIP3    H232340   2.377   2.794   4.900 -1.1636 -0.0840 -2.1566
 3617TIP3   OH232341   0.366   5.536  17.171 -0.3217 -0.3470  0.1961
 3617TIP3    H132342   0.358   5.615  17.225 -1.1578 -1.0559  1.1479
 3617TIP3    H232343   0.392   5.568  17.085 -1.8191  1.0740  0.2357
 3618TIP3   OH232344   4.282   5.829  11.756 -0.3522  0.1912 -0.9334
 3618TIP3    H132345   4.229   5.906  11.733 -0.1233  0.8724  0.7226
 3618TIP3    H232346   4.218   5.760  11.772 -0.5847  0.1873 -1.8052
 3619TIP3   OH232347   5.315   3.620   1.740 -0.4722  0.5334  0.0956
 3619TIP3    H132348   5.258   3.591   1.670 -1.4783  2.4153  0.0602
 3619TIP3    H232349   5.302   3.715   1.743  1.9145  0.9026  0.7544
 3620TIP3   OH232350   3.164   5.911  14.332 -0.2754 -0.3019  0.3618
 3620TIP3    H132351   3.081   5.932  14.289  0.1246 -0.3600 -0.4597
 3620TIP3    H232352   3.225   5.979  14.301  0.8173 -2.0655 -1.6483
 3621TIP3   OH232353   6.500   3.419  13.681 -0.2665  0.2940  0.4808
 3621TIP3    H132354   6.490   3.498  13.734 -2.1499 -0.7206  1.7876
 3621TIP3    H232355   6.571   3.370  13.722  0.3139  0.8940  0.1983
 3622TIP3   OH232356   6.316   3.418  12.318 -0.1456  0.3157 -0.0659
 3622TIP3    H132357   6.404   3.387  12.338  0.4365  1.3319 -1.0083
 3622TIP3    H232358   6.328   3.504  12.279 -1.6311  1.0702  0.9933
 3623TIP3   OH232359   6.144   6.718   1.195  0.3564 -0.2524  0.0382
 3623TIP3    H132360   6.169   6.713   1.103 -0.8959 -0.1181 -0.3372
 3623TIP3    H232361   6.048   6.725   1.193  0.4028  1.3700  1.2812
 3624TIP3   OH232362   0.786   5.261  11.912  0.2030 -0.0046  0.3916
 3624TIP3    H132363   0.694   5.271  11.936  0.6354  0.1088  2.1424
 3624TIP3    H232364   0.834   5.297  11.987  1.6756  1.0853 -1.0134
 3625TIP3   OH232365   3.961   5.430  16.547  0.1871  0.3360 -0.5430
 3625TIP3    H132366   4.047   5.464  16.519 -0.2011  0.3058 -1.8467
 3625TIP3    H232367   3.976   5.336  16.559  0.5504  0.4739  0.1666
 3626TIP3   OH232368   4.669   4.728   3.403 -0.2171  0.1841 -0.0109
 3626TIP3    H132369   4.691   4.649   3.354 -0.3063  0.0171  0.2157
 3626TIP3    H232370   4.752   4.754   3.444 -0.3691 -0.2888  0.6192
 3627TIP3   OH232371   4.568   1.999   1.838 -0.0856 -0.5070  0.1225
 3627TIP3    H132372   4.658   1.973   1.858 -0.0910 -0.0183  0.8073
 3627TIP3    H232373   4.520   1.917   1.831 -0.0175 -0.7176  1.8289
 3628TIP3   OH232374   0.055   5.877  13.244 -0.3512  0.7899  0.0815
 3628TIP3    H132375   0.039   5.783  13.255  0.3116  0.6277 -0.2818
 3628TIP3    H232376  -0.032   5.917  13.252 -0.4364  0.3197  1.8833
 3629TIP3   OH232377   6.391   5.902  14.377  0.5420 -1.2469 -0.3691
 3629TIP3    H132378   6.380   5.883  14.470  2.1646 -0.1718  0.0799
 3629TIP3    H232379   6.355   5.990  14.366  0.7732 -1.1842 -0.6557
 3630TIP3   OH232380   3.109   2.530  11.410 -0.0432  0.0843 -0.2013
 3630TIP3    H132381   3.026   2.526  11.362 -0.8109  0.3898  1.0616
 3630TIP3    H232382   3.171   2.483  11.354 -1.2295 -0.7903 -0.8329
 3631TIP3   OH232383   2.496   0.135   4.603  0.2342 -1.2484 -0.2586
 3631TIP3    H132384   2.481   0.044   4.577  0.5107 -1.4048  0.1221
 3631TIP3    H232385   2.566   0.131   4.667 -0.0179 -0.8022  0.0549
 3632TIP3   OH232386   4.943   5.552  14.207 -0.6802  0.2529  0.3066
 3632TIP3    H132387   4.887   5.586  14.137 -0.6796  0.9086  0.6136
 3632TIP3    H232388   4.932   5.614  14.279  0.3037  0.2927  0.4365
 3633TIP3   OH232389   5.036   2.062  12.742 -0.6306 -0.2862 -0.3214
 3633TIP3    H132390   5.111   2.011  12.711 -1.0264 -0.7555 -0.5125
 3633TIP3    H232391   5.075   2.134  12.793 -0.0751 -0.7990 -0.0143
 3634TIP3   OH232392   5.108   2.903  12.121  0.7431  0.1659 -0.0457
 3634TIP3    H132393   5.068   2.926  12.205 -0.1541 -0.8104 -0.1859
 3634TIP3    H232394   5.046   2.935  12.055  0.8839 -0.1057 -0.3109
 3635TIP3   OH232395   2.901   1.607   2.709  0.0391  0.3604 -0.5966
 3635TIP3    H132396   2.964   1.550   2.752  0.9822  1.2793 -0.7295
 3635TIP3    H232397   2.952   1.655   2.644 -1.0816  0.0493 -1.7526
 3636TIP3   OH232398   6.409   2.150   5.719  0.2863  0.7264  0.3036
 3636TIP3    H132399   6.490   2.103   5.699  0.0187  0.8273 -1.0520
 3636TIP3    H232400   6.356   2.086   5.767  1.3318  0.8159  1.6693
 3637TIP3   OH232401   0.161   6.096  15.343  0.1481  0.1239 -0.5479
 3637TIP3    H132402   0.109   6.017  15.356 -0.1869  0.4880  0.4084
 3637TIP3    H232403   0.109   6.150  15.284 -0.7195  0.6158  0.6404
 3638TIP3   OH232404   0.246   3.944   5.198  0.4290 -0.1890  0.3690
 3638TIP3    H132405   0.322   3.994   5.168 -0.9350  1.2738 -0.8251
 3638TIP3    H232406   0.232   3.878   5.131  1.4616 -1.4213  1.3121
 3639TIP3   OH232407   6.618   5.237   5.968 -0.0601 -0.2614  0.0337
 3639TIP3    H132408   6.551   5.173   5.942 -0.8636  0.1564  1.0130
 3639TIP3    H232409   6.685   5.184   6.011 -0.2021 -0.5720 -0.1170
 3640TIP3   OH232410   1.193   5.063  13.678 -0.0150 -0.1102 -0.1307
 3640TIP3    H132411   1.106   5.062  13.717  0.3955  2.5847  1.0361
 3640TIP3    H232412   1.185   5.009  13.599 -3.2415  1.6010 -1.1287
 3641TIP3   OH232413   0.798   3.120  13.594 -0.2361  0.8245  0.1495
 3641TIP3    H132414   0.718   3.172  13.591 -2.2992 -2.0998 -0.1518
 3641TIP3    H232415   0.817   3.110  13.687  0.9613  3.0614  0.2055
 3642TIP3   OH232416   6.158   3.867  15.660  0.0424 -0.1179  0.0106
 3642TIP3    H132417   6.219   3.878  15.733  1.5245 -0.8008 -1.0587
 3642TIP3    H232418   6.144   3.772  15.655  0.6480 -0.1706 -1.0837
 3643TIP3   OH232419   5.677   5.290   0.138 -0.2461  0.3653  0.3207
 3643TIP3    H132420   5.737   5.281   0.063  1.0115  1.8539  1.0791
 3643TIP3    H232421   5.590   5.275   0.101  0.5300 -1.5358 -0.8973
 3644TIP3   OH232422   3.190   1.849   5.377 -0.2084  0.2619  0.2414
 3644TIP3    H132423   3.225   1.763   5.399 -2.9952 -1.0347  0.0021
 3644TIP3    H232424   3.234   1.909   5.438  4.3556 -0.6180 -1.7543
 3645TIP3   OH232425   4.713   5.040   0.679 -0.6263  0.1486  0.2081
 3645TIP3    H132426   4.647   5.029   0.748 -0.9298 -1.0202 -0.2441
 3645TIP3    H232427   4.753   5.125   0.698 -0.7518 -0.1079  1.7764
 3646TIP3   OH232428   0.162   5.613   3.076 -0.0671  0.0777  0.3443
 3646TIP3    H132429   0.235   5.624   3.015 -0.0578  1.6338  0.6040
 3646TIP3    H232430   0.110   5.542   3.039  0.4045  0.4138 -1.0115
 3647TIP3   OH232431   4.562   1.876  14.105  0.3932  0.4476  0.6601
 3647TIP3    H132432   4.620   1.801  14.092 -1.6806 -0.7934 -2.8714
 3647TIP3    H232433   4.503   1.850  14.176  1.8883  0.2884  1.8840
 3648TIP3   OH232434   0.449   2.822   0.738  0.1930  0.0143 -0.4338
 3648TIP3    H132435   0.370   2.786   0.698  0.4656 -1.1887  0.0859
 3648TIP3    H232436   0.520   2.796   0.680  0.4356 -0.6251  0.1374
 3649TIP3   OH232437   1.214   1.508   2.726  0.1541 -0.3893  0.0365
 3649TIP3    H132438   1.156   1.437   2.755  1.6280 -2.1815 -1.2160
 3649TIP3    H232439   1.291   1.501   2.783  0.6101 -0.2606 -0.5580
 3650TIP3   OH232440   4.809   1.779   3.758 -0.0371 -0.2021 -0.2736
 3650TIP3    H132441   4.723   1.778   3.799 -1.0182  0.3375 -2.2034
 3650TIP3    H232442   4.830   1.872   3.749  0.0321 -0.2994 -1.2044
 3651TIP3   OH232443   2.664   6.490   4.879 -0.0533  0.3285  0.1339
 3651TIP3    H132444   2.576   6.517   4.905  0.6661  1.4889  1.5256
 3651TIP3    H232445   2.720   6.516   4.953  1.3622 -1.0337 -0.3935
 3652TIP3   OH232446   1.215   4.785  12.775 -0.1295 -0.0856  0.3892
 3652TIP3    H132447   1.159   4.709  12.766 -0.1912 -0.1739  1.4068
 3652TIP3    H232448   1.249   4.780  12.864  1.4375  0.0094 -0.1815
 3653TIP3   OH232449   2.098   0.591  13.680 -0.2220  0.6533 -0.4307
 3653TIP3    H132450   2.109   0.631  13.594 -0.2389  0.4302 -0.5367
 3653TIP3    H232451   2.004   0.592  13.696 -0.3020 -0.1899 -0.8387
 3654TIP3   OH232452   3.573   1.156   4.337  0.3055  0.7153 -0.2857
 3654TIP3    H132453   3.632   1.123   4.269  0.8685 -0.0061  0.5309
 3654TIP3    H232454   3.567   1.085   4.401  0.4973  1.6825  0.8583
 3655TIP3   OH232455   1.984   1.551   1.073  0.2276 -0.1578  0.5242
 3655TIP3    H132456   2.045   1.618   1.043 -1.2190  0.2671 -1.7845
 3655TIP3    H232457   2.013   1.471   1.031 -0.4044 -0.0848 -0.0730
 3656TIP3   OH232458   6.377   6.062   0.769 -0.8542 -0.9726 -0.7036
 3656TIP3    H132459   6.439   6.004   0.726  1.3832  0.0006  0.9620
 3656TIP3    H232460   6.391   6.147   0.727 -1.3350 -0.8281 -0.5770
 3657TIP3   OH232461   3.857   6.575   5.087 -0.4669 -0.2843 -0.3776
 3657TIP3    H132462   3.903   6.548   5.166 -1.4026  0.8001  0.5746
 3657TIP3    H232463   3.821   6.662   5.108  0.0126  0.4323 -2.3054
 3658TIP3   OH232464   6.635   4.676  14.753  0.6907  0.3950  0.2838
 3658TIP3    H132465   6.581   4.689  14.675  1.2623 -1.8397 -0.5365
 3658TIP3    H232466   6.588   4.722  14.823 -1.2090  0.2179 -0.8253
 3659TIP3   OH232467   5.954   3.183   5.076  0.5655 -0.4008 -0.2674
 3659TIP3    H132468   5.965   3.277   5.069  2.6903 -0.4768  1.1266
 3659TIP3    H232469   5.957   3.152   4.985 -1.0665  0.8927 -0.8150
 3660TIP3   OH232470   6.129   1.171  14.869 -0.5242 -0.7629  0.2654
 3660TIP3    H132471   6.042   1.164  14.829 -0.5023 -2.4432  0.4556
 3660TIP3    H232472   6.118   1.131  14.956  0.2099 -0.0516  0.7044
 3661TIP3   OH232473   3.860   2.561   4.075 -0.8818 -0.7077  0.5961
 3661TIP3    H132474   3.842   2.467   4.062 -1.2897 -0.8120  1.8106
 3661TIP3    H232475   3.926   2.582   4.009  0.3530 -2.2200  1.2828
 3662TIP3   OH232476   1.989   6.558   0.267 -0.2405  0.3136  0.4005
 3662TIP3    H132477   2.020   6.486   0.321 -1.4083 -1.9687 -1.7902
 3662TIP3    H232478   2.056   6.566   0.198 -0.3251  1.0914  0.3989
 3663TIP3   OH232479   1.488   6.563  16.385 -0.5102  0.5809  0.1934
 3663TIP3    H132480   1.532   6.595  16.307 -1.6298  2.7914  0.3875
 3663TIP3    H232481   1.556   6.515  16.433  1.4048  2.7856 -0.1111
 3664TIP3   OH232482   2.193   5.391   1.232  0.0655  0.0854 -0.1532
 3664TIP3    H132483   2.144   5.395   1.314 -0.5067 -1.1925 -0.4087
 3664TIP3    H232484   2.130   5.416   1.164  0.5897  1.3426 -0.2220
 3665TIP3   OH232485   4.670   6.192  12.555 -0.2660 -0.3859  0.3852
 3665TIP3    H132486   4.692   6.102  12.528  0.0521 -0.6507  1.4419
 3665TIP3    H232487   4.630   6.181  12.641 -1.7787  0.3692 -0.1938
 3666TIP3   OH232488   3.438   6.099   0.607 -0.0790 -0.2845 -0.4615
 3666TIP3    H132489   3.447   6.128   0.698  2.1349  1.4553 -1.1473
 3666TIP3    H232490   3.453   6.004   0.611  1.4386 -0.0372  0.8325
 3667TIP3   OH232491   2.802   0.448   4.958  0.5200  0.5012  0.2049
 3667TIP3    H132492   2.836   0.361   4.940  2.1048  1.2674 -0.6633
 3667TIP3    H232493   2.713   0.432   4.991  1.1308 -1.4749  1.0331
 3668TIP3   OH232494   3.175   1.645   1.741 -0.1183  0.0235  0.4182
 3668TIP3    H132495   3.226   1.631   1.820  0.4597 -0.5967 -0.0499
 3668TIP3    H232496   3.087   1.613   1.763 -0.1011  0.3447  0.9684
 3669TIP3   OH232497   6.211   0.527   0.117 -0.0238 -0.6137  0.3405
 3669TIP3    H132498   6.161   0.472   0.057 -0.5033 -0.0257  0.1955
 3669TIP3    H232499   6.301   0.495   0.108 -0.4464 -2.0828  1.0624
 3670TIP3   OH232500   5.413   1.679   5.538 -0.7477 -0.2877  0.2566
 3670TIP3    H132501   5.360   1.600   5.527 -0.5539 -0.6386  1.6941
 3670TIP3    H232502   5.462   1.664   5.619  0.7638  0.4850 -0.4807
 3671TIP3   OH232503   3.759   5.456   3.427 -0.4593  0.4472  0.2424
 3671TIP3    H132504   3.732   5.480   3.338 -0.4358 -0.9864 -0.1717
 3671TIP3    H232505   3.825   5.388   3.414  0.3160  0.9639  1.3485
 3672TIP3   OH232506   4.468   3.945  15.611 -0.0875 -0.2027 -0.8036
 3672TIP3    H132507   4.475   3.865  15.560  1.9010  0.2534 -1.3575
 3672TIP3    H232508   4.424   4.007  15.553 -2.0122 -0.9562 -0.2217
 3673TIP3   OH232509   4.539   2.350  15.937  0.2230  0.1153 -0.4030
 3673TIP3    H132510   4.623   2.306  15.943  0.7992  1.3178  1.3743
 3673TIP3    H232511   4.561   2.442  15.919 -0.6308  0.5849  0.7787
 3674TIP3   OH232512   0.960   1.069   1.158  0.1732 -0.3223 -0.1451
 3674TIP3    H132513   0.986   1.119   1.236  0.6016  0.0248 -0.5090
 3674TIP3    H232514   0.991   0.980   1.175 -0.9031 -0.5785  0.6632
 3675TIP3   OH232515   1.291   0.239   2.281  0.0487  0.6059  0.1706
 3675TIP3    H132516   1.332   0.303   2.222 -2.8365  0.5890 -2.0425
 3675TIP3    H232517   1.250   0.292   2.349 -0.6219  1.0055 -0.5303
 3676TIP3   OH232518   1.133   3.653   4.991 -0.3338 -0.2041  0.2068
 3676TIP3    H132519   1.055   3.659   4.936 -0.8881 -2.1914  0.7199
 3676TIP3    H232520   1.154   3.560   4.995  2.5499  0.2863 -0.5136
 3677TIP3   OH232521   6.494   0.996   5.641  0.0720 -0.4103  0.3705
 3677TIP3    H132522   6.541   0.950   5.571  1.6975  0.3637  0.9128
 3677TIP3    H232523   6.434   0.930   5.676 -0.8864 -0.7880 -1.8065
 3678TIP3   OH232524   1.331   4.368   0.605  0.4333  0.7043  0.6493
 3678TIP3    H132525   1.305   4.449   0.561 -1.4384  0.6374  1.5479
 3678TIP3    H232526   1.419   4.386   0.638  0.8165  1.6737 -0.8008
 3679TIP3   OH232527   0.705   0.998   4.091 -0.1824 -0.7095 -0.9788
 3679TIP3    H132528   0.663   0.916   4.065  0.2639 -0.8674 -1.1976
 3679TIP3    H232529   0.767   0.972   4.159  0.1602 -0.5946 -1.2459
 3680TIP3   OH232530   1.102   2.965   3.146  0.3497  0.6585 -0.3523
 3680TIP3    H132531   1.149   3.001   3.222 -1.8242 -0.0484  1.4360
 3680TIP3    H232532   1.076   2.877   3.173 -1.7435  0.9160 -1.2929
 3681TIP3   OH232533   6.508   2.906   3.826  0.2571  0.2676  0.1932
 3681TIP3    H132534   6.515   3.001   3.814  1.3312  0.2286  0.4394
 3681TIP3    H232535   6.416   2.892   3.848  0.3313  1.3901  1.3598
 3682TIP3   OH232536   6.746   3.648   4.821 -0.2164 -0.1574  0.1919
 3682TIP3    H132537   6.747   3.586   4.748 -2.4412 -0.4596  0.3388
 3682TIP3    H232538   6.731   3.733   4.780 -2.2689 -0.4280  0.2834
 3683TIP3   OH232539   0.961   0.527  14.458  0.0819  0.2284  0.1519
 3683TIP3    H132540   1.019   0.455  14.481 -2.8700 -2.1178  0.8886
 3683TIP3    H232541   1.017   0.604  14.458  3.4670 -2.0024 -0.7537
 3684TIP3   OH232542   3.977   3.771   1.045  0.7952  0.2689 -0.4619
 3684TIP3    H132543   3.891   3.806   1.023  0.2880  0.1191  1.1506
 3684TIP3    H232544   3.966   3.731   1.131  3.5202  4.6228  2.3220
 3685TIP3   OH232545   1.159   1.315   3.721  0.8240 -0.1969  0.1443
 3685TIP3    H132546   1.065   1.318   3.707  0.8929 -1.5794 -0.8075
 3685TIP3    H232547   1.170   1.341   3.812 -0.4608  0.1438  0.2230
 3686TIP3   OH232548   3.725   5.211   0.930 -0.4032 -0.2656  1.2427
 3686TIP3    H132549   3.742   5.126   0.889  0.6331  0.2861  0.4853
 3686TIP3    H232550   3.669   5.191   1.005  0.4977 -1.7150  1.5620
 3687TIP3   OH232551   5.155   4.513   1.403  0.1786 -0.4428 -0.0471
 3687TIP3    H132552   5.115   4.584   1.353  1.2376  0.6589  0.6241
 3687TIP3    H232553   5.249   4.530   1.398  0.3589 -0.7095  1.7102
 3688TIP3   OH232554   3.563   5.069   4.184  0.1008  0.2957  0.0783
 3688TIP3    H132555   3.508   5.110   4.117 -1.5945 -0.6086  0.8213
 3688TIP3    H232556   3.539   4.976   4.180 -0.0452  0.2101  1.8822
 3689TIP3   OH232557   2.940   4.567   3.233  0.1078  0.5583  0.5693
 3689TIP3    H132558   2.945   4.501   3.164  1.0796  0.6726  0.5090
 3689TIP3    H232559   3.031   4.596   3.244 -0.3265  2.0546  0.4309
 3690TIP3   OH232560   3.145   6.635  13.568 -0.4766 -0.2348 -0.0626
 3690TIP3    H132561   3.194   6.705  13.523  0.1184 -0.1559  0.6912
 3690TIP3    H232562   3.131   6.569  13.500 -0.7455  0.4546 -0.7014
 3691TIP3   OH232563   6.174   3.581   0.602  0.1451 -0.2141  0.4208
 3691TIP3    H132564   6.091   3.590   0.556  1.1742  0.9269 -1.3014
 3691TIP3    H232565   6.183   3.662   0.651  1.1305  0.5551 -0.9752
 3692TIP3   OH232566   6.561   3.891  16.396 -0.4498 -0.1535 -0.0003
 3692TIP3    H132567   6.612   3.941  16.332  0.0414 -2.0557 -1.1530
 3692TIP3    H232568   6.470   3.901  16.366 -0.2058 -1.1978 -1.1450
 3693TIP3   OH232569   1.087   6.302  14.583 -0.2933 -0.7406  0.5387
 3693TIP3    H132570   1.043   6.217  14.588 -1.7226 -0.1990 -1.4541
 3693TIP3    H232571   1.021   6.365  14.613 -0.4920 -0.0409 -1.2405
 3694TIP3   OH232572   0.987   5.600  11.961 -0.4599 -0.2853  0.1275
 3694TIP3    H132573   1.027   5.667  12.017 -0.4538  1.0270 -1.3922
 3694TIP3    H232574   1.056   5.578  11.899 -0.8834 -0.7930 -0.1630
 3695TIP3   OH232575   4.637   4.026  14.763  0.0758  0.1931 -0.2172
 3695TIP3    H132576   4.554   4.013  14.808  0.1400 -1.2640 -0.4816
 3695TIP3    H232577   4.649   4.121  14.763 -2.2414  0.5480 -1.3665
 3696TIP3   OH232578   4.638   4.051   6.268  0.3186 -0.0440 -0.0181
 3696TIP3    H132579   4.550   4.045   6.306  0.3591 -1.3658 -0.0762
 3696TIP3    H232580   4.686   3.978   6.307  0.6077 -0.9688 -1.9714
 3697TIP3   OH232581   4.665   0.392  13.377 -0.1979  0.2178 -0.0041
 3697TIP3    H132582   4.671   0.458  13.446 -0.2996  1.2560 -0.9646
 3697TIP3    H232583   4.649   0.442  13.297  0.6069 -0.9123 -0.8947
 3698TIP3   OH232584   3.292   5.869  12.157  0.4070  0.1292  0.6497
 3698TIP3    H132585   3.206   5.828  12.145  0.4079 -0.1598  1.5508
 3698TIP3    H232586   3.352   5.797  12.173  0.9398  0.2876 -0.5154
 3699TIP3   OH232587   4.265   0.749  14.870  0.5868 -0.5770  0.6396
 3699TIP3    H132588   4.325   0.783  14.937 -0.2818  0.7562  0.7970
 3699TIP3    H232589   4.292   0.658  14.857  1.0638 -0.7427  2.4790
 3700TIP3   OH232590   2.940   5.797  15.892 -0.8142  0.2172 -0.0372
 3700TIP3    H132591   2.998   5.723  15.878 -2.7539 -1.0297 -2.1218
 3700TIP3    H232592   2.988   5.872  15.856 -0.0362 -0.5864 -0.7261
 3701TIP3   OH232593   0.379   2.922   1.051 -0.3051  0.1204 -0.4582
 3701TIP3    H132594   0.388   2.841   1.001 -2.1079  0.3043 -1.1728
 3701TIP3    H232595   0.418   2.989   0.995 -0.2858 -0.0154 -0.6076
 3702TIP3   OH232596   0.591   5.110  11.442 -0.5466  0.0311 -0.4182
 3702TIP3    H132597   0.630   5.032  11.405  0.8732  0.3242  0.3664
 3702TIP3    H232598   0.581   5.090  11.536 -1.4268  0.3127 -0.4409
 3703TIP3   OH232599   1.722   3.564  11.617  0.4658 -0.2852 -0.2396
 3703TIP3    H132600   1.711   3.633  11.552  0.5060  1.5737  1.6242
 3703TIP3    H232601   1.668   3.592  11.691 -0.1497 -2.6790  0.3117
 3704TIP3   OH232602   5.828   1.457  12.853 -0.7390 -0.1231 -0.0666
 3704TIP3    H132603   5.772   1.534  12.838 -0.4588  0.1473  0.2600
 3704TIP3    H232604   5.900   1.490  12.907 -0.0986 -0.3943 -0.7406
 3705TIP3   OH232605   2.078   0.775  14.791 -0.1487 -0.2286  0.2935
 3705TIP3    H132606   2.030   0.835  14.848 -0.6319  1.5322 -1.8305
 3705TIP3    H232607   2.044   0.688  14.813 -0.2011  0.3170  2.7311
 3706TIP3   OH232608   6.070   4.185  11.559  0.8628 -0.2410 -0.4656
 3706TIP3    H132609   6.044   4.094  11.545  0.1566 -0.1089 -0.0382
 3706TIP3    H232610   6.062   4.225  11.473 -1.5005  0.0752 -0.1537
 3707TIP3   OH232611   3.989   1.530   0.365 -0.1056  0.3989  0.5041
 3707TIP3    H132612   3.925   1.482   0.312  0.4910  2.2161 -2.0568
 3707TIP3    H232613   3.936   1.573   0.433 -0.8250 -2.4381  1.8715
 3708TIP3   OH232614   3.574   5.757  11.314 -0.0484  0.0314 -0.2995
 3708TIP3    H132615   3.546   5.683  11.368 -0.0700  1.2984  1.5124
 3708TIP3    H232616   3.665   5.738  11.292 -0.1466 -0.6745 -0.1217
 3709TIP3   OH232617   2.280   4.360  14.857 -0.3772  0.0467  0.4050
 3709TIP3    H132618   2.367   4.320  14.853 -0.1882  0.5279 -0.3519
 3709TIP3    H232619   2.297   4.454  14.863 -0.8423  0.0966  1.0981
 3710TIP3   OH232620   4.152   4.681  13.407  0.0118  0.1549  0.0509
 3710TIP3    H132621   4.237   4.660  13.446 -0.9659 -1.4635  1.5074
 3710TIP3    H232622   4.096   4.699  13.482 -1.5832 -1.5564 -0.6588
 3711TIP3   OH232623   6.397   4.489   4.050  0.0487 -0.3508 -0.2323
 3711TIP3    H132624   6.453   4.416   4.024 -1.0598 -2.2691  2.3230
 3711TIP3    H232625   6.443   4.531   4.122 -1.3761 -1.5582  1.4718
 3712TIP3   OH232626   2.827   1.918  13.297  0.2310 -0.2406  0.2715
 3712TIP3    H132627   2.761   1.851  13.314  0.9537 -0.8380  0.7972
 3712TIP3    H232628   2.781   2.001  13.313 -0.0855 -0.6768  1.8540
 3713TIP3   OH232629   4.739   5.906  12.494 -0.0745 -0.4746  0.3952
 3713TIP3    H132630   4.787   5.886  12.575  0.9745 -1.1574 -0.3646
 3713TIP3    H232631   4.803   5.891  12.425  0.4220  4.0681 -0.4326
 3714TIP3   OH232632   5.012   4.627   0.058 -0.6023 -0.8098  0.5607
 3714TIP3    H132633   5.024   4.548   0.111  1.1485 -0.9490  0.0483
 3714TIP3    H232634   5.101   4.651   0.033 -1.2272  0.5387 -0.4524
 3715TIP3   OH232635   1.980   2.593   4.731  0.3587  0.0683  0.5702
 3715TIP3    H132636   2.031   2.671   4.751  0.0865  0.7089 -1.0920
 3715TIP3    H232637   2.044   2.521   4.736  1.2171  0.7262 -0.4460
 3716TIP3   OH232638   2.006   6.394  15.287 -0.6440 -0.2834  0.1036
 3716TIP3    H132639   2.001   6.298  15.290  1.5866 -0.4566  2.5292
 3716TIP3    H232640   1.981   6.422  15.375  0.9153  1.1409  0.1504
 3717TIP3   OH232641   3.973   4.299   2.697 -0.8682  0.0560  0.0422
 3717TIP3    H132642   3.984   4.363   2.768  2.1182 -1.0166  0.6706
 3717TIP3    H232643   4.030   4.331   2.627 -0.4309 -1.1509 -0.1746
 3718TIP3   OH232644   3.795   2.809  17.108  0.1421  0.3791  0.3277
 3718TIP3    H132645   3.744   2.881  17.144 -1.3072 -0.9692  1.1173
 3718TIP3    H232646   3.753   2.789  17.024 -0.1960 -0.2455  0.6327
 3719TIP3   OH232647   3.523   0.278   4.166 -0.3072  0.1042 -0.4735
 3719TIP3    H132648   3.439   0.301   4.206 -1.0254 -2.1963 -0.5317
 3719TIP3    H232649   3.562   0.216   4.227  1.4780  1.2700 -0.3648
 3720TIP3   OH232650   2.253   4.995  16.475  0.1727 -0.3826  0.0197
 3720TIP3    H132651   2.191   5.061  16.445  1.6903  0.7246 -0.8121
 3720TIP3    H232652   2.218   4.912  16.443 -0.3940  0.3221 -1.2601
 3721TIP3   OH232653   4.760   0.299   3.315 -0.1387 -0.0481  0.0717
 3721TIP3    H132654   4.709   0.221   3.291 -0.5989 -0.0110  0.8706
 3721TIP3    H232655   4.789   0.336   3.232 -1.8987  0.2462 -0.4443
 3722TIP3   OH232656   5.241   1.049  15.968 -0.8937 -0.7588 -1.1175
 3722TIP3    H132657   5.151   1.017  15.961 -1.8632  1.6617 -0.4527
 3722TIP3    H232658   5.263   1.039  16.061 -1.1078  0.2302 -0.9558
 3723TIP3   OH232659   2.571   0.956  16.528 -0.5026  0.6929 -0.0870
 3723TIP3    H132660   2.580   1.050  16.511  0.7301  0.6677  0.2828
 3723TIP3    H232661   2.612   0.914  16.453 -1.1711  0.4396 -0.3159
 3724TIP3   OH232662   3.982   4.240  12.320  0.7042  0.1851 -0.3968
 3724TIP3    H132663   4.015   4.215  12.234  2.3072 -0.0777  0.2638
 3724TIP3    H232664   3.990   4.161  12.373 -0.5856  0.2436 -0.0642
 3725TIP3   OH232665   0.227   2.998   4.862 -0.0988 -0.3672 -0.1578
 3725TIP3    H132666   0.318   3.021   4.875  0.4326 -1.2100 -2.0077
 3725TIP3    H232667   0.218   2.987   4.767 -2.4941  1.1818 -0.2187
 3726TIP3   OH232668   5.653   5.362  14.678 -0.3345 -0.2983  0.2085
 3726TIP3    H132669   5.618   5.418  14.609  0.6213 -2.2537 -2.0022
 3726TIP3    H232670   5.584   5.360  14.745 -0.8919  2.4167 -0.1939
 3727TIP3   OH232671   1.884   5.220   4.225 -0.0244 -0.5976  0.3454
 3727TIP3    H132672   1.846   5.168   4.155 -2.0167  0.9636  0.1973
 3727TIP3    H232673   1.885   5.162   4.301 -1.6102 -1.0839  0.0260
 3728TIP3   OH232674   2.246   4.019   5.615 -0.0024 -0.7572 -0.0229
 3728TIP3    H132675   2.259   3.943   5.558 -0.3511 -0.0700 -1.0188
 3728TIP3    H232676   2.158   4.050   5.595 -0.0365 -0.3500  0.7143
 3729TIP3   OH232677   6.243   6.201   1.937  0.0120  0.1800 -0.1663
 3729TIP3    H132678   6.283   6.150   1.867  1.4140 -0.0021  0.7234
 3729TIP3    H232679   6.317   6.235   1.987 -0.9121 -0.7775  1.9775
 3730TIP3   OH232680   1.541   3.991  10.521 -0.3581  0.2122  0.4778
 3730TIP3    H132681   1.592   3.914  10.549  0.9268  1.0789  0.5771
 3730TIP3    H232682   1.540   4.048  10.598 -0.0572  0.9361 -0.0459
 3731TIP3   OH232683   1.737   4.045  16.590  0.0168  0.3157 -0.0424
 3731TIP3    H132684   1.695   3.960  16.606  0.4949  0.0677 -0.0954
 3731TIP3    H232685   1.825   4.023  16.559  0.2330  0.8329  0.1917
 3732TIP3   OH232686   3.313   4.490   4.941 -0.7215 -0.6272  0.0305
 3732TIP3    H132687   3.268   4.561   4.895 -1.6094 -2.0093 -1.2922
 3732TIP3    H232688   3.396   4.529   4.969 -1.7675  1.3459  0.6287
 3733TIP3   OH232689   3.821   4.588  16.814 -0.2664  0.2137 -0.3779
 3733TIP3    H132690   3.812   4.616  16.723  0.2968  0.6426 -0.3068
 3733TIP3    H232691   3.756   4.519  16.824  0.5856 -0.8114 -1.5144
 3734TIP3   OH232692   4.398   4.236  13.957  0.7600 -0.6624 -0.0149
 3734TIP3    H132693   4.394   4.260  14.049  1.8799 -0.3686 -0.0240
 3734TIP3    H232694   4.335   4.294  13.914  0.3982 -0.6476  0.5326
 3735TIP3   OH232695   0.530   1.998  13.578  0.3029 -0.1774 -0.5334
 3735TIP3    H132696   0.596   1.981  13.645 -0.4556  0.7409  0.4725
 3735TIP3    H232697   0.551   1.936  13.508  1.3888 -0.8410  0.3461
 3736TIP3   OH232698   5.512   3.852  16.764  0.1402  0.1376 -0.3634
 3736TIP3    H132699   5.521   3.770  16.714  2.8017  0.4890 -0.6059
 3736TIP3    H232700   5.486   3.917  16.699 -0.1854 -0.1640 -0.5352
 3737TIP3   OH232701   3.807   3.439  10.952 -0.4759  0.1247  0.7071
 3737TIP3    H132702   3.796   3.347  10.975  0.4964  0.3104  2.0010
 3737TIP3    H232703   3.791   3.442  10.858  0.4168 -1.5397  0.4649
 3738TIP3   OH232704   3.021   6.239  14.446 -0.5420  0.3495  0.5209
 3738TIP3    H132705   3.017   6.144  14.442  1.9080  0.2191 -0.4041
 3738TIP3    H232706   2.956   6.263  14.511  0.1968 -2.0960  2.2923
 3739TIP3   OH232707   6.409   3.165  16.507 -0.2640  0.1909  0.8511
 3739TIP3    H132708   6.424   3.070  16.506  0.9276  0.3166  2.7157
 3739TIP3    H232709   6.321   3.175  16.472  0.3816 -1.4082 -1.4966
 3740TIP3   OH232710   3.146   3.207  16.223  0.1594 -0.5014  0.6130
 3740TIP3    H132711   3.144   3.196  16.128 -1.2962 -2.3557  0.8093
 3740TIP3    H232712   3.145   3.302  16.236  1.3205 -0.1760 -1.2008
 3741TIP3   OH232713   0.515   2.039  10.954  0.0337 -0.0720 -0.4672
 3741TIP3    H132714   0.462   1.975  10.907 -1.3842  1.4931 -1.1073
 3741TIP3    H232715   0.471   2.049  11.038 -0.1144  0.4865 -0.6064
 3742TIP3   OH232716   1.355   5.363   0.998  1.1730 -0.4112  0.8448
 3742TIP3    H132717   1.380   5.406   0.916  0.4412 -0.1293  0.7682
 3742TIP3    H232718   1.402   5.280   0.996  2.0817  0.0827  0.6836
 3743TIP3   OH232719   6.005   3.000  16.925 -0.0379 -0.1615 -0.2039
 3743TIP3    H132720   6.051   2.936  16.871 -2.2687  0.3977 -3.0477
 3743TIP3    H232721   6.072   3.064  16.949  1.3744 -1.2581 -1.0526
 3744TIP3   OH232722   6.334   1.197  13.646 -0.6289 -0.2502 -0.1051
 3744TIP3    H132723   6.318   1.104  13.661 -0.2681 -0.3090 -0.0628
 3744TIP3    H232724   6.400   1.200  13.577  0.3915 -0.0765  0.8277
 3745TIP3   OH232725   4.949   6.394   2.367 -0.7633 -0.2648 -0.0520
 3745TIP3    H132726   4.922   6.344   2.445 -1.0530 -0.2128 -0.1188
 3745TIP3    H232727   4.874   6.449   2.347 -1.4253 -1.6136 -1.4692
 3746TIP3   OH232728   0.034   5.414  14.454  0.7467 -0.0194  0.4079
 3746TIP3    H132729   0.084   5.459  14.523 -1.0437 -0.4787  2.1097
 3746TIP3    H232730   0.096   5.352  14.416  1.5660 -0.4454  2.3193
 3747TIP3   OH232731   6.158   2.814   4.417  0.4083 -0.0570 -0.6391
 3747TIP3    H132732   6.154   2.909   4.414  0.2097 -0.0549 -0.3765
 3747TIP3    H232733   6.117   2.786   4.335 -0.5931  0.0702 -0.1995
 3748TIP3   OH232734   3.995   3.160  13.525 -0.5171 -0.4846  0.2278
 3748TIP3    H132735   4.069   3.201  13.569  0.6878 -0.8309 -1.4153
 3748TIP3    H232736   3.980   3.213  13.447 -2.0314 -0.4128  0.5313
 3749TIP3   OH232737   2.725   2.858   4.007 -0.1215 -0.3241  0.2459
 3749TIP3    H132738   2.732   2.950   4.032 -1.1595  0.1891 -1.1776
 3749TIP3    H232739   2.693   2.814   4.085  0.6990  0.4624  1.0446
 3750TIP3   OH232740   4.504   1.760  12.439  0.0163 -0.0157  0.2821
 3750TIP3    H132741   4.528   1.740  12.349  0.4775  2.2104 -0.1528
 3750TIP3    H232742   4.408   1.752  12.441 -0.1967  1.6400 -0.9511
 3751TIP3   OH232743   6.156   6.504   0.437 -0.0313 -0.4442 -0.0831
 3751TIP3    H132744   6.204   6.487   0.356  0.4762  0.3518  0.0498
 3751TIP3    H232745   6.219   6.544   0.496 -0.3873 -1.0310  0.7326
 3752TIP3   OH232746   5.164   3.069   0.157 -1.0279 -0.9548 -0.0329
 3752TIP3    H132747   5.169   3.124   0.079 -2.5898 -1.0167 -0.1988
 3752TIP3    H232748   5.251   3.077   0.197 -0.7122  0.3527 -0.9082
 3753TIP3   OH232749   1.834   2.799  15.607  0.3263 -0.3841  0.2543
 3753TIP3    H132750   1.784   2.875  15.577 -1.4558 -0.9053  1.7329
 3753TIP3    H232751   1.923   2.816  15.577 -0.1465  1.9894 -0.0019
 3754TIP3   OH232752   3.238   6.742   6.286 -0.2177  0.1690 -0.1508
 3754TIP3    H132753   3.214   6.821   6.236 -0.4725 -0.2461 -0.6952
 3754TIP3    H232754   3.262   6.775   6.372  3.1471  1.2795 -1.3522
 3755TIP3   OH232755   2.322   1.834  12.869 -0.4181 -0.7041  0.3136
 3755TIP3    H132756   2.283   1.793  12.947 -2.3707  0.6096  0.1011
 3755TIP3    H232757   2.394   1.776  12.845  0.1053 -1.2826  2.9451
 3756TIP3   OH232758   2.266   5.316  16.800 -0.1172  0.2449  0.5424
 3756TIP3    H132759   2.175   5.318  16.832 -0.2173  1.1211  0.2453
 3756TIP3    H232760   2.311   5.383  16.853  0.5463 -0.7003  1.2057
 3757TIP3   OH232761   2.325   4.390   1.606  0.4169 -0.4089 -0.3051
 3757TIP3    H132762   2.260   4.435   1.552 -0.6585 -1.0689  0.3883
 3757TIP3    H232763   2.325   4.439   1.688 -0.6190 -1.5004  0.3828
 3758TIP3   OH232764   6.208   6.690   0.842  0.2444 -0.0997 -0.3111
 3758TIP3    H132765   6.297   6.700   0.878 -0.1294  0.3721  0.5019
 3758TIP3    H232766   6.197   6.595   0.833  0.9063 -0.1555 -0.6091
 3759TIP3   OH232767   3.712   3.410   6.116 -0.5146  0.1291  0.0102
 3759TIP3    H132768   3.660   3.490   6.103  0.6952  0.8143 -0.7752
 3759TIP3    H232769   3.665   3.362   6.184 -0.9315  1.8268  0.9908
 3760TIP3   OH232770   6.707   0.152  17.202  0.7806  0.5208  0.1715
 3760TIP3    H132771   6.718   0.242  17.234 -0.9918  0.2163  1.8860
 3760TIP3    H232772   6.695   0.162  17.108  0.5550  2.1016  0.3303
 3761TIP3   OH232773   1.353   5.720  16.946  0.1133 -0.1093  0.4260
 3761TIP3    H132774   1.276   5.681  16.988 -0.0661  1.5732  1.7855
 3761TIP3    H232775   1.425   5.662  16.971 -0.4702 -0.8402  0.4503
 3762TIP3   OH232776   1.753   5.901  15.845  0.3370  0.3260  0.0497
 3762TIP3    H132777   1.734   5.910  15.752  0.1363 -3.5526 -0.4414
 3762TIP3    H232778   1.672   5.868  15.884  1.0778 -0.2427  1.1781
 3763TIP3   OH232779   4.502   5.887   4.551 -0.3202 -0.1066  0.4164
 3763TIP3    H132780   4.467   5.805   4.585  0.1546 -1.9501 -3.1203
 3763TIP3    H232781   4.464   5.895   4.464  1.3593  2.3108 -0.1908
 3764TIP3   OH232782   0.003   4.617   1.319 -0.3870 -0.0870 -0.1176
 3764TIP3    H132783   0.095   4.592   1.315 -0.2582  0.3539  0.0289
 3764TIP3    H232784  -0.040   4.542   1.359 -0.1980 -0.5655 -0.7915
 3765TIP3   OH232785   5.705   6.521   1.496 -0.4384  0.5388  0.2034
 3765TIP3    H132786   5.715   6.499   1.589 -0.6482 -1.9933 -0.3063
 3765TIP3    H232787   5.794   6.531   1.464 -0.0753 -2.7731 -0.1502
 3766TIP3   OH232788   3.534   1.938   3.265  0.0739 -0.0859  0.4694
 3766TIP3    H132789   3.626   1.961   3.249 -0.1090  0.5072  0.2268
 3766TIP3    H232790   3.490   2.023   3.272 -0.6848 -0.3485 -0.7882
 3767TIP3   OH232791   5.831   3.417   0.329  0.3415 -0.1075  0.0495
 3767TIP3    H132792   5.864   3.327   0.326 -0.6599 -0.4840 -0.0592
 3767TIP3    H232793   5.832   3.446   0.238  1.4758  0.3204  0.1715
 3768TIP3   OH232794   2.689   6.768  14.051  0.7856 -0.5575 -0.5578
 3768TIP3    H132795   2.644   6.745  14.132  1.3937 -1.0515 -0.3611
 3768TIP3    H232796   2.661   6.858  14.034  1.9491  0.1703  1.0981
 3769TIP3   OH232797   3.916   6.271   4.464  0.4958 -0.3459 -0.0695
 3769TIP3    H132798   3.956   6.330   4.400 -1.1524 -1.2909 -2.0784
 3769TIP3    H232799   3.983   6.205   4.480  1.6544  0.9627  0.7574
 3770TIP3   OH232800   0.021   5.881   6.355  0.1164  0.1469 -0.6700
 3770TIP3    H132801   0.042   5.973   6.339  0.7115 -0.0715 -1.2161
 3770TIP3    H232802   0.095   5.848   6.407  0.6119 -0.3432 -1.6299
 3771TIP3   OH232803   6.819   2.031  12.027 -0.1840  0.4895  0.1154
 3771TIP3    H132804   6.913   2.039  12.010 -0.0154  2.0131  1.5056
 3771TIP3    H232805   6.779   2.102  11.978 -0.4268  0.7869  0.7350
 3772TIP3   OH232806   6.034   1.472  12.417  0.0416 -0.2811 -0.4807
 3772TIP3    H132807   5.993   1.446  12.334 -3.4034  1.7787  0.3655
 3772TIP3    H232808   6.085   1.550  12.394 -0.4927 -0.0091 -0.7615
 3773TIP3   OH232809   1.476   1.091   1.329 -0.1828 -0.0200  0.3964
 3773TIP3    H132810   1.391   1.135   1.318 -0.5380 -0.6346  0.6252
 3773TIP3    H232811   1.537   1.144   1.278 -0.7857  0.2048 -0.1152
 3774TIP3   OH232812   6.485   6.611   1.203 -0.2385 -0.2928  0.0506
 3774TIP3    H132813   6.469   6.694   1.157 -2.0333  1.3380  3.2606
 3774TIP3    H232814   6.409   6.557   1.181  0.3607 -0.7073 -1.1156
 3775TIP3   OH232815   1.097   1.412   4.938 -0.1169  0.3516 -0.2607
 3775TIP3    H132816   1.174   1.414   4.882  0.3981 -0.4926  0.4010
 3775TIP3    H232817   1.028   1.373   4.884  0.0536  0.6293 -0.6815
 3776TIP3   OH232818   2.160   6.522   4.319  0.1847 -0.7334  0.2146
 3776TIP3    H132819   2.123   6.465   4.252  1.3160  1.0815 -2.1237
 3776TIP3    H232820   2.253   6.502   4.320  0.4042  0.2049  0.2124
 3777TIP3   OH232821   1.502   2.461   5.003 -0.1184 -0.3751  0.2292
 3777TIP3    H132822   1.565   2.529   5.026  2.0969 -1.2279 -2.8276
 3777TIP3    H232823   1.463   2.436   5.087  3.9411 -0.1148  2.4106
 3778TIP3   OH232824   1.151   1.303  17.098 -0.1301  0.1194 -0.1172
 3778TIP3    H132825   1.158   1.214  17.132 -0.2746 -1.2665 -3.3100
 3778TIP3    H232826   1.077   1.301  17.038 -0.6517  2.6637  0.2974
 3779TIP3   OH232827   3.208   5.096  15.260 -0.1819 -0.3478  0.1867
 3779TIP3    H132828   3.187   5.103  15.353  0.0229 -1.4754  0.3342
 3779TIP3    H232829   3.165   5.171  15.220  0.1721  0.4639  1.2623
 3780TIP3   OH232830   0.116   4.413   3.488  0.0330  0.2023  0.3595
 3780TIP3    H132831   0.189   4.474   3.501 -0.2206  0.4563  0.6345
 3780TIP3    H232832   0.131   4.376   3.402  1.5583 -1.2229  1.1787
 3781TIP3   OH232833   5.907   3.401  11.276 -0.6034  0.1015 -0.0233
 3781TIP3    H132834   5.822   3.390  11.319 -0.2425 -1.8693  0.2676
 3781TIP3    H232835   5.887   3.391  11.183 -0.6685 -0.5952  0.0609
 3782TIP3   OH232836   6.663   5.413   4.825  0.4249 -0.3941  0.6530
 3782TIP3    H132837   6.709   5.484   4.779 -1.8223  1.1232  0.6175
 3782TIP3    H232838   6.680   5.428   4.917 -0.6256  0.6455  0.6876
 3783TIP3   OH232839   2.200   1.894  16.428 -0.5130  0.3691  0.8770
 3783TIP3    H132840   2.247   1.976  16.415  0.8992 -0.7352 -1.9052
 3783TIP3    H232841   2.268   1.827  16.428 -1.6345 -0.8667  3.0302
 3784TIP3   OH232842   1.883   6.635   1.233  0.0120  0.2251 -0.2625
 3784TIP3    H132843   1.892   6.568   1.165  0.4809 -1.2160  1.1354
 3784TIP3    H232844   1.966   6.633   1.280 -1.2576 -0.9254  2.1168
 3785TIP3   OH232845   5.381   4.295   1.715  0.3218  0.3703  0.4005
 3785TIP3    H132846   5.396   4.285   1.621 -1.7895  2.3982 -0.2255
 3785TIP3    H232847   5.370   4.205   1.747  2.4194 -0.4412 -0.9905
 3786TIP3   OH232848   2.245   4.083  14.589  0.4801 -0.2661 -0.1958
 3786TIP3    H132849   2.236   4.053  14.498  0.5249 -0.0163 -0.2832
 3786TIP3    H232850   2.339   4.086  14.605  0.5104  0.7110 -0.4882
 3787TIP3   OH232851   5.197   6.410   1.164  0.1173 -0.3730  0.2391
 3787TIP3    H132852   5.262   6.436   1.098  0.6112 -0.7690  0.5603
 3787TIP3    H232853   5.219   6.464   1.241 -0.9891  0.7191 -0.1701
 3788TIP3   OH232854   5.128   2.363  12.260 -0.1722  0.2897 -0.2711
 3788TIP3    H132855   5.145   2.269  12.249  0.3040  0.0548  1.9069
 3788TIP3    H232856   5.040   2.376  12.227  0.2239 -0.6675 -1.7844
 3789TIP3   OH232857   5.934   5.083  13.276 -0.0555  0.3479  0.2800
 3789TIP3    H132858   5.960   5.157  13.221  0.5501  1.6602  2.2119
 3789TIP3    H232859   5.996   5.013  13.255  0.2516  0.8693 -0.5717
 3790TIP3   OH232860   4.474   2.534  11.491 -0.5207  0.4218  0.0468
 3790TIP3    H132861   4.514   2.453  11.460  0.2299  0.6821  0.2999
 3790TIP3    H232862   4.444   2.514  11.580 -0.7967  0.2768 -0.0785
 3791TIP3   OH232863   2.159   3.692  15.227  0.4068  0.0725 -0.1304
 3791TIP3    H132864   2.208   3.710  15.147  0.1104  2.3924  0.1329
 3791TIP3    H232865   2.209   3.735  15.296 -0.1484 -0.5807  0.7077
 3792TIP3   OH232866   3.936   4.055  15.093  0.3423  0.2522 -0.1880
 3792TIP3    H132867   3.888   4.135  15.070 -1.8611 -1.3587 -1.6636
 3792TIP3    H232868   3.979   4.075  15.176 -1.3415  2.4768  0.2318
 3793TIP3   OH232869   4.109   4.549  11.868  0.0020  0.0838 -0.0484
 3793TIP3    H132870   4.028   4.550  11.817 -0.1356  1.4674  0.1586
 3793TIP3    H232871   4.168   4.607  11.820  0.1390  0.7776  0.9359
 3794TIP3   OH232872   2.193   3.157   4.207 -0.6090 -0.0687 -0.3134
 3794TIP3    H132873   2.242   3.137   4.287 -0.0218  0.7776 -0.4492
 3794TIP3    H232874   2.254   3.207   4.153 -1.3035  0.1564 -0.9015
 3795TIP3   OH232875   3.726   0.047  15.386 -0.8535 -0.0132 -0.4359
 3795TIP3    H132876   3.763   0.003  15.463 -2.5078 -0.0932  0.3425
 3795TIP3    H232877   3.743   0.140  15.401  1.9140 -0.2159 -1.6924
 3796TIP3   OH232878   6.486   4.950   1.604  0.4991 -0.9345  0.0978
 3796TIP3    H132879   6.524   5.037   1.590 -3.0622  0.6927 -0.5171
 3796TIP3    H232880   6.547   4.907   1.664  2.5234  1.8792  0.2705
 3797TIP3   OH232881   2.034   4.080  11.067  0.1312 -0.0593 -0.0683
 3797TIP3    H132882   2.045   4.163  11.020  1.3043 -1.2662 -2.0384
 3797TIP3    H232883   1.939   4.074  11.083 -0.2496  0.6546 -1.8483
 3798TIP3   OH232884   3.088   4.608  15.766 -0.5083  0.3352  0.1841
 3798TIP3    H132885   3.055   4.530  15.810 -1.1578 -0.5652 -1.8267
 3798TIP3    H232886   3.166   4.632  15.816 -0.6784 -1.1869  1.2442
 3799TIP3   OH232887   2.804   6.324  11.023 -0.5632  0.3846 -0.3175
 3799TIP3    H132888   2.897   6.316  11.002 -0.6282  2.2759 -1.6072
 3799TIP3    H232889   2.760   6.310  10.939 -1.2487  1.9392 -0.2486
 3800TIP3   OH232890   5.501   0.512  13.852 -0.1506 -0.2686  0.1890
 3800TIP3    H132891   5.570   0.574  13.826 -0.6553 -0.3597 -1.4498
 3800TIP3    H232892   5.550   0.437  13.886  0.4783  0.7764  1.7439
 3801TIP3   OH232893   5.065   5.989  13.842  0.2793 -0.1172  0.3017
 3801TIP3    H132894   5.073   6.065  13.784 -0.5261  1.7212  2.4654
 3801TIP3    H232895   5.155   5.959  13.854  0.6866  0.8766 -0.1563
 3802TIP3   OH232896   6.213   4.084  13.954 -0.0471 -0.1214  0.5378
 3802TIP3    H132897   6.223   4.057  13.862  1.6738  0.1087  0.6309
 3802TIP3    H232898   6.301   4.076  13.991 -0.1565  2.2451  1.4793
 3803TIP3   OH232899   1.358   1.903   2.140 -0.0748  0.0595 -0.1893
 3803TIP3    H132900   1.281   1.921   2.086 -0.0385 -0.2644 -0.3493
 3803TIP3    H232901   1.432   1.917   2.081 -0.0639 -1.6498 -0.6500
 3804TIP3   OH232902   5.732   2.559  15.834 -0.0790  0.4127 -0.7272
 3804TIP3    H132903   5.666   2.568  15.903 -1.0617 -0.0184 -1.5955
 3804TIP3    H232904   5.768   2.471  15.846  0.7464  0.8405  0.0783
 3805TIP3   OH232905   1.874   4.082   2.844  0.0611 -0.4233 -0.0571
 3805TIP3    H132906   1.924   4.045   2.916  0.0684 -0.3015 -0.0003
 3805TIP3    H232907   1.821   4.009   2.812 -0.0458 -0.4412  0.1597
 3806TIP3   OH232908   5.239   0.214  13.471 -0.2862 -0.4893  0.5754
 3806TIP3    H132909   5.207   0.152  13.405  0.8540 -0.2604 -0.2254
 3806TIP3    H232910   5.323   0.177  13.499  0.2615  0.5234  0.3077
 3807TIP3   OH232911   3.372   4.596  12.027  0.0379  0.1209 -0.5808
 3807TIP3    H132912   3.310   4.659  11.991 -0.1622  0.3050  0.0662
 3807TIP3    H232913   3.327   4.511  12.021 -1.3204  0.5383  2.0517
 3808TIP3   OH232914   4.907   1.984  15.623 -0.0457 -0.0466 -0.0960
 3808TIP3    H132915   4.864   1.915  15.673 -0.5357  0.5887  0.3811
 3808TIP3    H232916   4.981   2.011  15.678  1.6325 -1.8124 -1.3463
 3809TIP3   OH232917   6.428   2.029  15.832  0.4496 -0.6074 -0.4174
 3809TIP3    H132918   6.495   1.990  15.888 -1.3684 -1.4583  1.2897
 3809TIP3    H232919   6.436   2.124  15.846 -0.0333 -0.8028  1.4691
 3810TIP3   OH232920   6.138   5.156   0.501 -0.2802  0.0905 -0.0008
 3810TIP3    H132921   6.096   5.090   0.445 -0.7727  1.0545 -0.7823
 3810TIP3    H232922   6.216   5.182   0.451 -0.1284  0.1636  0.2753
 3811TIP3   OH232923   0.054   3.283   0.025 -0.2857  0.1835 -0.2047
 3811TIP3    H132924   0.128   3.324   0.070  0.0946  1.3098 -1.7556
 3811TIP3    H232925  -0.023   3.313   0.074  0.1784  0.2775  0.4912
 3812TIP3   OH232926   3.507   6.634  13.045 -0.7636 -0.4564  0.0642
 3812TIP3    H132927   3.548   6.721  13.041 -2.7830  0.6961  2.0090
 3812TIP3    H232928   3.507   6.612  13.138 -1.2047 -2.1085 -0.2969
 3813TIP3   OH232929   0.643   6.737  13.818  0.5343 -0.1618 -0.1400
 3813TIP3    H132930   0.738   6.745  13.812  0.6713 -2.0794 -1.5165
 3813TIP3    H232931   0.629   6.671  13.885  0.1656  0.0225 -0.0323
 3814TIP3   OH232932   3.163   3.475   0.316  0.0120  0.0563  0.1402
 3814TIP3    H132933   3.220   3.415   0.362  1.3409 -0.2808 -1.8066
 3814TIP3    H232934   3.117   3.523   0.385  1.4736 -0.7711  1.7596
 3815TIP3   OH232935   3.726   0.351   2.977  0.2631  0.0997 -0.3037
 3815TIP3    H132936   3.775   0.277   3.013 -0.4500  0.1617  0.8508
 3815TIP3    H232937   3.645   0.312   2.945 -0.0997  0.3647  0.2770
 3816TIP3   OH232938   2.355   0.029   2.131 -0.3771 -0.6064 -0.4363
 3816TIP3    H132939   2.360   0.119   2.097  0.2902  0.0112  1.2153
 3816TIP3    H232940   2.332  -0.024   2.054  0.4297  0.8021 -1.7105
 3817TIP3   OH232941   0.469   1.817   1.936 -0.0827 -0.1359 -0.0421
 3817TIP3    H132942   0.383   1.788   1.967 -0.3660  0.4590 -0.2465
 3817TIP3    H232943   0.519   1.836   2.016 -0.4769  0.4529  0.0727
 3818TIP3   OH232944   3.577   6.409   3.926 -0.0449 -0.6960  0.0397
 3818TIP3    H132945   3.533   6.355   3.992 -0.4954  1.4618  1.6044
 3818TIP3    H232946   3.630   6.471   3.976 -0.2746  0.9454 -1.6263
 3819TIP3   OH232947   1.971   4.948  13.125  0.3410 -0.1096 -0.2424
 3819TIP3    H132948   1.957   4.893  13.047 -0.2632  1.1939 -1.0911
 3819TIP3    H232949   2.065   4.968  13.122  0.8068 -1.8871  0.6694
 3820TIP3   OH232950   2.931   5.892  14.187  0.7110  0.1421 -0.7153
 3820TIP3    H132951   2.869   5.961  14.210 -0.4846 -1.2615  0.4727
 3820TIP3    H232952   2.969   5.921  14.104  1.2385  2.8344  0.3386
 3821TIP3   OH232953   4.670   3.808  14.278 -0.2594  0.5400 -0.1447
 3821TIP3    H132954   4.642   3.848  14.360  0.5343  0.4532  0.1870
 3821TIP3    H232955   4.592   3.765  14.243 -0.5059  0.1877  0.8102
 3822TIP3   OH232956   1.041   4.800   5.820  0.0442  0.7894  1.1063
 3822TIP3    H132957   1.014   4.797   5.912 -1.6708 -2.4862  0.6652
 3822TIP3    H232958   1.112   4.737   5.814  0.8120  1.7137  0.3359
 3823TIP3   OH232959   0.913   2.134  12.226 -0.5973  0.0261  0.0888
 3823TIP3    H132960   0.987   2.177  12.184 -1.5199 -1.0770 -2.9604
 3823TIP3    H232961   0.852   2.204  12.247  0.4985  0.7487  0.9877
 3824TIP3   OH232962   0.650   0.600  11.456  0.6687  0.1039 -0.0069
 3824TIP3    H132963   0.720   0.594  11.390  0.6820  0.6151 -0.0406
 3824TIP3    H232964   0.667   0.525  11.514 -0.4436 -1.4826 -1.6187
 3825TIP3   OH232965   3.508   1.936  17.114  0.1794 -0.3120  0.1830
 3825TIP3    H132966   3.553   1.968  17.036 -1.5474  0.4109 -0.5592
 3825TIP3    H232967   3.430   1.991  17.121 -1.1351 -2.1778  0.8291
 3826TIP3   OH232968   1.832   3.081   1.754  0.5696 -0.1103  0.1481
 3826TIP3    H132969   1.812   3.090   1.661  1.3456  0.2073  0.0051
 3826TIP3    H232970   1.925   3.101   1.760  0.5804 -0.3935  0.9580
 3827TIP3   OH232971   0.993   1.704  12.623 -0.1335 -0.7220 -0.3792
 3827TIP3    H132972   0.904   1.723  12.591 -0.2544 -1.2671 -0.3828
 3827TIP3    H232973   0.999   1.609  12.621  0.1405 -0.7303  0.4674
 3828TIP3   OH232974   6.548   6.387  16.892 -0.5654  0.4489 -0.1493
 3828TIP3    H132975   6.458   6.408  16.867 -0.0209  1.4268 -1.3818
 3828TIP3    H232976   6.541   6.354  16.981 -2.1954  0.0937 -0.3855
 3829TIP3   OH232977   3.596   0.060   3.714 -0.2721  0.3733  0.5901
 3829TIP3    H132978   3.570   0.085   3.802 -0.4967  0.2506  0.5602
 3829TIP3    H232979   3.655   0.129   3.685 -0.4766  0.5952  0.7020
 3830TIP3   OH232980   5.600   1.519   5.923  0.3358 -0.1464 -0.2965
 3830TIP3    H132981   5.602   1.599   5.976  0.2811  0.1444 -0.7275
 3830TIP3    H232982   5.551   1.456   5.976 -0.6762  0.4800 -0.4739
 3831TIP3   OH232983   6.150   5.582  12.751 -0.0902 -0.0235  0.7083
 3831TIP3    H132984   6.068   5.535  12.768  0.6773 -0.7110  2.9050
 3831TIP3    H232985   6.160   5.579  12.656 -1.8705 -1.1918  0.4976
 3832TIP3   OH232986   1.566   5.628   1.122  0.2906  0.5744 -0.5917
 3832TIP3    H132987   1.610   5.671   1.195 -0.0005 -0.2178  0.0779
 3832TIP3    H232988   1.474   5.623   1.148 -0.2457  2.2498 -1.9915
 3833TIP3   OH232989   0.513   1.234   3.147 -0.0503 -0.0185  0.2545
 3833TIP3    H132990   0.551   1.314   3.184  1.3765  0.9926 -2.9793
 3833TIP3    H232991   0.546   1.163   3.202 -2.7771  1.5185  4.3453
 3834TIP3   OH232992   4.438   3.114  13.582 -0.1639  0.0899 -0.5135
 3834TIP3    H132993   4.374   3.156  13.525 -1.1700  0.0674  0.5722
 3834TIP3    H232994   4.478   3.186  13.630 -0.9503 -0.0685  0.3936
 3835TIP3   OH232995   0.871   1.443   0.604 -0.2153  0.1880 -0.5312
 3835TIP3    H132996   0.820   1.396   0.670 -0.2965 -0.1404 -0.8209
 3835TIP3    H232997   0.882   1.531   0.639 -0.3634  0.0494 -0.1384
 3836TIP3   OH232998   1.557   5.359  15.239  0.0592  0.0610 -0.3023
 3836TIP3    H132999   1.537   5.315  15.156  0.7931 -1.4943  0.3176
 3836TIP3    H233000   1.628   5.419  15.218  2.7282 -2.8202 -0.1884
 3837TIP3   OH233001   1.540   5.854   2.041  0.1657 -0.1600 -0.1552
 3837TIP3    H133002   1.552   5.762   2.064 -1.8789 -1.0079 -2.0726
 3837TIP3    H233003   1.605   5.870   1.973  0.9712  0.0308  0.6484
 3838TIP3   OH233004   1.538   5.290   3.066  0.0361  0.5865  0.2709
 3838TIP3    H133005   1.604   5.249   3.122 -1.7186 -1.0294  1.3037
 3838TIP3    H233006   1.472   5.322   3.127 -0.2042  2.0845 -0.7310
 3839TIP3   OH233007   3.441   6.085   1.831 -0.3086 -0.2523  0.1490
 3839TIP3    H133008   3.529   6.070   1.795  0.2191  0.5966  1.0408
 3839TIP3    H233009   3.382   6.066   1.758  0.6767  0.4193 -0.8614
 3840TIP3   OH233010   6.146   6.367  14.115  0.3832 -0.1751  0.0082
 3840TIP3    H133011   6.099   6.304  14.170  0.2583 -0.0278  0.0738
 3840TIP3    H233012   6.125   6.341  14.026  2.1858 -1.6337 -0.0433
 3841TIP3   OH233013   6.591   5.879  13.231 -0.2580 -0.7316 -0.3191
 3841TIP3    H133014   6.570   5.963  13.190  1.2227 -1.1698 -2.1202
 3841TIP3    H233015   6.525   5.818  13.197 -1.3902 -0.3419  1.0618
 3842TIP3   OH233016   6.456   2.267   3.096  0.2660 -0.2712 -0.1572
 3842TIP3    H133017   6.502   2.303   3.020 -1.8288 -0.5571 -1.6439
 3842TIP3    H233018   6.367   2.249   3.064 -0.4456 -1.1970  2.1476
 3843TIP3   OH233019   1.133   2.569  14.143  0.2200  0.8770  0.0414
 3843TIP3    H133020   1.079   2.535  14.214  0.1800 -0.4377 -0.5898
 3843TIP3    H233021   1.092   2.535  14.063  0.2313  2.3602 -0.6382
 3844TIP3   OH233022   2.697   0.489   0.934  0.4500  0.2980 -0.4343
 3844TIP3    H133023   2.638   0.556   0.969  0.9092  0.5822 -0.1852
 3844TIP3    H233024   2.744   0.457   1.011  0.6832  0.1369 -0.6425
 3845TIP3   OH233025   3.701   0.027   1.244 -0.2621 -0.0800  0.8506
 3845TIP3    H133026   3.608   0.004   1.251 -0.0385 -0.6380  2.3276
 3845TIP3    H233027   3.704   0.119   1.270 -0.5344  0.2802 -0.3395
 3846TIP3   OH233028   2.782   0.040   5.593  0.3841 -0.0044 -0.0876
 3846TIP3    H133029   2.776  -0.036   5.651  3.3320 -0.5883 -0.3711
 3846TIP3    H233030   2.865   0.082   5.617 -0.0373  1.7928 -1.5284
 3847TIP3   OH233031   1.073   6.580  16.291 -0.0114  0.3122  0.4662
 3847TIP3    H133032   1.148   6.531  16.256  0.1263  1.4573 -0.9319
 3847TIP3    H233033   1.109   6.664  16.318 -0.3810 -0.0234  2.1582
 3848TIP3   OH233034   0.504   4.315  13.490 -0.6121  0.2163 -0.2612
 3848TIP3    H133035   0.598   4.333  13.484 -0.5178  0.2615  1.1676
 3848TIP3    H233036   0.498   4.238  13.546 -1.2869 -1.5702 -2.5998
 3849TIP3   OH233037   0.479   6.354  16.100 -0.0105  0.1847 -0.0754
 3849TIP3    H133038   0.496   6.311  16.015  0.1791 -1.2111  0.6323
 3849TIP3    H233039   0.505   6.445  16.086  0.2055 -0.0549 -1.4624
 3850TIP3   OH233040   5.422   6.369  10.689  0.9146 -0.0039 -0.5315
 3850TIP3    H133041   5.511   6.337  10.681  0.6568 -0.9631  0.1822
 3850TIP3    H233042   5.410   6.384  10.783  0.3772  0.2670 -0.6344
 3851TIP3   OH233043   0.511   4.225  14.378 -0.6513 -0.4680 -0.1364
 3851TIP3    H133044   0.508   4.307  14.427 -1.4821 -0.5973  0.0519
 3851TIP3    H233045   0.588   4.232  14.322 -0.3425  0.1617  0.3608
 3852TIP3   OH233046   6.174   3.180   1.719 -0.6143  0.1277  0.1150
 3852TIP3    H133047   6.126   3.238   1.660  0.6953 -0.1536 -1.3107
 3852TIP3    H233048   6.193   3.102   1.666  3.3231  1.1240 -0.2851
 3853TIP3   OH233049   3.036   4.686  15.519 -0.6979 -0.4786 -0.5015
 3853TIP3    H133050   3.027   4.779  15.539  1.4218  0.1071 -1.9639
 3853TIP3    H233051   3.019   4.642  15.602 -0.5658  1.2874  0.5116
 3854TIP3   OH233052   3.629   2.368   2.213 -0.2872 -0.0415  0.2373
 3854TIP3    H133053   3.637   2.382   2.307 -1.8228 -1.6283  0.6769
 3854TIP3    H233054   3.598   2.451   2.178  0.7282  0.6960  1.0567
 3855TIP3   OH233055   6.487   2.133   3.597  0.0089  0.0149  0.5398
 3855TIP3    H133056   6.464   2.146   3.505 -0.9866 -1.5234  0.5398
 3855TIP3    H233057   6.445   2.206   3.643  0.6417  0.8762 -0.2289
 3856TIP3   OH233058   6.608   4.165   2.087  0.5405  0.1812 -0.5710
 3856TIP3    H133059   6.514   4.173   2.067  0.4230 -0.5651 -0.3728
 3856TIP3    H233060   6.648   4.242   2.047 -0.1137  0.3193 -0.9776
 3857TIP3   OH233061   4.901   5.424  11.823  0.2364  0.4759 -0.5638
 3857TIP3    H133062   4.828   5.367  11.802  0.5124 -0.4214  0.7609
 3857TIP3    H233063   4.965   5.366  11.866  0.2626  1.8498  1.4021
 3858TIP3   OH233064   4.507   2.954   0.768 -0.1165 -0.9128  0.6605
 3858TIP3    H133065   4.416   2.956   0.799 -0.5023  1.8551 -0.3337
 3858TIP3    H233066   4.502   2.992   0.680  2.4329  3.4826  2.1385
 3859TIP3   OH233067   4.369   4.394   2.720 -0.3283  0.1101  0.5331
 3859TIP3    H133068   4.350   4.352   2.637  0.3749  0.1477  0.3451
 3859TIP3    H233069   4.338   4.333   2.787  2.1918 -1.5502  0.3141
 3860TIP3   OH233070   0.075   6.370   0.217 -0.5920 -0.5602  0.3963
 3860TIP3    H133071   0.099   6.335   0.131 -0.0504 -1.9935  1.0936
 3860TIP3    H233072   0.158   6.401   0.254 -0.4384 -1.8511  1.2042
 3861TIP3   OH233073   2.999   5.908   2.570  0.0896  0.1906 -0.1441
 3861TIP3    H133074   2.932   5.960   2.615  0.3088  0.3069  0.0504
 3861TIP3    H233075   3.081   5.956   2.585  0.2984 -0.2331  0.0713
 3862TIP3   OH233076   1.662   4.906  12.753  0.8759  0.3773  0.0693
 3862TIP3    H133077   1.605   4.983  12.749 -1.6847 -1.4411 -1.7330
 3862TIP3    H233078   1.636   4.862  12.834  0.3342  0.0304 -0.2841
 3863TIP3   OH233079   2.292   5.799   3.088  0.0217  0.2308 -0.5151
 3863TIP3    H133080   2.332   5.869   3.140  0.4411  1.2742 -2.1476
 3863TIP3    H233081   2.304   5.827   2.998 -2.2539 -0.6356 -1.1565
 3864TIP3   OH233082   4.104   2.871  13.174 -0.6181  0.2068 -0.3857
 3864TIP3    H133083   4.079   2.884  13.082 -0.0820  0.1503 -0.5414
 3864TIP3    H233084   4.151   2.951  13.197  1.0636 -0.6159 -0.7858
 3865TIP3   OH233085   6.677   3.683   0.481 -0.1277  0.4386  0.1342
 3865TIP3    H133086   6.620   3.609   0.505 -0.9069  0.7957 -0.5569
 3865TIP3    H233087   6.730   3.699   0.559 -0.1891 -0.6283  0.4149
 3866TIP3   OH233088   5.025   0.259  15.699  0.1823  0.1901  0.2216
 3866TIP3    H133089   4.956   0.323  15.682  0.2637 -0.1199 -1.4789
 3866TIP3    H233090   5.095   0.309  15.742 -0.2937  0.9297  0.1548
 3867TIP3   OH233091   6.739   1.061   0.764  0.1033 -0.1384 -0.6694
 3867TIP3    H133092   6.675   1.097   0.703 -0.2559 -1.9777 -1.4238
 3867TIP3    H233093   6.736   1.120   0.840 -0.2968  1.5061 -1.9014
 3868TIP3   OH233094   4.121   2.255   5.176 -0.2051 -0.3529  0.3444
 3868TIP3    H133095   4.160   2.198   5.110  0.0220 -2.4966  2.1958
 3868TIP3    H233096   4.042   2.208   5.205 -0.5876  0.7827  1.2322
 3869TIP3   OH233097   6.455   5.905   0.304  0.0023 -0.2942 -0.0524
 3869TIP3    H133098   6.407   5.834   0.261  1.8765 -0.4072 -2.1769
 3869TIP3    H233099   6.504   5.946   0.233 -1.2213  3.3670  1.0192
 3870TIP3   OH233100   5.184   0.066   1.519  0.0587  0.7118 -0.0517
 3870TIP3    H133101   5.271   0.034   1.543 -0.5320 -0.7156  0.3249
 3870TIP3    H233102   5.152   0.109   1.598  0.0493  0.3830  0.1254
 3871TIP3   OH233103   6.814   0.661  11.500 -0.0364 -0.1086  0.2601
 3871TIP3    H133104   6.725   0.694  11.513 -0.0104  0.4442 -0.8855
 3871TIP3    H233105   6.808   0.605  11.423  0.9755  1.4587 -0.9943
 3872TIP3   OH233106   1.400   6.660   3.445  0.3459  0.1329  0.2987
 3872TIP3    H133107   1.426   6.573   3.475  1.2280  0.7017  1.2306
 3872TIP3    H233108   1.362   6.702   3.522  0.2282  0.6891 -0.0522
 3873TIP3   OH233109   1.103   4.401  13.588  0.0197  0.1726  0.2007
 3873TIP3    H133110   1.126   4.456  13.513  2.1127 -0.3956  0.3717
 3873TIP3    H233111   1.091   4.463  13.660 -0.7323  0.6246 -0.3058
 3874TIP3   OH233112   1.676   6.338   1.079  0.0560 -1.1500 -0.3727
 3874TIP3    H133113   1.651   6.254   1.040  1.5516 -1.8626  0.1428
 3874TIP3    H233114   1.731   6.379   1.012 -1.0617 -0.3327 -0.8240
 3875TIP3   OH233115   5.648   5.252  11.095 -0.1162  0.0039 -0.1165
 3875TIP3    H133116   5.717   5.215  11.150 -0.0765 -1.4090 -1.0586
 3875TIP3    H233117   5.590   5.297  11.157  0.4188 -0.7502  0.9751
 3876TIP3   OH233118   2.557   4.528  11.533  0.0566 -0.1398 -0.2869
 3876TIP3    H133119   2.624   4.590  11.504 -0.9037  0.4894 -1.2412
 3876TIP3    H233120   2.480   4.583  11.550 -0.0545 -0.7694  1.3861
 3877TIP3   OH233121   2.039   5.580   2.790 -0.2182  0.2494  0.1671
 3877TIP3    H133122   1.964   5.527   2.817  1.7527 -2.2300  1.1856
 3877TIP3    H233123   2.073   5.536   2.712 -0.1398  1.7086 -0.6533
 3878TIP3   OH233124   1.294   5.275   0.520 -0.1974  0.1990  0.3803
 3878TIP3    H133125   1.224   5.210   0.523 -0.0842  0.0686  0.1556
 3878TIP3    H233126   1.253   5.356   0.550 -0.8594  0.5011 -1.2625
 3879TIP3   OH233127   5.370   1.285  14.514  0.6022  0.4178 -0.6479
 3879TIP3    H133128   5.310   1.336  14.460  1.0548  0.7591 -0.8359
 3879TIP3    H233129   5.444   1.267  14.456  0.3069 -0.7472 -0.6959
 3880TIP3   OH233130   2.882   3.190   4.302  0.4905 -0.0130 -0.2421
 3880TIP3    H133131   2.946   3.209   4.372  0.6288 -0.8232 -0.1347
 3880TIP3    H233132   2.894   3.260   4.239  0.0034  1.0285  0.7893
 3881TIP3   OH233133   0.453   4.797   1.509 -0.5902  0.2298  0.1013
 3881TIP3    H133134   0.512   4.780   1.583 -1.7712 -0.5908  0.8956
 3881TIP3    H233135   0.494   4.869   1.461  1.4022 -0.7446  0.2232
 3882TIP3   OH233136   3.144   4.449  14.714 -0.1062  0.2393  0.6787
 3882TIP3    H133137   3.083   4.502  14.765  0.0236  0.2718  0.7992
 3882TIP3    H233138   3.231   4.475  14.744 -0.0293  0.2334  0.4684
 3883TIP3   OH233139   6.017   3.657  14.719 -0.2037 -0.1031  0.0347
 3883TIP3    H133140   6.072   3.687  14.791  2.3499 -0.8753 -1.4620
 3883TIP3    H233141   5.987   3.570  14.747  0.9564 -0.4962  0.1221
 3884TIP3   OH233142   5.426   2.266  13.459  0.2619 -0.0874 -0.5928
 3884TIP3    H133143   5.418   2.174  13.485  1.7677  0.1539  0.8503
 3884TIP3    H233144   5.520   2.278  13.441  0.1995  1.3296 -0.0960
 3885TIP3   OH233145   4.929   6.437  15.680  0.1683 -0.1457 -0.5564
 3885TIP3    H133146   5.010   6.473  15.715 -0.8099  0.1817  1.4932
 3885TIP3    H233147   4.920   6.478  15.593  0.4427  2.5986  0.5944
 3886TIP3   OH233148   2.992   0.491   5.798  0.1487 -0.4814  0.3805
 3886TIP3    H133149   2.983   0.431   5.871  0.4137 -0.1761  0.6657
 3886TIP3    H233150   2.909   0.540   5.797  0.1933 -0.4023  0.5521
 3887TIP3   OH233151   1.043   0.695  11.501 -0.3349 -0.4287  0.2010
 3887TIP3    H133152   1.071   0.713  11.591  1.2779 -0.1490 -0.3336
 3887TIP3    H233153   1.039   0.599  11.496 -2.9018 -0.4612  1.2543
 3888TIP3   OH233154   0.479   4.762  15.768  0.0956 -0.0627  0.0361
 3888TIP3    H133155   0.486   4.778  15.674 -0.3237  1.5826  0.2538
 3888TIP3    H233156   0.402   4.705  15.776 -0.4714  0.5945 -0.5553
 3889TIP3   OH233157   6.114   0.838   3.966 -0.3418 -0.6128 -0.2139
 3889TIP3    H133158   6.174   0.856   3.894  0.7889  1.0949  1.0800
 3889TIP3    H233159   6.168   0.794   4.032 -0.9038 -0.5138  0.3197
 3890TIP3   OH233160   5.737   4.692  15.435 -0.4466 -0.0321  0.2176
 3890TIP3    H133161   5.738   4.704  15.530  0.5168  1.1338  0.0934
 3890TIP3    H233162   5.645   4.684  15.412 -0.7109  0.0445  1.2083
 3891TIP3   OH233163   5.949   4.659   4.099 -0.2393  0.2621 -0.2250
 3891TIP3    H133164   6.035   4.651   4.139 -0.1707 -0.0399 -0.4286
 3891TIP3    H233165   5.965   4.654   4.005 -0.5556 -0.5688 -0.2409
 3892TIP3   OH233166   0.652   2.241   1.583  0.2319 -0.0516 -0.3309
 3892TIP3    H133167   0.616   2.274   1.665  0.9981  0.0390 -0.0274
 3892TIP3    H233168   0.652   2.317   1.524 -1.0657 -0.3028 -0.6860
 3893TIP3   OH233169   3.409   4.181   4.543  0.1925 -0.1307 -0.1585
 3893TIP3    H133170   3.329   4.137   4.513  0.5346 -0.8681 -0.0096
 3893TIP3    H233171   3.480   4.134   4.499  0.5146  0.9749 -0.8428
 3894TIP3   OH233172   3.821   4.705  14.814  0.0711 -0.0337  0.2486
 3894TIP3    H133173   3.889   4.713  14.880  0.3660 -1.9114  0.2299
 3894TIP3    H233174   3.855   4.639  14.753 -2.7643 -3.0565  1.6438
 3895TIP3   OH233175   4.169   1.296   4.526  0.0920 -0.2391  0.4002
 3895TIP3    H133176   4.103   1.361   4.499 -1.6380 -0.8561  2.7983
 3895TIP3    H233177   4.208   1.333   4.605 -0.9454 -2.0342  1.8302
 3896TIP3   OH233178   0.501   2.916  16.312 -0.4423 -0.2729  0.0351
 3896TIP3    H133179   0.559   2.882  16.244  0.3952  1.2781 -0.0817
 3896TIP3    H233180   0.472   2.839  16.360  2.3558 -1.0911  0.5921
 3897TIP3   OH233181   5.302   5.420  12.960  0.4505  0.0455  0.0202
 3897TIP3    H133182   5.273   5.346  13.012 -2.4948  0.3506 -0.9625
 3897TIP3    H233183   5.340   5.381  12.881  0.8102 -0.4097  0.4160
 3898TIP3   OH233184   5.036   4.219  12.393 -0.4695  0.4024  0.0944
 3898TIP3    H133185   5.101   4.180  12.334 -1.2285 -1.1020  0.2064
 3898TIP3    H233186   4.969   4.152  12.402 -0.3536  0.5335  2.7145
 3899TIP3   OH233187   2.343   0.441  12.781  0.0663  0.8012 -0.0916
 3899TIP3    H133188   2.373   0.374  12.842 -0.2492  1.0602  0.3482
 3899TIP3    H233189   2.414   0.448  12.717  0.5873  0.8217  0.4791
 3900TIP3   OH233190   4.050   2.822   1.040 -0.2752  0.0362  0.0388
 3900TIP3    H133191   4.131   2.803   1.088 -0.9844 -0.1284  1.2112
 3900TIP3    H233192   3.985   2.763   1.079 -1.2019  0.9121 -0.1534
 3901TIP3   OH233193   4.088   6.297   1.654  0.5523  0.2231 -0.1683
 3901TIP3    H133194   4.133   6.225   1.699  1.3694  0.0327 -1.2322
 3901TIP3    H233195   4.025   6.253   1.597 -0.1535  0.4334  0.4553
 3902TIP3   OH233196   5.854   2.129   5.681  0.0707  0.0784  0.0695
 3902TIP3    H133197   5.937   2.123   5.728  0.7894 -0.6055 -1.2388
 3902TIP3    H233198   5.823   2.038   5.675 -1.1646  0.3903  1.1709
 3903TIP3   OH233199   0.207   1.506   3.849 -0.1681 -0.2412  0.2985
 3903TIP3    H133200   0.162   1.528   3.767  0.0868  1.0214  0.4636
 3903TIP3    H233201   0.191   1.582   3.905  0.8678 -0.4507  0.8979
 3904TIP3   OH233202   1.756   4.199  16.840  0.2752  0.4610  0.6408
 3904TIP3    H133203   1.710   4.279  16.818 -0.3980 -0.2595 -0.6893
 3904TIP3    H233204   1.772   4.156  16.756 -2.1532 -2.2991  1.4035
 3905TIP3   OH233205   2.216   0.009   1.332 -0.4278  0.0348  0.1145
 3905TIP3    H133206   2.292  -0.014   1.385  0.5152  0.0809 -1.1784
 3905TIP3    H233207   2.172  -0.075   1.316  0.0111 -0.1577 -0.1046
 3906TIP3   OH233208   0.077   0.355  14.484  0.3630  0.1462  0.0064
 3906TIP3    H133209   0.026   0.276  14.466  0.4217 -0.1825  1.1831
 3906TIP3    H233210   0.119   0.376  14.401 -0.6921 -0.3053 -0.6561
 3907TIP3   OH233211   4.402   0.657   5.737  0.4097 -0.1545 -0.6070
 3907TIP3    H133212   4.486   0.659   5.691  0.3774  1.0839 -0.6448
 3907TIP3    H233213   4.393   0.566   5.766  1.4204 -0.4699 -1.2211
 3908TIP3   OH233214   5.944   4.196   4.056  0.4191 -0.5731 -0.3786
 3908TIP3    H133215   6.037   4.192   4.075  0.7041 -2.0447 -1.8675
 3908TIP3    H233216   5.925   4.289   4.044  0.9722  0.1095  3.0319
 3909TIP3   OH233217   5.007   6.806   0.009 -0.2729  0.4445  0.1216
 3909TIP3    H133218   4.928   6.810   0.063 -1.1492 -0.6363 -1.0319
 3909TIP3    H233219   4.974   6.795  -0.081  1.1303 -3.9811 -0.0799
 3910TIP3   OH233220   3.192   1.706  16.307  1.0230 -0.1575 -0.0453
 3910TIP3    H133221   3.191   1.615  16.336  0.1392 -0.5857 -1.2972
 3910TIP3    H233222   3.109   1.717  16.260  0.9079  1.4262  0.4646
 3911TIP3   OH233223   6.592   2.845  11.091  0.0258 -0.1425  0.5292
 3911TIP3    H133224   6.527   2.802  11.036 -0.1603  1.3432 -0.4839
 3911TIP3    H233225   6.676   2.827  11.048  0.0440 -0.2373  0.6043
 3912TIP3   OH233226   6.647   5.772  14.227  0.2322  0.2868  0.1680
 3912TIP3    H133227   6.601   5.828  14.290 -0.7751 -0.9288  0.5703
 3912TIP3    H233228   6.716   5.827  14.192 -0.1420  1.4845  1.2187
 3913TIP3   OH233229   2.300   3.468   5.209 -0.3501 -0.3979 -0.4562
 3913TIP3    H133230   2.326   3.532   5.142  0.0538  0.2304  0.2949
 3913TIP3    H233231   2.305   3.516   5.291 -1.4087 -1.0066 -0.0251
 3914TIP3   OH233232   4.814   0.191  11.636  0.1612  0.9116  0.1921
 3914TIP3    H133233   4.854   0.108  11.609 -0.8166  0.0751  1.2332
 3914TIP3    H233234   4.808   0.185  11.731 -0.9165  1.7167  0.1919
 3915TIP3   OH233235   2.803   4.011   2.802  0.1647  0.4637 -0.8486
 3915TIP3    H133236   2.795   3.958   2.882  0.5100 -0.7948 -1.6142
 3915TIP3    H233237   2.732   3.980   2.745 -0.9971  2.3677 -0.5165
 3916TIP3   OH233238   4.738   6.740   0.845 -0.5810  0.8533 -0.2009
 3916TIP3    H133239   4.661   6.765   0.794 -0.2689  3.5351  0.4967
 3916TIP3    H233240   4.810   6.787   0.804  0.9262 -2.0739 -1.2323
 3917TIP3   OH233241   5.638   3.916   0.553  0.3708 -0.0336 -0.1767
 3917TIP3    H133242   5.675   3.955   0.632  1.8627 -2.0680  0.2063
 3917TIP3    H233243   5.633   3.823   0.573 -1.8014 -0.2512 -1.5251
 3918TIP3   OH233244   1.757   5.590  14.008 -0.2586 -0.4493 -0.1625
 3918TIP3    H133245   1.716   5.524  14.065  0.5658 -0.0221  0.9394
 3918TIP3    H233246   1.689   5.656  13.996  0.2663  0.5848  2.1993
 3919TIP3   OH233247   2.092   5.263   2.908  0.2439 -0.0115 -0.1284
 3919TIP3    H133248   2.086   5.202   2.982  1.2004 -0.5184 -0.4550
 3919TIP3    H233249   2.002   5.287   2.889 -0.1030 -0.8790  0.3846
 3920TIP3   OH233250   4.894   6.580   0.685  0.0454 -0.0902  0.1559
 3920TIP3    H133251   4.842   6.586   0.765  0.4111 -1.0150  0.4711
 3920TIP3    H233252   4.829   6.579   0.615 -0.2677  0.9997  0.4089
 3921TIP3   OH233253   1.790   2.992  12.203  0.3102 -1.0998  0.7126
 3921TIP3    H133254   1.759   3.070  12.248 -2.5626 -0.8396 -1.4161
 3921TIP3    H233255   1.861   3.024  12.147  0.5536 -0.4555  1.3726
 3922TIP3   OH233256   5.151   5.384  15.761 -0.1399  0.2032 -0.5065
 3922TIP3    H133257   5.149   5.427  15.676 -0.3545 -1.2846 -1.2921
 3922TIP3    H233258   5.138   5.291  15.741  1.5974 -0.4274  0.9649
 3923TIP3   OH233259   1.159   0.631   4.509 -0.0809  0.0048  0.0905
 3923TIP3    H133260   1.187   0.564   4.446 -1.1876  1.4335 -2.0814
 3923TIP3    H233261   1.240   0.670   4.540  0.5169 -0.8898 -0.3084
 3924TIP3   OH233262   1.411   4.468  13.137  0.2973  0.1477  0.3067
 3924TIP3    H133263   1.340   4.522  13.100  0.7041 -0.0799 -0.8316
 3924TIP3    H233264   1.477   4.464  13.068  0.7204 -0.9802  0.7592
 3925TIP3   OH233265   3.180   2.625   3.002  0.2067 -0.5232  0.2863
 3925TIP3    H133266   3.102   2.669   2.968 -0.2051 -1.0172  0.5830
 3925TIP3    H233267   3.217   2.687   3.065  1.7536  1.0165 -1.9819
 3926TIP3   OH233268   3.755   4.269  12.061 -0.0015 -0.0800 -0.1731
 3926TIP3    H133269   3.831   4.212  12.054 -0.5665 -0.7510 -1.1725
 3926TIP3    H233270   3.711   4.262  11.976 -0.8381  0.7810  0.1563
 3927TIP3   OH233271   0.446   0.613  14.667 -0.0696  0.0184 -0.2785
 3927TIP3    H133272   0.446   0.519  14.685 -2.2618 -0.4328 -2.0877
 3927TIP3    H233273   0.503   0.622  14.591  0.2051  0.1664 -0.0542
 3928TIP3   OH233274   2.266   6.060   0.535 -0.3116 -0.0736 -0.5597
 3928TIP3    H133275   2.311   6.037   0.616 -0.6834 -1.0437 -0.6127
 3928TIP3    H233276   2.298   6.148   0.514  1.0900 -0.4844 -0.2735
 3929TIP3   OH233277   2.237   6.083  12.647 -0.2728 -0.0553  0.3410
 3929TIP3    H133278   2.328   6.070  12.619 -0.4764 -2.5119  0.6692
 3929TIP3    H233279   2.188   6.089  12.565 -0.2415 -2.3375  0.1123
 3930TIP3   OH233280   0.262   0.009  14.579  0.2775 -0.2057  0.2561
 3930TIP3    H133281   0.225  -0.078  14.595  0.3013 -0.0848  0.9635
 3930TIP3    H233282   0.341  -0.009  14.527 -1.0496 -0.4272 -1.8319
 3931TIP3   OH233283   0.801   6.270   5.559  0.2753  0.0884 -0.8250
 3931TIP3    H133284   0.770   6.288   5.470 -0.0581 -0.3022 -0.7890
 3931TIP3    H233285   0.870   6.205   5.548 -1.0304 -1.3830 -0.6603
 3932TIP3   OH233286   3.772   0.648   3.551  0.3017 -0.3292  0.4141
 3932TIP3    H133287   3.752   0.733   3.588 -2.3515 -0.4332 -0.5223
 3932TIP3    H233288   3.774   0.588   3.626  0.1063  0.2320  0.8716
 3933TIP3   OH233289   1.857   2.415   1.193 -0.2509  0.3231 -0.1336
 3933TIP3    H133290   1.883   2.457   1.111 -0.4160  0.6283 -0.0320
 3933TIP3    H233291   1.933   2.425   1.251 -0.2945  0.4962 -0.1053
 3934TIP3   OH233292   2.861   4.918   4.928  0.1679 -0.0981  0.2343
 3934TIP3    H133293   2.916   4.840   4.919 -0.2096 -0.4775  1.1118
 3934TIP3    H233294   2.804   4.916   4.852 -0.1484 -0.9372  0.4812
 3935TIP3   OH233295   1.068   2.244  13.406  0.5596  0.0744  0.1387
 3935TIP3    H133296   1.063   2.160  13.362  1.2129 -0.3356  0.8139
 3935TIP3    H233297   1.062   2.223  13.499 -0.3122  0.8754  0.2806
 3936TIP3   OH233298   2.090   6.389   1.490 -0.3646 -0.0191  0.5000
 3936TIP3    H133299   2.003   6.352   1.506 -1.0881  1.4328  0.0325
 3936TIP3    H233300   2.137   6.373   1.572 -0.8845 -1.2526  0.5942
 3937TIP3   OH233301   1.311   6.501  14.745  0.0800  0.1188  0.7490
 3937TIP3    H133302   1.370   6.558  14.698  1.1216 -1.1577  0.4601
 3937TIP3    H233303   1.250   6.560  14.789  0.3863  1.3887 -0.4898
 3938TIP3   OH233304   6.358   0.692   1.506  0.5376 -0.0583  0.4755
 3938TIP3    H133305   6.352   0.707   1.411  1.7902  0.1828  0.4254
 3938TIP3    H233306   6.442   0.729   1.531  2.4535 -4.1410  0.8834
 3939TIP3   OH233307   2.182   6.124   3.835  0.4686 -0.3860 -0.1491
 3939TIP3    H133308   2.157   6.063   3.905  0.6050  0.2476  0.4631
 3939TIP3    H233309   2.245   6.075   3.782 -0.4924 -1.2751 -0.5078
 3940TIP3   OH233310   0.308   0.912  12.971 -0.1450  0.1423 -0.6538
 3940TIP3    H133311   0.259   0.857  13.033  0.8512 -1.5235 -1.2610
 3940TIP3    H233312   0.344   0.982  13.025  0.5667 -1.1656  0.6821
 3941TIP3   OH233313   4.623   4.245   1.624 -0.4730  0.1345  0.1413
 3941TIP3    H133314   4.710   4.207   1.612 -1.4950 -2.7624  0.8690
 3941TIP3    H233315   4.629   4.295   1.705 -0.2081 -2.9120  2.1576
 3942TIP3   OH233316   3.481   1.710   4.692 -0.2338 -0.0508 -0.4466
 3942TIP3    H133317   3.450   1.734   4.605  0.6102  0.5981 -0.5762
 3942TIP3    H233318   3.430   1.766   4.751 -1.0143 -0.6963 -0.4858
 3943TIP3   OH233319   2.588   2.591  16.165  0.3410 -0.3968 -0.5965
 3943TIP3    H133320   2.583   2.672  16.215 -0.8787 -0.2895 -0.8494
 3943TIP3    H233321   2.528   2.531  16.209  1.5411 -1.3283 -0.1626
 3944TIP3   OH233322   5.936   5.967  10.673  0.0053  0.1330  0.4466
 3944TIP3    H133323   5.886   6.002  10.746 -0.8299 -1.6826  0.7927
 3944TIP3    H233324   5.877   5.904  10.631  0.7606  0.5188 -1.2990
 3945TIP3   OH233325   1.283   3.201  10.501  0.1848  0.2482  0.1844
 3945TIP3    H133326   1.314   3.141  10.568 -0.7707  2.4199  2.7430
 3945TIP3    H233327   1.358   3.256  10.481  0.0804  0.5608  0.6308
 3946TIP3   OH233328   2.318   1.221   2.236  0.1547 -0.1266  0.0464
 3946TIP3    H133329   2.271   1.297   2.270  0.4266  1.4063 -2.7340
 3946TIP3    H233330   2.323   1.235   2.141 -0.1125 -3.8340 -0.6834
 3947TIP3   OH233331   2.079   0.706   3.121 -0.3578 -0.3044 -0.0581
 3947TIP3    H133332   2.164   0.662   3.128 -1.2596 -2.0373  0.4025
 3947TIP3    H233333   2.028   0.652   3.061 -1.0896  0.8359 -0.5027
 3948TIP3   OH233334   0.590   0.894  11.994  0.7909  0.1884  0.6945
 3948TIP3    H133335   0.528   0.942  11.939 -0.3107 -1.5482  0.3662
 3948TIP3    H233336   0.626   0.961  12.053 -1.2783  1.2890  0.8062
 3949TIP3   OH233337   5.384   1.582  12.393 -0.0581 -0.4426 -0.3632
 3949TIP3    H133338   5.473   1.559  12.364 -0.6405 -1.0827 -1.7241
 3949TIP3    H233339   5.337   1.602  12.312 -0.6161  1.9422  0.4607
 3950TIP3   OH233340   4.824   1.049   5.359  0.1025 -0.2204  0.8181
 3950TIP3    H133341   4.846   1.120   5.420  0.9136  0.8019 -0.6106
 3950TIP3    H233342   4.909   1.012   5.335 -0.2243 -0.7212  0.4318
 3951TIP3   OH233343   1.233   6.826  16.299 -0.0075 -0.0299 -0.3058
 3951TIP3    H133344   1.312   6.856  16.254  0.1592 -0.0870 -0.0558
 3951TIP3    H233345   1.250   6.846  16.392 -0.3358  0.0668 -0.2664
 3952TIP3   OH233346   5.682   6.396  16.793  0.2947 -0.2439 -0.5205
 3952TIP3    H133347   5.749   6.412  16.727  0.4444  1.6618  0.0327
 3952TIP3    H233348   5.624   6.330  16.754  2.1365 -1.5264 -1.2341
 3953TIP3   OH233349   4.348   6.544  10.740  0.0938  0.3879  0.0445
 3953TIP3    H133350   4.439   6.519  10.754 -0.1406  0.5526  2.2126
 3953TIP3    H233351   4.340   6.630  10.781 -0.9707  0.5127 -0.3983
 3954TIP3   OH233352   5.027   3.565   3.893 -0.4215 -0.5636  0.0472
 3954TIP3    H133353   4.958   3.631   3.890 -1.9094 -2.0879 -0.2954
 3954TIP3    H233354   5.056   3.566   3.985  0.8832  1.7821 -0.3033
 3955TIP3   OH233355   0.875   1.196  16.939  0.7109 -0.0322 -0.9867
 3955TIP3    H133356   0.839   1.107  16.929 -0.7362  0.2497  1.0150
 3955TIP3    H233357   0.803   1.253  16.913  0.7045  0.5445  0.2324
 3956TIP3   OH233358   0.537   1.802   3.510  0.2267  0.2669 -0.9184
 3956TIP3    H133359   0.504   1.847   3.587 -1.8743  0.6035 -1.9375
 3956TIP3    H233360   0.590   1.730   3.545  0.9410  1.5455  0.7635
 3957TIP3   OH233361   3.671   0.633   2.220 -0.1998 -0.0680 -0.1388
 3957TIP3    H133362   3.719   0.632   2.137 -1.1452 -0.3611 -0.7086
 3957TIP3    H233363   3.631   0.546   2.225  1.2458 -0.6777  1.4937
 3958TIP3   OH233364   0.017   1.182   6.207 -0.2334 -0.8655  0.2456
 3958TIP3    H133365  -0.043   1.136   6.266 -0.6001  0.0127  0.5796
 3958TIP3    H233366   0.057   1.113   6.154  0.5319 -1.7301  1.9031
 3959TIP3   OH233367   5.782   5.898  11.837 -0.4797 -0.1548  0.0360
 3959TIP3    H133368   5.860   5.933  11.794 -1.1769 -0.6426 -1.7259
 3959TIP3    H233369   5.737   5.849  11.768 -2.6546  0.6045  0.8221
 3960TIP3   OH233370   2.390   5.231   4.642 -0.1539 -0.3803  0.1095
 3960TIP3    H133371   2.383   5.260   4.551 -0.7587 -3.9502 -1.1106
 3960TIP3    H233372   2.328   5.159   4.649  0.3422 -0.6276  3.2289
 3961TIP3   OH233373   5.748   4.759   1.925 -0.4268  0.0738 -0.1587
 3961TIP3    H133374   5.753   4.753   1.830  1.7961 -0.0827 -0.0761
 3961TIP3    H233375   5.834   4.790   1.952 -1.0141  0.1274  1.8086
 3962TIP3   OH233376   4.354   4.172  11.810 -0.0637  0.3072  0.4502
 3962TIP3    H133377   4.447   4.176  11.791  0.6125  0.3964  3.3979
 3962TIP3    H233378   4.331   4.080  11.799 -0.3636  0.6548 -2.9211
 3963TIP3   OH233379   5.932   5.186   3.805  0.1258  0.4754  0.0309
 3963TIP3    H133380   5.875   5.189   3.882  0.6472  0.1397  0.4332
 3963TIP3    H233381   5.999   5.121   3.826  1.3750  1.7160  0.0658
 3964TIP3   OH233382   1.798   2.157   3.743  0.0870 -0.1927  0.1532
 3964TIP3    H133383   1.752   2.233   3.778  0.6259  1.5014 -2.4957
 3964TIP3    H233384   1.880   2.152   3.792 -0.3226  0.4035  0.9089
 3965TIP3   OH233385   1.872   5.949  12.208  0.6217  0.3365  0.9943
 3965TIP3    H133386   1.830   6.034  12.221 -0.2889 -0.2646  2.2384
 3965TIP3    H233387   1.922   5.935  12.288  0.3827 -0.4896  1.0132
 3966TIP3   OH233388   3.545   1.921   4.892  0.4775  0.3964 -0.6918
 3966TIP3    H133389   3.461   1.877   4.904 -0.1052  1.0518 -2.2307
 3966TIP3    H233390   3.610   1.856   4.921 -0.4822 -0.6479 -0.8367
 3967TIP3   OH233391   4.091   0.424   4.458  0.4506 -0.2214 -0.0828
 3967TIP3    H133392   4.044   0.499   4.494  2.1740 -0.0050  1.9226
 3967TIP3    H233393   4.163   0.463   4.407 -0.0704 -0.5384 -1.0825
 3968TIP3   OH233394   6.558   0.458  16.571 -0.4384  0.2242  0.3110
 3968TIP3    H133395   6.624   0.389  16.578 -0.4365  0.1359 -0.4632
 3968TIP3    H233396   6.493   0.436  16.638 -0.4917 -0.5999  0.0104
 3969TIP3   OH233397   4.416   1.669   0.404  0.5754 -0.3907  0.0833
 3969TIP3    H133398   4.434   1.678   0.497 -1.1789  0.9755  0.3541
 3969TIP3    H233399   4.355   1.740   0.384  1.2608 -0.3525 -2.2238
 3970TIP3   OH233400   4.062   2.468  15.599 -0.4828 -0.0395  0.3081
 3970TIP3    H133401   4.029   2.433  15.517  0.2818  1.4905 -0.6996
 3970TIP3    H233402   4.013   2.421  15.667 -1.3073 -1.1539 -1.0100
 3971TIP3   OH233403   1.397   6.176   1.300 -0.2787  0.2440  0.1400
 3971TIP3    H133404   1.450   6.138   1.230  0.9466  0.7785  0.7633
 3971TIP3    H233405   1.459   6.223   1.355 -0.9568 -1.4446  2.4955
 3972TIP3   OH233406   6.565   0.328  11.486 -0.4120  0.0721  0.8348
 3972TIP3    H133407   6.531   0.413  11.461 -0.6352  0.5866  2.7660
 3972TIP3    H233408   6.495   0.266  11.465 -1.8441  0.8713  2.9167
 3973TIP3   OH233409   5.277   2.326   1.188 -0.1943 -0.2367 -0.6164
 3973TIP3    H133410   5.368   2.319   1.160 -0.0241 -0.1332 -0.0984
 3973TIP3    H233411   5.234   2.250   1.148 -0.2820  0.6617 -2.3299
 3974TIP3   OH233412   2.734   5.680   4.224 -0.2474 -0.2938 -0.0807
 3974TIP3    H133413   2.702   5.765   4.194 -1.9012 -0.0134  2.2637
 3974TIP3    H233414   2.824   5.696   4.252 -0.7263  0.8190  0.8522
 3975TIP3   OH233415   1.201   2.507   3.943 -0.5767  0.0726  0.5208
 3975TIP3    H133416   1.186   2.544   4.030 -1.4307  1.0491 -0.0235
 3975TIP3    H233417   1.254   2.573   3.898 -1.4229  0.2721 -0.1949
 3976TIP3   OH233418   2.012   1.517  16.448 -0.1761  0.6665  0.0193
 3976TIP3    H133419   1.980   1.573  16.377 -2.8047  0.1453  0.6643
 3976TIP3    H233420   1.996   1.428  16.418  1.9722  0.2814 -0.1160
 3977TIP3   OH233421   3.663   5.607  15.997  0.1083 -0.0207  0.2908
 3977TIP3    H133422   3.734   5.571  15.942  0.3637 -0.6017  0.9908
 3977TIP3    H233423   3.609   5.531  16.019 -0.8194  0.4421 -0.3443
 3978TIP3   OH233424   0.509   1.851   0.315  0.1721 -0.2514 -0.0522
 3978TIP3    H133425   0.547   1.841   0.403 -0.2385  1.3570  0.3470
 3978TIP3    H233426   0.444   1.782   0.309 -0.5276  0.2303  1.3534
 3979TIP3   OH233427   5.079   3.078  14.800 -0.2406 -0.0594 -0.3323
 3979TIP3    H133428   4.993   3.051  14.768 -0.1172 -0.7914 -0.0859
 3979TIP3    H233429   5.080   3.049  14.892 -0.7478  2.3663  0.5072
 3980TIP3   OH233430   1.206   5.790  14.247 -0.0483  0.8083  0.2544
 3980TIP3    H133431   1.176   5.777  14.157 -1.2064 -1.1943  0.8483
 3980TIP3    H233432   1.297   5.758  14.247 -0.6300 -0.9882  0.1319
 3981TIP3   OH233433   2.743   2.679  16.637  0.4888  0.3542 -0.0969
 3981TIP3    H133434   2.694   2.619  16.694 -0.1282  0.6616 -0.2925
 3981TIP3    H233435   2.722   2.650  16.548  0.7137  0.4509 -0.1826
 3982TIP3   OH233436   3.304   6.528  11.176  0.0115 -0.5406 -0.2619
 3982TIP3    H133437   3.383   6.501  11.223 -0.2786 -0.3380  0.3622
 3982TIP3    H233438   3.331   6.534  11.084  0.6205 -0.8413 -0.1073
 3983TIP3   OH233439   4.432   0.238   6.282  0.5819  0.0339 -0.1608
 3983TIP3    H133440   4.426   0.321   6.234 -0.2652 -0.2246 -0.5126
 3983TIP3    H233441   4.377   0.178   6.234  0.8560 -0.6303  0.3368
 3984TIP3   OH233442   1.274   6.064  10.748 -0.6555 -0.3523  0.1280
 3984TIP3    H133443   1.226   6.139  10.712 -0.6281 -0.9720 -1.2842
 3984TIP3    H233444   1.312   6.097  10.830 -1.3472  0.9123 -0.0267
 3985TIP3   OH233445   2.962   6.755  15.213  0.3397 -0.2086  0.4990
 3985TIP3    H133446   2.985   6.668  15.179  1.8334  0.3906 -0.1008
 3985TIP3    H233447   2.904   6.792  15.146  0.1413 -0.5151  0.4952
 3986TIP3   OH233448   2.031   5.571   3.083 -0.2957  0.6117  0.3554
 3986TIP3    H133449   2.099   5.538   3.142 -0.7395 -1.6361 -0.3026
 3986TIP3    H233450   2.078   5.627   3.021  0.5268  1.1433  1.4190
 3987TIP3   OH233451   0.716   3.330  12.325 -0.5824  0.5352 -0.0592
 3987TIP3    H133452   0.712   3.234  12.322 -1.3711  0.5731 -1.7166
 3987TIP3    H233453   0.782   3.353  12.259 -0.3508  1.1326  0.3749
 3988TIP3   OH233454   1.002   2.499   5.100  0.0307  0.2849  0.7625
 3988TIP3    H133455   0.992   2.463   5.188  0.2870 -1.3954  0.1331
 3988TIP3    H233456   1.010   2.594   5.114 -1.7504  0.2593  2.3972
 3989TIP3   OH233457   1.527   2.111  14.346 -0.0815 -0.0570  0.1351
 3989TIP3    H133458   1.609   2.120  14.297 -0.1606  1.2556  0.2174
 3989TIP3    H233459   1.458   2.128  14.282 -0.2982 -0.9523  0.1132
 3990TIP3   OH233460   3.795   5.892  12.447 -1.0593 -0.3033  0.6776
 3990TIP3    H133461   3.708   5.869  12.478 -0.9809  0.2433  1.3495
 3990TIP3    H233462   3.824   5.961  12.508 -0.7191  0.4986 -0.3647
 3991TIP3   OH233463   5.113   2.174   3.703 -0.2876  0.4181 -0.1496
 3991TIP3    H133464   5.192   2.186   3.650 -2.3556 -2.2940 -4.4347
 3991TIP3    H233465   5.145   2.140   3.786  3.0972  1.5777 -0.8130
 3992TIP3   OH233466   5.134   1.101  11.650 -0.4126 -0.4875  0.2167
 3992TIP3    H133467   5.099   1.163  11.714  0.2014  2.7821 -2.3132
 3992TIP3    H233468   5.067   1.033  11.644 -1.6919  0.4487  2.3931
 3993TIP3   OH233469   3.797   4.006  15.850  0.5087 -0.3172  0.6374
 3993TIP3    H133470   3.748   3.932  15.814  0.6177  0.1168 -0.4408
 3993TIP3    H233471   3.875   4.011  15.795 -0.4142  1.7877 -0.5852
 3994TIP3   OH233472   0.079   4.924   2.441 -0.8035  0.5778  0.0667
 3994TIP3    H133473   0.093   4.950   2.532  0.4760 -1.4912  0.5479
 3994TIP3    H233474  -0.005   4.879   2.441  0.6240 -2.3637  1.0649
 3995TIP3   OH233475   0.570   2.082   1.202  0.1098 -0.1746 -0.2480
 3995TIP3    H133476   0.648   2.135   1.215 -0.2248  0.3487 -0.3330
 3995TIP3    H233477   0.602   1.999   1.168  0.6241  0.0480 -0.3069
 3996TIP3   OH233478   3.759   3.750  15.249  0.0785  0.0390 -0.2109
 3996TIP3    H133479   3.818   3.822  15.226  0.2832  0.3179  1.1369
 3996TIP3    H233480   3.799   3.673  15.210  2.0191  0.0176  1.6686
 3997TIP3   OH233481   3.367   4.499  11.262  0.4108  0.9421 -0.4078
 3997TIP3    H133482   3.365   4.535  11.351 -1.8543 -0.0886  0.0291
 3997TIP3    H233483   3.426   4.423  11.268  0.1194  0.7614  0.2648
 3998TIP3   OH233484   2.935   2.784   0.712 -0.0177  0.1862 -0.1966
 3998TIP3    H133485   2.894   2.729   0.645 -0.7114 -0.1331  0.4794
 3998TIP3    H233486   2.970   2.859   0.663 -2.2951  1.0022 -0.6846
 3999TIP3   OH233487   4.094   4.062  12.775  0.0641 -0.1384 -0.6217
 3999TIP3    H133488   4.089   4.117  12.853  0.6119 -1.1150  0.1286
 3999TIP3    H233489   4.138   4.117  12.710  2.4562 -0.3104  0.7242
 4000TIP3   OH233490   3.250   4.753  15.988  0.2659 -0.2498  0.2934
 4000TIP3    H133491   3.319   4.791  16.043  0.7588 -0.7138  0.0039
 4000TIP3    H233492   3.168   4.787  16.025  0.7137  1.6716 -0.3872
 4001TIP3   OH233493   1.194   1.240  14.933 -0.3032 -0.0491  0.1726
 4001TIP3    H133494   1.105   1.210  14.950  0.0653 -1.4563 -0.2380
 4001TIP3    H233495   1.231   1.255  15.020 -0.7095 -0.1766  0.3688
 4002TIP3   OH233496   4.880   1.189  13.710 -0.1121 -0.0197 -0.5194
 4002TIP3    H133497   4.963   1.201  13.757  0.9459 -1.4880 -1.9090
 4002TIP3    H233498   4.883   1.098  13.680 -2.2435 -0.0897 -0.6153
 4003TIP3   OH233499   1.173   1.198   6.401  0.5663  0.0933  0.2613
 4003TIP3    H133500   1.089   1.161   6.374 -0.5973  1.5488  1.6894
 4003TIP3    H233501   1.171   1.288   6.368  1.4229  0.2369  0.5885
 4004TIP3   OH233502   4.003   4.977   2.558 -0.2025  0.2311 -0.8526
 4004TIP3    H133503   4.099   4.983   2.561 -0.2549  2.6489 -1.4469
 4004TIP3    H233504   3.985   4.883   2.553  2.1215 -0.2998 -0.5648
 4005TIP3   OH233505   4.415   5.618  14.586 -0.1069  0.4880 -0.6156
 4005TIP3    H133506   4.419   5.690  14.649  1.8725 -1.5308  1.7806
 4005TIP3    H233507   4.417   5.661  14.500  1.3710  3.2565  0.6809
 4006TIP3   OH233508   5.715   3.148  10.772  0.1860  0.7277 -0.0624
 4006TIP3    H133509   5.722   3.227  10.718  0.7196  1.0766  0.4997
 4006TIP3    H233510   5.805   3.118  10.782  0.1913  1.1166  1.2722
 4007TIP3   OH233511   3.355   2.716   0.361  0.1129  0.2556  0.2846
 4007TIP3    H133512   3.286   2.723   0.428  0.4140  0.7972  0.5432
 4007TIP3    H233513   3.363   2.805   0.326  0.9925  0.2976  0.5716
 4008TIP3   OH233514   6.335   5.208   6.047 -0.5625  0.6338 -0.2982
 4008TIP3    H133515   6.374   5.141   5.991 -0.7047  0.2168  0.0929
 4008TIP3    H233516   6.393   5.284   6.038  0.6411 -0.1174  0.6273
 4009TIP3   OH233517   5.016   6.007  11.424  0.4735 -0.4632  0.1452
 4009TIP3    H133518   5.092   5.994  11.480  1.6441  0.2385 -1.2060
 4009TIP3    H233519   5.033   6.090  11.379 -0.9730 -0.4288 -0.3920
 4010TIP3   OH233520   0.866   3.255   2.272  0.4582  0.1644  0.5732
 4010TIP3    H133521   0.861   3.234   2.179  0.9611 -0.6364  0.7171
 4010TIP3    H233522   0.833   3.345   2.278 -0.1928 -0.0044 -0.2840
 4011TIP3   OH233523   6.151   3.190   5.810 -0.0511  0.0295 -0.0140
 4011TIP3    H133524   6.124   3.259   5.749  0.2816  1.4242  1.3412
 4011TIP3    H233525   6.087   3.121   5.798 -0.4949  0.6184 -1.3127
 4012TIP3   OH233526   1.411   4.766  16.637  0.0436 -0.4738 -0.2450
 4012TIP3    H133527   1.495   4.787  16.594  1.5495  0.3070  2.8120
 4012TIP3    H233528   1.419   4.803  16.725 -3.2630 -1.0664  0.4281
 4013TIP3   OH233529   3.370   4.573  16.189  0.4394  0.3262 -0.1716
 4013TIP3    H133530   3.387   4.517  16.113 -0.1285  1.3757 -1.1154
 4013TIP3    H233531   3.276   4.592  16.183  0.1077 -0.6301  1.5568
 4014TIP3   OH233532   2.188   6.637  11.333  0.0942  0.0765 -0.0725
 4014TIP3    H133533   2.210   6.662  11.243 -0.3435 -0.3966 -0.3137
 4014TIP3    H233534   2.266   6.659  11.384  1.2469 -1.8244 -0.9445
 4015TIP3   OH233535   1.805   2.325  14.346 -0.1266 -0.6472  0.2230
 4015TIP3    H133536   1.807   2.266  14.270  1.8103 -0.9593  0.4713
 4015TIP3    H233537   1.812   2.266  14.421  0.3093 -0.1861  0.5415
 4016TIP3   OH233538   2.329   3.333  16.046 -0.0697 -0.0265 -0.5392
 4016TIP3    H133539   2.397   3.269  16.024 -0.9183 -1.4839  0.8720
 4016TIP3    H233540   2.366   3.417  16.020  1.3867 -0.9908 -1.7904
 4017TIP3   OH233541   6.405   3.674   5.313  0.3021  0.3830  0.6048
 4017TIP3    H133542   6.491   3.667   5.271  0.8928  1.2831  1.6418
 4017TIP3    H233543   6.353   3.604   5.272  1.0469  0.8022 -1.1440
 4018TIP3   OH233544   5.717   5.650   2.105  0.0240 -0.1575 -0.0226
 4018TIP3    H133545   5.799   5.631   2.152 -0.3866  1.0793  1.2648
 4018TIP3    H233546   5.654   5.670   2.174 -0.8958  0.6640 -1.0678
 4019TIP3   OH233547   5.336   1.521   0.281  0.0301  0.1361  0.2236
 4019TIP3    H133548   5.416   1.525   0.229  0.5108 -1.2043  0.7987
 4019TIP3    H233549   5.361   1.470   0.358 -1.2754  0.0530  0.6060
 4020TIP3   OH233550   2.064   3.876  11.851 -0.0910 -0.1906  0.4160
 4020TIP3    H133551   1.992   3.917  11.899  0.2069  1.4703 -0.4740
 4020TIP3    H233552   2.021   3.815  11.791 -0.7008  0.1379  0.5088
 4021TIP3   OH233553   5.482   1.797  12.529 -0.7435  0.1253 -0.1604
 4021TIP3    H133554   5.447   1.713  12.500 -1.4552  0.1263  0.6500
 4021TIP3    H233555   5.469   1.797  12.624  2.6952 -0.4562  0.4449
 4022TIP3   OH233556   2.102   6.692  13.956 -0.4938  0.2438  0.0911
 4022TIP3    H133557   2.045   6.628  14.000 -0.2051 -0.0142  0.0925
 4022TIP3    H233558   2.190   6.656  13.966 -0.3585  0.5121 -0.1375
 4023TIP3   OH233559   0.165   5.007  16.379  0.0397  0.6305  0.1632
 4023TIP3    H133560   0.224   4.940  16.345 -0.9761  0.1197 -0.6630
 4023TIP3    H233561   0.222   5.080  16.403  1.0160  0.0824 -0.4395
 4024TIP3   OH233562   2.946   2.583   2.530  0.0574 -0.0761  0.1776
 4024TIP3    H133563   2.866   2.530   2.519 -0.0206 -0.2312  1.3448
 4024TIP3    H233564   2.928   2.663   2.480  0.8519 -1.7625 -3.0804
 4025TIP3   OH233565   4.077   2.816   4.928  0.2479 -0.0412  0.1217
 4025TIP3    H133566   4.084   2.910   4.944 -1.4720  0.0464  0.6410
 4025TIP3    H233567   4.033   2.782   5.006  1.3517 -1.3877  0.1985
 4026TIP3   OH233568   2.562   1.238  13.057  0.5632  0.7052 -0.5556
 4026TIP3    H133569   2.589   1.243  12.965 -1.4070 -0.3079 -1.2468
 4026TIP3    H233570   2.468   1.256  13.056  0.4919  0.6515  1.2698
 4027TIP3   OH233571   3.517   3.138  15.180 -0.3001  0.5903  0.7595
 4027TIP3    H133572   3.461   3.087  15.122  0.5835  0.0566  0.3559
 4027TIP3    H233573   3.605   3.106  15.162  0.1882  1.7220  1.0622
 4028TIP3   OH233574   6.542   1.552   5.869  0.5897 -0.3435  0.2587
 4028TIP3    H133575   6.554   1.633   5.919 -0.1720 -0.3378  0.4455
 4028TIP3    H233576   6.527   1.485   5.935 -1.2736 -0.1853  0.0475
 4029TIP3   OH233577   5.266   2.831   2.470  0.0719 -0.3072 -0.2124
 4029TIP3    H133578   5.273   2.909   2.414 -1.4136 -1.1039 -1.6190
 4029TIP3    H233579   5.351   2.789   2.463  0.0039 -0.2653 -1.7610
 4030TIP3   OH233580   0.853   2.291  13.930  0.1108 -0.1604 -0.1926
 4030TIP3    H133581   0.865   2.199  13.954 -0.0946 -0.1858 -0.1896
 4030TIP3    H233582   0.761   2.298  13.905  0.1149  0.0533 -0.1517
 4031TIP3   OH233583   2.229   1.268  16.938 -0.0082 -0.0913 -0.7070
 4031TIP3    H133584   2.303   1.254  16.996  1.7523 -0.1824 -2.8518
 4031TIP3    H233585   2.235   1.360  16.913 -0.0059 -0.3383 -1.6661
 4032TIP3   OH233586   4.200   5.083  11.822 -0.2183 -0.7042  0.2692
 4032TIP3    H133587   4.200   5.071  11.727  1.6765  0.2644  0.1129
 4032TIP3    H233588   4.123   5.138  11.838 -0.5778 -0.8951 -0.6777
 4033TIP3   OH233589   0.252   2.738   3.184  0.3645  0.2397 -0.4439
 4033TIP3    H133590   0.196   2.681   3.131 -0.2074  1.4222 -1.1414
 4033TIP3    H233591   0.195   2.812   3.208  1.2849  0.8593 -0.1265
 4034TIP3   OH233592   3.286   3.182  16.470  0.3191  0.9320 -0.0492
 4034TIP3    H133593   3.352   3.113  16.456 -0.7356 -0.3489  1.0428
 4034TIP3    H233594   3.224   3.170  16.398 -0.1914  0.3173  0.4821
 4035TIP3   OH233595   3.167   3.363  13.814 -0.1762 -0.0228  0.2004
 4035TIP3    H133596   3.128   3.296  13.758 -2.0590  1.2777 -0.1512
 4035TIP3    H233597   3.190   3.318  13.895 -2.1584 -0.9667  0.2912
 4036TIP3   OH233598   0.898   3.870   5.119  0.2364 -1.1751 -1.0312
 4036TIP3    H133599   0.985   3.889   5.084  0.2698  3.1360  0.7360
 4036TIP3    H233600   0.914   3.847   5.211 -0.4777  0.2150 -0.5410
 4037TIP3   OH233601   0.289   3.862  13.868  0.1853 -0.1236  0.1062
 4037TIP3    H133602   0.321   3.934  13.921  0.4805 -0.3297  0.2103
 4037TIP3    H233603   0.355   3.850  13.800  0.4794 -0.7360  0.4914
 4038TIP3   OH233604   1.562   1.762  15.184 -0.2853  0.2398 -0.1311
 4038TIP3    H133605   1.556   1.686  15.126  0.0985  0.7101 -0.7972
 4038TIP3    H233606   1.630   1.817  15.145 -0.1513  0.6530  0.6683
 4039TIP3   OH233607   2.513   5.505   0.943  0.0585 -0.4884 -0.5490
 4039TIP3    H133608   2.488   5.434   1.002 -0.2358 -0.3321 -0.4828
 4039TIP3    H233609   2.473   5.484   0.860 -1.1886  0.2811 -0.1764
 4040TIP3   OH233610   6.534   1.033  13.195 -0.1281  0.2595 -0.2438
 4040TIP3    H133611   6.447   1.073  13.185  0.0786  1.3999  1.9469
 4040TIP3    H233612   6.592   1.089  13.143 -0.2721  1.2708  0.6438
 4041TIP3   OH233613   2.600   3.381   5.943 -0.1800  0.3736 -0.5123
 4041TIP3    H133614   2.547   3.313   5.901 -1.7354 -0.7731  2.9519
 4041TIP3    H233615   2.677   3.334   5.976 -0.5993  0.5324  0.7283
 4042TIP3   OH233616   4.879   2.969  10.922  0.3080 -0.2152  0.0258
 4042TIP3    H133617   4.824   2.983  10.844 -0.3851 -1.6600  0.2296
 4042TIP3    H233618   4.824   2.918  10.981  1.3577 -0.4098  0.8576
 4043TIP3   OH233619   1.080   4.348  12.269  0.0763 -0.0350  0.5389
 4043TIP3    H133620   1.074   4.396  12.351 -2.8635  0.8335 -0.0454
 4043TIP3    H233621   1.165   4.372  12.232  0.5420  1.2054  2.3130
 4044TIP3   OH233622   4.192   4.902  14.330  0.0927  0.8854  0.3659
 4044TIP3    H133623   4.150   4.986  14.314  0.8306  1.3198  0.6413
 4044TIP3    H233624   4.209   4.902  14.424 -2.5234 -0.8357  0.9433
 4045TIP3   OH233625   1.002   5.691   4.062  0.1404  0.0570  1.2474
 4045TIP3    H133626   0.925   5.635   4.068 -1.4016  1.2948 -3.2461
 4045TIP3    H233627   0.966   5.779   4.049  2.2002  0.6754 -0.9692
 4046TIP3   OH233628   3.404   6.405  11.788  0.0313 -0.1666  0.4959
 4046TIP3    H133629   3.463   6.414  11.864  2.0716 -0.3821 -0.9784
 4046TIP3    H233630   3.454   6.354  11.725 -0.4757  2.2496 -2.0773
 4047TIP3   OH233631   4.131   5.860  12.424 -0.7526  0.4840 -0.2305
 4047TIP3    H133632   4.065   5.804  12.466  0.7676 -1.6235 -0.4993
 4047TIP3    H233633   4.082   5.936  12.393 -2.5597  0.3947  2.1008
 4048TIP3   OH233634   1.132   2.977   0.008  0.4303  0.2306 -0.7504
 4048TIP3    H133635   1.179   2.906   0.050  1.1414  0.0273 -1.8380
 4048TIP3    H233636   1.137   3.049   0.070  1.0450 -0.2021 -0.2809
 4049TIP3   OH233637   1.032   3.249   1.308  0.0173 -0.6050 -0.0642
 4049TIP3    H133638   0.991   3.332   1.283  0.4382 -0.8353 -1.6097
 4049TIP3    H233639   0.961   3.199   1.348 -0.3229  0.3590  0.5847
 4050TIP3   OH233640   4.385   4.984  12.062  0.3080 -0.1852  0.2980
 4050TIP3    H133641   4.338   5.044  12.119  1.1623  0.7221  0.0779
 4050TIP3    H233642   4.322   4.957  11.996  0.2881  1.6676 -0.4986
 4051TIP3   OH233643   0.663   5.110  12.533  0.0339 -0.2074  0.4365
 4051TIP3    H133644   0.745   5.158  12.545  0.7737 -1.2067 -0.4538
 4051TIP3    H233645   0.624   5.150  12.454  0.9885 -1.4673 -0.7193
 4052TIP3   OH233646   4.255   3.293  13.441 -0.2482 -0.5636 -0.0629
 4052TIP3    H133647   4.282   3.380  13.413 -1.1022  0.2075  1.3984
 4052TIP3    H233648   4.257   3.296  13.536 -1.2398 -1.8290  0.0337
 4053TIP3   OH233649   0.334   6.233   1.200  0.0493  0.0762 -0.0122
 4053TIP3    H133650   0.416   6.243   1.249 -0.0237 -1.2048  0.4024
 4053TIP3    H233651   0.358   6.249   1.109  0.4990  0.9305  0.2414
 4054TIP3   OH233652   6.570   3.554   5.036  0.3433  0.4136 -0.5294
 4054TIP3    H133653   6.563   3.469   5.080 -3.6027  1.2133  0.7120
 4054TIP3    H233654   6.644   3.543   4.976  1.4079 -3.1101  1.1331
 4055TIP3   OH233655   5.654   0.284   5.944  0.1777 -0.4192  0.1174
 4055TIP3    H133656   5.601   0.230   5.885  0.2619 -1.9585  1.3861
 4055TIP3    H233657   5.744   0.257   5.927  0.3570  0.3580 -0.2233
 4056TIP3   OH233658   4.402   6.789   3.455  0.1787  0.6923  0.0424
 4056TIP3    H133659   4.362   6.875   3.442 -1.0524  0.0522 -0.5988
 4056TIP3    H233660   4.453   6.798   3.536 -2.7788  1.0647  2.0173
 4057TIP3   OH233661   0.724   6.176   5.139 -0.1950 -0.1874  0.5335
 4057TIP3    H133662   0.738   6.236   5.212 -1.3403 -0.5334  1.0634
 4057TIP3    H233663   0.756   6.224   5.062  1.2333  0.0985  1.2596
 4058TIP3   OH233664   4.945   5.077  15.308 -0.1985 -0.5316 -0.0176
 4058TIP3    H133665   4.976   5.010  15.369 -0.8754 -0.6621  0.1918
 4058TIP3    H233666   5.020   5.136  15.297  0.1071 -0.8127  0.5080
 4059TIP3   OH233667   4.064   1.033   0.756  0.1985  0.7493  0.1692
 4059TIP3    H133668   4.072   0.977   0.833 -2.9026  0.9385  0.7504
 4059TIP3    H233669   4.140   1.091   0.761  1.7388 -1.2326  1.3244
 4060TIP3   OH233670   2.053   2.326   5.109  0.0653 -0.0481 -0.2400
 4060TIP3    H133671   2.061   2.409   5.061  0.9957  1.0620  1.7357
 4060TIP3    H233672   1.998   2.348   5.185 -2.9745 -2.1967 -1.6024
 4061TIP3   OH233673   4.018   4.381  14.682 -0.0919  0.0879 -1.0898
 4061TIP3    H133674   4.003   4.398  14.775  1.5043  0.7094 -0.9240
 4061TIP3    H233675   3.958   4.441  14.638 -1.6107 -0.9287 -0.5048
 4062TIP3   OH233676   1.438   3.876  17.114 -0.0116  0.2209  0.2942
 4062TIP3    H133677   1.357   3.922  17.090  0.0890 -0.0052 -0.5200
 4062TIP3    H233678   1.505   3.944  17.115 -0.3722  0.5768  1.9072
 4063TIP3   OH233679   3.442   1.472  11.469  0.3079 -0.2835  0.1061
 4063TIP3    H133680   3.413   1.563  11.470  1.0176 -0.0367  1.4279
 4063TIP3    H233681   3.365   1.422  11.445  0.0908  0.7027 -1.4021
 4064TIP3   OH233682   3.216   5.639  15.520 -0.3291 -0.1341 -0.4157
 4064TIP3    H133683   3.285   5.671  15.579  0.4068 -0.7750 -0.9044
 4064TIP3    H233684   3.162   5.582  15.575 -1.1253  1.2089  0.2411
 4065TIP3   OH233685   1.227   2.909   1.584  0.2794 -0.2241  0.0416
 4065TIP3    H133686   1.233   2.829   1.531 -1.4679 -0.2378 -0.1944
 4065TIP3    H233687   1.318   2.937   1.594  0.7522 -0.2848 -2.9123
 4066TIP3   OH233688   3.296   0.162   1.835 -0.3246 -0.2480  0.1321
 4066TIP3    H133689   3.219   0.199   1.878 -1.6278 -1.3959 -1.0935
 4066TIP3    H233690   3.362   0.154   1.904 -1.1927  1.0450  1.1412
 4067TIP3   OH233691   3.798   0.593   1.497  0.4076  0.0738 -0.6838
 4067TIP3    H133692   3.826   0.580   1.407 -1.0695 -1.5982 -0.9456
 4067TIP3    H233693   3.864   0.549   1.550  0.0713 -0.9735 -1.1066
 4068TIP3   OH233694   5.151   4.151   2.405  0.0240  0.2026  0.6024
 4068TIP3    H133695   5.077   4.178   2.459  2.5583  2.6461  3.1801
 4068TIP3    H233696   5.219   4.128   2.467  2.5778  1.4451 -1.5469
 4069TIP3   OH233697   4.124   2.977  14.073  0.1590 -0.1606  0.1368
 4069TIP3    H133698   4.160   3.062  14.098  0.0718 -0.1615  0.2684
 4069TIP3    H233699   4.190   2.914  14.104  0.2664 -0.1356 -0.0420
 4070TIP3   OH233700   1.952   5.044  15.636  0.6487 -0.8345 -0.0763
 4070TIP3    H133701   1.895   5.074  15.565  0.9637  0.1034  0.0500
 4070TIP3    H233702   1.987   4.960  15.606  1.9998  0.2612 -1.7441
 4071TIP3   OH233703   3.872   4.534   4.452  0.2027 -0.0498 -0.3504
 4071TIP3    H133704   3.782   4.516   4.423 -0.6207  0.8718  1.4682
 4071TIP3    H233705   3.877   4.629   4.457  0.3597 -0.1192  2.0948
 4072TIP3   OH233706   0.685   3.692  13.888 -0.1008  0.1751 -0.3428
 4072TIP3    H133707   0.696   3.787  13.884  0.4594  0.1116 -0.2966
 4072TIP3    H233708   0.774   3.657  13.894 -0.3418 -0.2978  0.8155
 4073TIP3   OH233709   1.169   6.775   1.188  0.8272  0.0782 -0.1436
 4073TIP3    H133710   1.126   6.715   1.249  0.9179  0.5681  0.4169
 4073TIP3    H233711   1.146   6.742   1.101 -0.0248 -0.1222  0.1496
 4074TIP3   OH233712   1.500   1.470   2.791 -0.1574 -0.1220  0.0378
 4074TIP3    H133713   1.546   1.447   2.872 -0.7933  2.8522  1.3936
 4074TIP3    H233714   1.569   1.469   2.724  0.5195 -1.9957  0.7037
 4075TIP3   OH233715   0.685   4.196   6.767  0.7485 -0.0947  0.2433
 4075TIP3    H133716   0.692   4.284   6.803 -0.6701  0.3438 -0.4832
 4075TIP3    H233717   0.614   4.155   6.817  0.8958 -0.5637  0.0745
 4076TIP3   OH233718   2.963   2.832  12.523 -0.8001  0.4533  0.0748
 4076TIP3    H133719   2.999   2.904  12.576 -0.7304  0.4236  0.0677
 4076TIP3    H233720   3.024   2.824  12.450 -0.8354  0.4192  0.0497
 4077TIP3   OH233721   3.453   5.703  11.908  0.3962  0.4745 -0.2507
 4077TIP3    H133722   3.484   5.691  11.997  1.0431  0.4981 -0.4702
 4077TIP3    H233723   3.371   5.752  11.918  1.2883  1.9223  0.2417
 4078TIP3   OH233724   4.151   1.871  14.218 -0.2340 -0.0831  0.1038
 4078TIP3    H133725   4.074   1.919  14.189  0.3515  0.8461  0.0268
 4078TIP3    H233726   4.203   1.936  14.267  0.3670 -0.7548  0.3834
 4079TIP3   OH233727   5.410   5.003  16.751 -0.2787  0.0856  0.5797
 4079TIP3    H133728   5.397   5.074  16.814 -0.2429  0.6283 -0.0102
 4079TIP3    H233729   5.391   5.043  16.666  0.0990 -0.5192  0.2031
 4080TIP3   OH233730   0.530   2.217   5.283 -0.3515 -0.2285 -0.6616
 4080TIP3    H133731   0.574   2.161   5.219 -0.4662 -0.5309 -0.4798
 4080TIP3    H233732   0.495   2.290   5.232  0.1549 -0.1080 -0.8429
 4081TIP3   OH233733   2.972   3.178  12.313 -0.6836  0.2107  0.4587
 4081TIP3    H133734   3.061   3.143  12.316 -0.6720  0.3081  1.5969
 4081TIP3    H233735   2.926   3.121  12.252  0.2056  0.2954 -0.3347
 4082TIP3   OH233736   3.386   3.018  11.880 -0.0977  0.2132 -1.0678
 4082TIP3    H133737   3.454   3.071  11.839 -0.6178  0.3168 -1.8229
 4082TIP3    H233738   3.433   2.959  11.938  0.5746  0.7677 -1.0371
 4083TIP3   OH233739   2.550   5.499  13.900 -0.0478 -0.0637  0.0433
 4083TIP3    H133740   2.605   5.501  13.822 -0.4134 -0.0933 -0.2165
 4083TIP3    H233741   2.527   5.406  13.911  0.6510 -0.1700  0.6434
 4084TIP3   OH233742   5.546   6.809   0.533 -0.2892 -0.1688 -0.5155
 4084TIP3    H133743   5.467   6.792   0.481 -0.2458 -1.6718 -0.1579
 4084TIP3    H233744   5.597   6.728   0.525  0.4980  0.2083  0.5121
 4085TIP3   OH233745   0.493   0.278   4.901 -0.0685  0.1532  0.0884
 4085TIP3    H133746   0.439   0.352   4.929 -0.0466 -0.2765  1.3078
 4085TIP3    H233747   0.572   0.318   4.863 -1.1659  0.7865 -1.6531
 4086TIP3   OH233748   2.693   4.296   4.098 -0.0740  0.0178  0.0542
 4086TIP3    H133749   2.703   4.286   4.003 -0.7316  2.4348 -0.3239
 4086TIP3    H233750   2.644   4.217   4.125 -1.4381  0.1128 -1.9194
 4087TIP3   OH233751   3.220   3.811   3.894 -0.2704  0.8621  0.1257
 4087TIP3    H133752   3.218   3.719   3.918  1.8830  0.7150 -0.1098
 4087TIP3    H233753   3.158   3.853   3.954 -0.0710 -0.4921  1.3223
 4088TIP3   OH233754   6.149   5.191  14.676 -0.1565  0.3384 -0.0725
 4088TIP3    H133755   6.115   5.214  14.762 -1.3149 -1.2547 -0.0588
 4088TIP3    H233756   6.078   5.142  14.634  1.2122 -0.9492 -1.0238
 4089TIP3   OH233757   3.756   0.059  13.211 -0.3351 -0.3724 -0.1405
 4089TIP3    H133758   3.715   0.013  13.284 -0.9261 -2.6025 -1.7662
 4089TIP3    H233759   3.690   0.058  13.141  0.9390 -0.1986 -1.3982
 4090TIP3   OH233760   0.596   1.672  11.537  0.3918  0.0822 -0.2337
 4090TIP3    H133761   0.683   1.668  11.577  0.4202  0.1643 -0.2873
 4090TIP3    H233762   0.539   1.702  11.608  0.4091  0.0422 -0.2024
 4091TIP3   OH233763   2.696   2.956  11.384 -0.3276 -0.7535  0.1718
 4091TIP3    H133764   2.696   3.049  11.404  1.2841 -0.4315 -1.0708
 4091TIP3    H233765   2.628   2.918  11.440 -1.1946  1.1958  0.4941
 4092TIP3   OH233766   6.062   3.630  17.114 -1.0703  0.9866  0.1661
 4092TIP3    H133767   6.081   3.723  17.110  1.7217  0.4758 -0.9950
 4092TIP3    H233768   6.023   3.609  17.029 -0.4510  0.9020 -0.1054
 4093TIP3   OH233769   2.616   6.725   2.516 -0.6097 -0.5257  0.1590
 4093TIP3    H133770   2.539   6.766   2.477 -0.3899 -0.1450  0.1150
 4093TIP3    H233771   2.672   6.703   2.441  0.3468  1.2748  0.2674
 4094TIP3   OH233772   5.346   0.053  17.077 -0.3080  0.0816 -0.2412
 4094TIP3    H133773   5.404   0.066  17.002 -0.0442 -0.0346 -0.0589
 4094TIP3    H233774   5.269   0.010  17.041 -0.6150  0.9307 -0.6247
 4095TIP3   OH233775   5.279   2.277  13.227  0.5880  0.2663 -0.3142
 4095TIP3    H133776   5.340   2.296  13.298 -0.3670 -1.6759  1.1039
 4095TIP3    H233777   5.193   2.298  13.262  0.0962 -0.6892 -0.8990
 4096TIP3   OH233778   3.405   0.534   0.655  0.1738 -0.0955  0.5685
 4096TIP3    H133779   3.335   0.591   0.688  0.8808 -0.0158  2.0340
 4096TIP3    H233780   3.404   0.459   0.716  1.0584 -0.3096  0.3234
 4097TIP3   OH233781   4.965   4.680   0.426 -0.3272  0.5877  0.1289
 4097TIP3    H133782   4.980   4.596   0.469 -0.0610  0.6769  0.2110
 4097TIP3    H233783   4.916   4.732   0.489 -1.9208 -0.0679 -0.5295
 4098TIP3   OH233784   2.897   3.095  14.936 -0.3103  0.3517  0.4476
 4098TIP3    H133785   2.890   3.047  14.854 -0.5421 -1.4393  1.4519
 4098TIP3    H233786   2.907   3.186  14.910  1.7978 -0.3666 -1.6275
 4099TIP3   OH233787   2.132   6.369   6.258  0.6593 -0.0440  0.4644
 4099TIP3    H133788   2.060   6.310   6.282  2.0919 -0.8703  3.0356
 4099TIP3    H233789   2.102   6.456   6.288  0.3024 -0.1924  0.5495
 4100TIP3   OH233790   6.030   1.149   5.023 -0.6326  0.6640  0.5075
 4100TIP3    H133791   6.091   1.216   4.991  1.3393 -1.4577 -0.4197
 4100TIP3    H233792   6.064   1.125   5.109  0.7645 -1.4396 -0.5360
 4101TIP3   OH233793   3.890   3.613   2.293 -0.0066  0.0143  0.9373
 4101TIP3    H133794   3.893   3.692   2.347  0.6188 -0.6060  1.8336
 4101TIP3    H233795   3.970   3.566   2.315 -1.0166 -1.5187  1.4419
 4102TIP3   OH233796   3.499   6.024  15.632 -0.1035  0.6382 -0.5167
 4102TIP3    H133797   3.446   6.029  15.552 -0.7267 -1.9684 -0.3553
 4102TIP3    H233798   3.585   5.994  15.601  0.3498  1.7803 -0.4161
 4103TIP3   OH233799   0.746   0.942  16.918 -0.6184  0.1270  0.0025
 4103TIP3    H133800   0.655   0.936  16.891 -0.5919 -0.5534  0.0561
 4103TIP3    H233801   0.783   0.856  16.900  0.6326  1.0167 -2.2053
 4104TIP3   OH233802   0.174   5.775   2.213  0.4006 -0.0832 -0.8073
 4104TIP3    H133803   0.109   5.705   2.210 -0.7924  1.0076 -1.3170
 4104TIP3    H233804   0.161   5.816   2.298 -0.5654  1.0136 -1.4566
 4105TIP3   OH233805   0.490   6.807   2.717  0.0008 -0.0458  0.0720
 4105TIP3    H133806   0.449   6.864   2.652  1.4454  0.1483 -0.7041
 4105TIP3    H233807   0.438   6.727   2.713 -1.4217  0.8232  0.4424
 4106TIP3   OH233808   0.588   2.708  12.494  0.6444 -0.0291  0.2504
 4106TIP3    H133809   0.668   2.678  12.450 -0.1404  0.3679 -1.5208
 4106TIP3    H233810   0.578   2.649  12.569  1.9952 -0.7786 -0.1317
 4107TIP3   OH233811   3.971   2.494  15.982  0.1645 -0.0973  0.1109
 4107TIP3    H133812   3.900   2.558  15.991 -0.5668 -0.9738  0.7895
 4107TIP3    H233813   4.051   2.547  15.987 -0.4259  0.8902 -0.4926
 4108TIP3   OH233814   2.783   1.702   0.538 -0.2645 -0.2155 -0.1130
 4108TIP3    H133815   2.808   1.677   0.449  0.4625 -2.3326  0.6335
 4108TIP3    H233816   2.814   1.792   0.547 -0.2697  0.0106 -1.9521
 4109TIP3   OH233817   6.781   2.909   4.618  0.1796 -0.0977  0.2800
 4109TIP3    H133818   6.765   3.002   4.632  1.6494  0.0296  1.3911
 4109TIP3    H233819   6.694   2.870   4.606 -0.4177  1.4990 -0.9212
 4110TIP3   OH233820   0.802   6.159   3.659 -0.2087 -0.4419 -0.0127
 4110TIP3    H133821   0.746   6.236   3.650 -0.2137 -0.4236  0.1697
 4110TIP3    H233822   0.881   6.191   3.704  0.4826 -0.2071 -1.3383
 4111TIP3   OH233823   5.133   5.891   3.760  0.4180 -0.2425 -0.4851
 4111TIP3    H133824   5.207   5.941   3.795 -1.7361  1.6786  1.7610
 4111TIP3    H233825   5.106   5.835   3.833 -1.5092  0.5544 -0.5391
 4112TIP3   OH233826   6.337   1.867   6.569  0.4270 -0.0096  0.3992
 4112TIP3    H133827   6.418   1.818   6.553 -0.2692 -1.0346 -0.1505
 4112TIP3    H233828   6.268   1.810   6.535 -0.4578  1.2204  0.0599
 4113TIP3   OH233829   1.765   6.697   4.554  0.5697 -0.1815 -0.0025
 4113TIP3    H133830   1.684   6.672   4.599  0.2635  0.1516 -0.3517
 4113TIP3    H233831   1.739   6.708   4.463  0.7525  1.0465  0.0734
 4114TIP3   OH233832   2.193   0.068  15.994 -0.0600 -0.3022 -0.1278
 4114TIP3    H133833   2.097   0.073  15.991 -0.1180 -0.0846  1.3314
 4114TIP3    H233834   2.223   0.147  15.949 -0.5043 -1.2448 -2.1961
 4115TIP3   OH233835   2.145   5.495  17.115  0.0364  0.5530 -0.3282
 4115TIP3    H133836   2.058   5.494  17.154  0.9883 -0.4220  1.9715
 4115TIP3    H233837   2.190   5.567  17.159  1.4552 -1.2166  1.2921
 4116TIP3   OH233838   4.785   5.764  14.281 -0.2819  0.2766 -0.3633
 4116TIP3    H133839   4.709   5.721  14.241  0.1592  0.3968 -1.3626
 4116TIP3    H233840   4.784   5.852  14.244  0.2293  0.3480 -0.2129
 4117TIP3   OH233841   4.941   6.158   2.229 -0.4020 -0.2867 -0.3778
 4117TIP3    H133842   4.913   6.124   2.314  2.2193  2.5783  1.8599
 4117TIP3    H233843   4.921   6.252   2.234  1.4918  0.2755 -2.1386
 4118TIP3   OH233844   4.043   5.609   3.109 -0.4493  0.3824  0.6743
 4118TIP3    H133845   4.020   5.516   3.102  2.1426 -0.3045 -0.2426
 4118TIP3    H233846   3.976   5.647   3.165 -0.7382 -2.3864  2.3920
 4119TIP3   OH233847   0.513   4.383  17.030  0.3284  0.5551  0.1912
 4119TIP3    H133848   0.544   4.293  17.025 -0.6319  0.2829 -1.1305
 4119TIP3    H233849   0.568   4.431  16.968  0.3444  0.7445  0.3480
 4120TIP3   OH233850   0.135   3.261  11.777  0.0365  0.4483  0.2501
 4120TIP3    H133851   0.083   3.340  11.760  1.0877  1.1071 -0.0033
 4120TIP3    H233852   0.197   3.286  11.846  0.8383  0.0693 -0.3098
 4121TIP3   OH233853   6.352   0.231  15.973 -0.6163  0.1181 -0.9335
 4121TIP3    H133854   6.288   0.302  15.975 -0.8606 -0.1001 -0.9267
 4121TIP3    H233855   6.430   0.268  16.015 -0.4591  0.6445 -1.6767
 4122TIP3   OH233856   0.184   0.296   4.447 -0.1988 -0.0025 -0.0145
 4122TIP3    H133857   0.168   0.209   4.484 -0.4944 -0.3509 -0.9293
 4122TIP3    H233858   0.258   0.283   4.387 -0.7405  0.2036 -0.7355
 4123TIP3   OH233859   1.505   3.336   2.323 -0.1042 -0.0549  0.1314
 4123TIP3    H133860   1.515   3.294   2.409  2.1568 -0.7741 -0.4029
 4123TIP3    H233861   1.495   3.429   2.343 -4.3101 -0.5375  1.3087
 4124TIP3   OH233862   4.197   6.278   0.557  0.5513  0.5533 -0.3090
 4124TIP3    H133863   4.211   6.184   0.565 -0.9749  0.2380 -0.9125
 4124TIP3    H233864   4.213   6.298   0.465  2.3232  1.2008  0.0859
 4125TIP3   OH233865   2.238   4.060   2.484 -0.0131  0.1410 -0.2964
 4125TIP3    H133866   2.329   4.082   2.465  0.5309  0.6762  2.4742
 4125TIP3    H233867   2.197   4.144   2.504 -0.5816 -0.3019  0.4444
 4126TIP3   OH233868   4.416   3.035   3.135  0.1092  0.9811 -0.3911
 4126TIP3    H133869   4.386   2.975   3.203  0.7436  0.0651 -0.8994
 4126TIP3    H233870   4.343   3.042   3.074  0.7792 -1.0642 -1.5114
 4127TIP3   OH233871   0.331   6.467   3.627  0.1372  0.1488  0.4146
 4127TIP3    H133872   0.299   6.379   3.606 -1.2882  0.7357  0.0749
 4127TIP3    H233873   0.391   6.488   3.555  0.3940 -0.4896  0.4346
 4128TIP3   OH233874   2.272   2.219  12.230 -0.0768  0.0818 -0.7511
 4128TIP3    H133875   2.191   2.176  12.256  0.0836  1.0801  1.5681
 4128TIP3    H233876   2.294   2.278  12.302  3.4641 -1.1797 -0.5750
 4129TIP3   OH233877   5.888   1.113  12.266  0.2152 -0.2143  0.0217
 4129TIP3    H133878   5.913   1.182  12.205  0.8268 -2.5564 -2.5947
 4129TIP3    H233879   5.794   1.100  12.250  0.6246 -1.6868 -1.5007
 4130TIP3   OH233880   5.060   2.390  11.148 -0.1805 -0.2209  0.0372
 4130TIP3    H133881   5.125   2.326  11.178 -0.1436 -0.4103 -0.4266
 4130TIP3    H233882   4.976   2.347  11.163 -0.1330 -0.6644 -0.8873
 4131TIP3   OH233883   5.921   4.652  16.180 -0.5660 -0.1800  0.4640
 4131TIP3    H133884   5.936   4.745  16.194  0.8563  0.1833 -2.6515
 4131TIP3    H233885   5.871   4.624  16.257 -0.2097  2.8980  1.9726
 4132TIP3   OH233886   1.818   6.723  15.769 -0.5328  0.4508 -0.4932
 4132TIP3    H133887   1.847   6.634  15.789 -1.1011  0.4711  0.4885
 4132TIP3    H233888   1.839   6.734  15.676 -3.7139 -2.0248 -1.6973
 4133TIP3   OH233889   5.139   0.841   2.611  0.1328  0.1609 -0.1891
 4133TIP3    H133890   5.122   0.864   2.702  1.8691 -0.3579  0.3195
 4133TIP3    H233891   5.060   0.867   2.564 -0.2051  1.8982  1.2080
 4134TIP3   OH233892   1.872   3.590  15.359  0.3856 -0.8788 -0.0432
 4134TIP3    H133893   1.948   3.638  15.392  0.6912 -1.0582 -0.4749
 4134TIP3    H233894   1.907   3.505  15.331 -0.0045 -1.0342 -0.0742
 4135TIP3   OH233895   2.492   2.426   6.162  0.3407  0.3916  0.2015
 4135TIP3    H133896   2.455   2.444   6.248 -0.9345  0.0900 -0.2637
 4135TIP3    H233897   2.553   2.499   6.147  0.3931  0.5809  1.2439
 4136TIP3   OH233898   6.524   2.650   1.832  0.4160  0.1399  0.2476
 4136TIP3    H133899   6.501   2.615   1.917 -0.6275 -0.2761 -0.1857
 4136TIP3    H233900   6.599   2.707   1.848 -0.4291  0.9232  1.6236
 4137TIP3   OH233901   0.459   2.541  15.619 -0.0878  0.1334 -0.5016
 4137TIP3    H133902   0.543   2.496  15.619 -0.2818 -0.5311 -3.9299
 4137TIP3    H233903   0.409   2.500  15.688  0.9151 -2.6315 -1.2988
 4138TIP3   OH233904   5.480   3.371  14.442 -0.1016 -0.2676 -0.1222
 4138TIP3    H133905   5.541   3.344  14.510 -0.9013  1.0861  1.1932
 4138TIP3    H233906   5.429   3.291  14.423  0.7352 -0.8907  0.1972
 4139TIP3   OH233907   1.021   2.489  12.940  0.5340  0.3256  0.0172
 4139TIP3    H133908   1.061   2.440  13.012  1.9561  1.2277 -0.1264
 4139TIP3    H233909   1.092   2.502  12.877  0.5572  3.5637  0.5887
 4140TIP3   OH233910   0.265   6.646  12.327  0.0065  0.3139 -0.0259
 4140TIP3    H133911   0.310   6.635  12.410  0.1667 -0.6273 -0.2312
 4140TIP3    H233912   0.326   6.695  12.273  0.1352  0.4186  0.2111
 4141TIP3   OH233913   2.510   6.389  14.248  0.4121 -0.0782 -0.3781
 4141TIP3    H133914   2.419   6.406  14.275  0.7618 -2.2765  2.8503
 4141TIP3    H233915   2.502   6.356  14.159 -1.7591  1.2517 -0.7649
 4142TIP3   OH233916   0.582   4.631   2.727  0.3511  0.0672 -0.0032
 4142TIP3    H133917   0.528   4.680   2.665  1.2459  1.3917  0.2266
 4142TIP3    H233918   0.544   4.650   2.813  0.5772  0.1930  0.0697
 4143TIP3   OH233919   6.162   0.796   2.411 -0.0039  0.4765 -0.1499
 4143TIP3    H133920   6.202   0.722   2.457  0.1191  1.7141  1.8344
 4143TIP3    H233921   6.101   0.756   2.349  0.8183 -1.2938  0.1212
 4144TIP3   OH233922   6.277   0.669   2.737  0.0964 -0.1822 -0.0550
 4144TIP3    H133923   6.234   0.584   2.738 -1.2031  0.4535 -0.2024
 4144TIP3    H233924   6.294   0.687   2.645 -1.9990  0.8510 -0.2794
 4145TIP3   OH233925   3.597   0.587   2.546 -0.4174 -0.1256  0.1529
 4145TIP3    H133926   3.671   0.541   2.506  0.7829  1.3053  0.6145
 4145TIP3    H233927   3.631   0.621   2.628 -2.6139 -2.2853  2.0978
 4146TIP3   OH233928   6.537   3.608  13.887  0.4138 -0.1907  0.1704
 4146TIP3    H133929   6.614   3.641  13.933  0.5029  0.2636 -0.2980
 4146TIP3    H233930   6.492   3.687  13.856 -1.5816 -0.2539  2.5579
 4147TIP3   OH233931   3.889   1.652  13.769  0.0020 -0.2377  0.0931
 4147TIP3    H133932   3.870   1.559  13.771  0.7506 -0.4439 -1.0233
 4147TIP3    H233933   3.985   1.657  13.764 -0.0558  0.5453 -0.5785
 4148TIP3   OH233934   3.234   1.138   4.958  0.1954  0.4989  0.6203
 4148TIP3    H133935   3.216   1.044   4.954  2.4230  0.0280  0.0253
 4148TIP3    H233936   3.328   1.145   4.941 -0.1287  2.9509 -0.6340
 4149TIP3   OH233937   6.037   3.447   5.979 -0.5446  0.1706  0.0420
 4149TIP3    H133938   6.109   3.391   6.008 -0.3738  1.4793  2.3148
 4149TIP3    H233939   5.975   3.386   5.939  1.2192 -1.1488 -0.8603
 4150TIP3   OH233940   5.420   5.828  16.364 -0.0245  0.4237  0.3815
 4150TIP3    H133941   5.453   5.783  16.442  0.6430  2.0188  1.0525
 4150TIP3    H233942   5.361   5.895  16.398  0.8682  1.6536 -0.4312
 4151TIP3   OH233943   5.648   5.817  11.076 -0.0450  0.1914  0.1179
 4151TIP3    H133944   5.727   5.871  11.071 -0.6565  1.1681  0.7338
 4151TIP3    H233945   5.587   5.858  11.015 -0.3315 -0.1454  0.1713
 4152TIP3   OH233946   4.112   5.369  14.521  0.9236  0.0547  0.0979
 4152TIP3    H133947   4.067   5.452  14.508 -0.2946 -0.6517 -0.3581
 4152TIP3    H233948   4.045   5.302  14.505  2.2384 -1.0565 -0.9874
 4153TIP3   OH233949   3.944   1.413   1.711 -0.1285  0.6648 -0.0116
 4153TIP3    H133950   3.861   1.365   1.713  0.4515 -0.3443  0.9469
 4153TIP3    H233951   3.951   1.452   1.798  1.3502 -0.9868  0.6717
 4154TIP3   OH233952   0.580   0.044  17.184 -0.1710  0.4484 -0.6100
 4154TIP3    H133953   0.607   0.124  17.228 -0.4214  1.3217 -2.0001
 4154TIP3    H233954   0.653  -0.016  17.197  0.1251  0.9706  0.2309
 4155TIP3   OH233955   6.759   4.071  14.077 -0.4715  0.2652 -0.2420
 4155TIP3    H133956   6.828   4.081  14.143 -1.0263 -1.2346  0.6335
 4155TIP3    H233957   6.803   4.031  14.002 -0.1918  0.2368 -0.0651
 4156TIP3   OH233958   2.575   1.260  16.410  0.1510  0.8588  0.4227
 4156TIP3    H133959   2.528   1.280  16.330 -1.3844 -0.9334  0.7908
 4156TIP3    H233960   2.518   1.291  16.480  1.2642  1.9946  0.8677
 4157TIP3   OH233961   1.329   4.801  14.179  0.0468  0.3039 -0.2731
 4157TIP3    H133962   1.286   4.724  14.216 -0.9271  1.4554  1.0869
 4157TIP3    H233963   1.278   4.821  14.101 -0.3972  0.2222 -0.0104
 4158TIP3   OH233964   1.937   5.747  15.098 -0.0842  0.0477 -0.1261
 4158TIP3    H133965   1.961   5.838  15.080  0.3210  0.0626  0.4575
 4158TIP3    H233966   1.940   5.740  15.193  0.1331 -0.6437 -0.1790
 4159TIP3   OH233967   5.716   3.978  16.904  0.2441  0.0031 -0.3191
 4159TIP3    H133968   5.679   4.051  16.954 -1.4983 -2.6031  2.5454
 4159TIP3    H233969   5.639   3.935  16.865  1.0049 -1.4771 -0.2260
 4160TIP3   OH233970   2.252   1.978   1.655 -0.1309  0.1413  0.0607
 4160TIP3    H133971   2.197   1.968   1.578  0.8080 -1.2226 -0.4891
 4160TIP3    H233972   2.216   1.916   1.719 -0.7241  1.0494  0.6272
 4161TIP3   OH233973   5.710   3.506   0.975 -0.0716 -0.1407 -0.9246
 4161TIP3    H133974   5.732   3.451   1.051  0.7243  0.3261 -0.8131
 4161TIP3    H233975   5.702   3.444   0.903  1.4322 -0.3634 -0.9283
 4162TIP3   OH233976   3.045   0.401   5.144  0.0976  0.1933  0.0610
 4162TIP3    H133977   3.096   0.428   5.068  0.8378 -2.3470 -0.4610
 4162TIP3    H233978   3.049   0.305   5.142 -1.6958  0.0054  2.0800
 4163TIP3   OH233979   2.167   6.373  13.198  0.1575 -0.7989  0.9712
 4163TIP3    H133980   2.155   6.387  13.292  0.3966 -0.1381  0.9131
 4163TIP3    H233981   2.079   6.375  13.161  0.0403 -1.3495  1.2175
 4164TIP3   OH233982   6.391   3.686   5.989  0.8101 -0.1322  0.4651
 4164TIP3    H133983   6.413   3.636   5.910 -0.5079  0.3213 -0.2241
 4164TIP3    H233984   6.435   3.640   6.060  1.9241 -0.6320 -0.5062
 4165TIP3   OH233985   5.408   0.274   3.389  0.0046  0.1323  0.2366
 4165TIP3    H133986   5.480   0.278   3.326  0.2839  1.9707  0.6305
 4165TIP3    H233987   5.370   0.187   3.375  0.6693  0.0976 -1.7875
 4166TIP3   OH233988   2.991   3.029  11.699 -0.2912 -0.3136  0.6326
 4166TIP3    H133989   3.028   2.998  11.781 -0.6828  2.4333  1.9607
 4166TIP3    H233990   2.896   3.025  11.712 -0.3599  1.2312  0.8368
 4167TIP3   OH233991   0.903   2.298   2.494 -0.2803 -0.1168  0.4699
 4167TIP3    H133992   0.876   2.355   2.565 -0.2411  1.4524 -0.7260
 4167TIP3    H233993   0.867   2.212   2.517 -1.6763  0.7221  1.5487
 4168TIP3   OH233994   5.938   2.528   3.581 -0.7570 -0.2730 -0.0788
 4168TIP3    H133995   5.878   2.603   3.578 -0.2067  0.1632 -2.7929
 4168TIP3    H233996   5.880   2.452   3.578 -1.2379  0.1101 -0.7830
 4169TIP3   OH233997   3.115   6.755  15.489 -0.0426  0.3510 -0.2757
 4169TIP3    H133998   3.177   6.827  15.477  0.6981 -0.2577 -0.1972
 4169TIP3    H233999   3.086   6.733  15.401 -0.3165  0.7788 -0.2943
 4170TIP3   OH234000   3.222   4.965  15.557  0.0234 -0.1788 -0.3548
 4170TIP3    H134001   3.138   4.972  15.603 -0.9325 -0.7932 -1.9114
 4170TIP3    H234002   3.261   4.884  15.590  0.5750  0.6779  1.2016
 4171TIP3   OH234003   5.507   0.761   1.870  0.0803  0.3499  0.0185
 4171TIP3    H134004   5.543   0.815   1.799  2.0119  2.0959  2.1825
 4171TIP3    H234005   5.523   0.671   1.842 -1.3518  0.8364 -2.7674
 4172TIP3   OH234006   1.253   2.106   0.137  0.1596 -0.1561  0.1185
 4172TIP3    H134007   1.165   2.127   0.170 -0.6206 -3.1646  0.1941
 4172TIP3    H234008   1.266   2.167   0.064 -2.1537  0.1412 -0.1167
 4173TIP3   OH234009   2.026   4.579   3.188  0.2032  0.1415  0.1551
 4173TIP3    H134010   2.044   4.625   3.106 -1.0592  0.8653  0.2627
 4173TIP3    H234011   2.104   4.595   3.242  1.7704 -1.6367 -1.4000
 4174TIP3   OH234012   0.131   3.564   4.543  0.2653  0.6046  1.2546
 4174TIP3    H134013   0.134   3.518   4.459  3.3542 -0.1665  1.6570
 4174TIP3    H234014   0.059   3.522   4.591  2.7891 -4.0266  1.5657
 4175TIP3   OH234015   2.758   5.923   3.525 -0.0306 -0.3015 -0.1175
 4175TIP3    H134016   2.837   5.952   3.570  0.6674 -2.0428 -0.1275
 4175TIP3    H234017   2.785   5.913   3.434 -0.6496  0.3988 -0.3876
 4176TIP3   OH234018   2.106   2.372   6.525  0.2307  0.1526 -0.3247
 4176TIP3    H134019   2.050   2.346   6.452 -0.5729  1.7043 -0.2994
 4176TIP3    H234020   2.045   2.390   6.597  0.5727  3.1046 -0.6630
 4177TIP3   OH234021   5.838   0.676   2.451  0.6270  0.5007  0.2123
 4177TIP3    H134022   5.867   0.733   2.380  0.0998  0.7042  0.1519
 4177TIP3    H234023   5.869   0.589   2.426 -0.0111  0.4777 -0.5428
 4178TIP3   OH234024   5.250   3.445   5.946 -0.2502  0.5306  0.4026
 4178TIP3    H134025   5.324   3.386   5.932 -0.6576 -0.2294  1.3680
 4178TIP3    H234026   5.189   3.423   5.876 -0.0848  0.3210  0.3227
 4179TIP3   OH234027   4.939   5.010  12.298  0.7381 -0.2635  0.1080
 4179TIP3    H134028   4.856   4.977  12.333  0.8974 -0.0406  0.7131
 4179TIP3    H234029   4.918   5.037  12.208  0.2671 -0.6349  0.0996
 4180TIP3   OH234030   2.510   1.108  14.372 -0.1084 -0.4950 -0.5667
 4180TIP3    H134031   2.572   1.096  14.443 -0.1799  0.9060 -0.2306
 4180TIP3    H234032   2.535   1.043  14.306  0.5831 -1.1325  0.3108
 4181TIP3   OH234033   4.464   3.708  16.227  0.1451 -0.4667 -0.5244
 4181TIP3    H134034   4.502   3.621  16.241 -0.7469 -0.9152 -0.8189
 4181TIP3    H234035   4.407   3.722  16.302  0.1318 -0.2213 -0.5803
 4182TIP3   OH234036   3.363   4.471  12.517 -0.3488 -0.1690 -0.2502
 4182TIP3    H134037   3.393   4.464  12.426 -1.9550  0.1322 -0.8370
 4182TIP3    H234038   3.382   4.562  12.541  0.9777 -0.5130  0.0743
 4183TIP3   OH234039   2.363   0.587  14.143  0.4662 -0.4134  0.2262
 4183TIP3    H134040   2.310   0.639  14.083  1.8865  0.1794 -0.5645
 4183TIP3    H234041   2.445   0.573  14.096  1.0826 -1.1479  1.4815
 4184TIP3   OH234042   0.908   2.938   6.033  0.2666  0.2115  0.0366
 4184TIP3    H134043   0.978   2.986   6.076 -0.0480 -0.4942  1.3889
 4184TIP3    H234044   0.874   2.878   6.100 -1.1147 -0.0086 -0.8030
 4185TIP3   OH234045   3.485   2.614   2.229  0.7304 -0.4403  0.0277
 4185TIP3    H134046   3.520   2.703   2.234  0.9939 -0.5922  0.9838
 4185TIP3    H234047   3.415   2.612   2.295 -1.0214 -0.1878 -1.7079
 4186TIP3   OH234048   4.407   4.559   1.633  0.6434  0.0333  0.6538
 4186TIP3    H134049   4.499   4.565   1.655 -0.0767  2.1165  3.5864
 4186TIP3    H234050   4.397   4.615   1.556  1.9515 -1.1757 -0.4552
 4187TIP3   OH234051   5.891   4.159   3.097 -0.3799  0.3428  0.4190
 4187TIP3    H134052   5.917   4.075   3.135  1.7665  0.6909 -0.1727
 4187TIP3    H234053   5.797   4.149   3.081 -0.1406 -2.0691  0.0713
 4188TIP3   OH234054   5.483   1.590  14.535 -0.6075 -0.2912 -0.0004
 4188TIP3    H134055   5.538   1.658  14.495 -0.9144 -0.3920 -0.6021
 4188TIP3    H234056   5.517   1.508  14.500 -1.7407 -0.3047 -1.1529
 4189TIP3   OH234057   4.783   6.006   3.725  0.1997  0.0703 -0.2626
 4189TIP3    H134058   4.779   5.969   3.637  0.5934 -0.5779 -0.0190
 4189TIP3    H234059   4.752   5.935   3.782 -0.2940  0.5726  0.0947
 4190TIP3   OH234060   0.917   5.471  12.846  0.2474 -0.1781  0.0256
 4190TIP3    H134061   0.853   5.537  12.821  0.3386 -0.5547 -1.2555
 4190TIP3    H234062   0.981   5.518  12.899 -0.0801  0.6007 -0.2674
 4191TIP3   OH234063   1.660   4.683  12.324 -0.8596  0.0028 -0.4436
 4191TIP3    H134064   1.717   4.754  12.353  0.0632 -0.7404 -0.3806
 4191TIP3    H234065   1.590   4.680  12.390  1.2572 -1.7492  1.9458
 4192TIP3   OH234066   1.363   0.443   0.588 -0.0947  0.1706  0.2014
 4192TIP3    H134067   1.290   0.504   0.603  0.1765  0.5780 -0.1077
 4192TIP3    H234068   1.327   0.357   0.611 -0.1588  0.5650  1.6617
 4193TIP3   OH234069   3.121   2.906   0.466 -0.3197  0.1283  0.6718
 4193TIP3    H134070   3.165   2.849   0.529  0.4617  0.6746  0.6269
 4193TIP3    H234071   3.095   2.982   0.516 -1.9602 -0.5327  0.8768
 4194TIP3   OH234072   5.081   2.262  11.447  0.0039  0.1541 -0.0854
 4194TIP3    H134073   5.135   2.184  11.459 -1.0326 -0.6672 -0.4706
 4194TIP3    H234074   5.025   2.240  11.372 -0.1414  1.3781 -0.3590
 4195TIP3   OH234075   2.426   2.863  16.649  0.0820 -0.1370  0.7264
 4195TIP3    H134076   2.357   2.814  16.605  0.8662 -1.0642  0.5020
 4195TIP3    H234077   2.449   2.932  16.586  1.0252 -1.3020 -0.2570
 4196TIP3   OH234078   0.125   1.249   1.085 -0.2466  0.6784 -0.2646
 4196TIP3    H134079   0.120   1.229   0.992 -0.7993  0.8434 -0.2726
 4196TIP3    H234080   0.175   1.176   1.123  2.3259  1.8957 -1.0619
 4197TIP3   OH234081   5.471   2.890  13.567 -0.2306  0.2596  1.0315
 4197TIP3    H134082   5.554   2.920  13.605  0.6771 -0.1362 -0.5318
 4197TIP3    H234083   5.419   2.861  13.643  0.0876  2.7121  2.2732
 4198TIP3   OH234084   6.581   4.285  13.078  0.2649  0.2090 -0.1717
 4198TIP3    H134085   6.607   4.197  13.052 -0.1562 -0.3237  1.0999
 4198TIP3    H234086   6.539   4.322  13.001 -0.2717 -1.0137 -0.4937
 4199TIP3   OH234087   3.839   4.363  16.090  0.1702  0.1096  0.2927
 4199TIP3    H134088   3.811   4.295  16.152  0.0390 -0.0455  0.0619
 4199TIP3    H234089   3.766   4.370  16.028  0.1282  0.5535  0.3934
 4200TIP3   OH234090   2.951   2.703   5.487 -0.2932  0.1550 -0.0358
 4200TIP3    H134091   3.007   2.732   5.415  0.0434 -1.2208 -0.3443
 4200TIP3    H234092   2.996   2.627   5.523 -0.9383  0.2668  1.0388
 4201TIP3   OH234093   5.276   4.585  14.988  0.1048 -0.1998 -0.0329
 4201TIP3    H134094   5.266   4.646  15.061  2.2069  0.3704 -0.1608
 4201TIP3    H234095   5.265   4.499  15.028 -0.1851  0.1471  0.6685
 4202TIP3   OH234096   6.012   2.904  14.830 -0.0853  0.1986  0.3570
 4202TIP3    H134097   6.084   2.870  14.883 -0.0806 -0.0717  0.1796
 4202TIP3    H234098   6.019   2.857  14.746  0.0398  0.7732  0.0384
 4203TIP3   OH234099   6.455   1.660   3.445  0.2013 -0.1853  0.4056
 4203TIP3    H134100   6.379   1.695   3.490  0.7063  0.6198  0.6513
 4203TIP3    H234101   6.487   1.732   3.391  0.5259 -0.6556 -0.0457
 4204TIP3   OH234102   6.579   6.158  13.646  0.6951  0.2045 -0.5726
 4204TIP3    H134103   6.552   6.212  13.721 -2.5002  0.9292 -2.1106
 4204TIP3    H234104   6.540   6.073  13.662  2.6513 -0.6490  0.0177
 4205TIP3   OH234105   5.312   2.238   4.585 -0.0877 -0.3416  0.1968
 4205TIP3    H134106   5.332   2.322   4.627  0.2415 -1.2859  2.0257
 4205TIP3    H234107   5.216   2.234   4.585 -0.1176  0.2325 -0.3433
 4206TIP3   OH234108   5.939   2.155   0.702  0.1743 -0.3180 -0.6117
 4206TIP3    H134109   5.950   2.202   0.785  1.7645 -0.1155 -0.9127
 4206TIP3    H234110   5.848   2.125   0.704  0.8934 -3.0526  2.7106
 4207TIP3   OH234111   6.447   5.018   5.906  0.0342  0.1711  0.0335
 4207TIP3    H134112   6.430   4.926   5.923  0.3446  0.4455  2.1057
 4207TIP3    H234113   6.388   5.041   5.834  1.9064 -2.2721 -2.5375
 4208TIP3   OH234114   2.340   5.115  11.678  0.8384  0.4745 -1.0161
 4208TIP3    H134115   2.253   5.150  11.697  1.5230  1.2974  0.7775
 4208TIP3    H234116   2.337   5.095  11.584 -1.8459 -1.2214 -0.6902
 4209TIP3   OH234117   2.564   1.252   1.542 -0.8832  0.1576  0.4881
 4209TIP3    H134118   2.525   1.206   1.468  1.9166  0.9547 -1.6393
 4209TIP3    H234119   2.618   1.186   1.585  0.8665  0.6575 -0.8407
 4210TIP3   OH234120   5.537   6.831   0.823  0.2126  0.2953 -0.3389
 4210TIP3    H134121   5.460   6.781   0.796 -0.2235 -0.4129  1.9901
 4210TIP3    H234122   5.606   6.804   0.762 -0.3196 -2.3317  0.0990
 4211TIP3   OH234123   6.333   6.519   3.296 -0.4216 -0.5419 -0.2620
 4211TIP3    H134124   6.401   6.464   3.334 -1.1502 -0.8959  0.5709
 4211TIP3    H234125   6.349   6.606   3.333 -0.1788 -0.5315 -0.3906
 4212TIP3   OH234126   0.053   0.851  16.677 -0.2431 -0.4879 -1.2789
 4212TIP3    H134127   0.103   0.933  16.682  0.4855 -0.9562 -0.7944
 4212TIP3    H234128  -0.023   0.874  16.624  0.1743  0.3958 -1.5288
 4213TIP3   OH234129   1.120   3.491  16.979  0.0313 -0.4589  0.0064
 4213TIP3    H134130   1.086   3.416  16.930  0.7491 -0.6366 -0.2222
 4213TIP3    H234131   1.094   3.567  16.928 -0.2844 -0.5728 -0.0069
 4214TIP3   OH234132   4.526   6.454   4.812  0.4110  0.1000  0.2044
 4214TIP3    H134133   4.578   6.375   4.825 -0.5653 -0.3086  2.0616
 4214TIP3    H234134   4.441   6.434   4.851 -0.2642  1.6565 -0.3606
 4215TIP3   OH234135   5.563   1.348  15.245  0.1615 -0.2813 -0.0364
 4215TIP3    H134136   5.542   1.255  15.231  0.3258  0.0082 -2.8236
 4215TIP3    H234137   5.479   1.388  15.266 -0.3767 -0.6808 -1.3428
 4216TIP3   OH234138   5.255   3.070   5.211 -0.6955 -0.6708 -0.1985
 4216TIP3    H134139   5.216   2.983   5.201 -0.1616 -0.8471 -0.8706
 4216TIP3    H234140   5.184   3.125   5.243 -1.9914 -0.6057 -2.8974
 4217TIP3   OH234141   3.467   0.061  15.253  0.4819  0.3064 -0.2603
 4217TIP3    H134142   3.479  -0.003  15.183 -1.3011 -0.5997  0.1974
 4217TIP3    H234143   3.553   0.069  15.293  1.3525  0.2179 -2.0069
 4218TIP3   OH234144   5.032   4.152  13.339 -0.0530 -0.3696  0.0013
 4218TIP3    H134145   5.112   4.106  13.313 -0.4573 -0.0780 -1.8989
 4218TIP3    H234146   4.970   4.082  13.359  0.5868 -0.5981  1.2937
 4219TIP3   OH234147   5.925   4.129   0.967 -0.1782  0.7091 -0.6396
 4219TIP3    H134148   6.011   4.135   0.925 -0.0071  0.4847 -0.3265
 4219TIP3    H234149   5.880   4.210   0.942 -0.2003  0.4297 -1.5174
 4220TIP3   OH234150   2.769   2.475  13.662 -0.1787  0.7437  0.0283
 4220TIP3    H134151   2.780   2.412  13.734 -1.7324  0.8956  0.4234
 4220TIP3    H234152   2.778   2.423  13.583  0.5004  0.3890  0.3228
 4221TIP3   OH234153   6.236   1.228  11.255 -0.0825 -0.4672 -0.1949
 4221TIP3    H134154   6.251   1.271  11.171 -0.3431  0.6870  0.3365
 4221TIP3    H234155   6.186   1.292  11.306 -2.3614 -2.1661 -0.1087
 4222TIP3   OH234156   2.883   0.878  14.806  0.0773 -0.0417  0.1914
 4222TIP3    H134157   2.935   0.957  14.823  0.9105 -0.4468 -0.3942
 4222TIP3    H234158   2.894   0.862  14.713 -2.0188  0.4716 -0.1865
 4223TIP3   OH234159   1.136   4.533  17.218 -0.4024  0.4799 -0.1685
 4223TIP3    H134160   1.090   4.597  17.164  1.0263  0.4638 -1.4429
 4223TIP3    H234161   1.226   4.534  17.186  0.5958  0.7027  2.4282
 4224TIP3   OH234162   2.909   3.544   3.076 -0.4797  0.3996  0.4001
 4224TIP3    H134163   2.989   3.506   3.041 -0.5527  1.5055 -1.0768
 4224TIP3    H234164   2.865   3.472   3.121  0.1411 -0.8576 -0.9489
 4225TIP3   OH234165   6.141   2.415   4.153  0.3504 -0.2601 -0.1772
 4225TIP3    H134166   6.084   2.481   4.193 -0.5208  0.3515 -2.3136
 4225TIP3    H234167   6.081   2.347   4.123  1.2930 -2.6905  2.8820
 4226TIP3   OH234168   4.354   4.636   3.411 -0.5364  0.6082  0.8974
 4226TIP3    H134169   4.312   4.722   3.403  0.0533  1.1560  2.9933
 4226TIP3    H234170   4.445   4.651   3.384 -0.8277  0.2153 -0.3637
 4227TIP3   OH234171   3.025   2.963  11.423  0.0532  0.3720 -0.0300
 4227TIP3    H134172   2.963   3.002  11.361  0.5184  0.1278 -0.6709
 4227TIP3    H234173   2.973   2.941  11.500 -0.2851  1.8697  0.1790
 4228TIP3   OH234174   4.434   6.578  16.709 -0.3152  0.0915  0.1929
 4228TIP3    H134175   4.474   6.634  16.777 -0.7685  0.1566  0.4151
 4228TIP3    H234176   4.371   6.524  16.757  0.1191 -0.6169 -0.0246
 4229TIP3   OH234177   2.882   6.328  13.134  0.2396  0.4446  0.0706
 4229TIP3    H134178   2.895   6.247  13.184  1.8884 -0.7871 -2.1235
 4229TIP3    H234179   2.789   6.329  13.114  0.4917 -2.2603 -1.7934
 4230TIP3   OH234180   6.400   4.103   3.851 -0.2031 -0.2043 -0.4942
 4230TIP3    H134181   6.408   4.164   3.924 -0.4102 -1.2242  0.3999
 4230TIP3    H234182   6.486   4.105   3.810  0.5830 -1.1445  1.0237
 4231TIP3   OH234183   4.774   6.511  11.137 -0.3697 -0.6701  0.2171
 4231TIP3    H134184   4.779   6.415  11.137  1.8213 -0.6130  0.9502
 4231TIP3    H234185   4.720   6.532  11.213 -1.3076 -1.3147 -0.2533
 4232TIP3   OH234186   4.786   2.963  14.257  0.9301  0.3143  0.8662
 4232TIP3    H134187   4.747   3.049  14.275 -0.0573 -0.1174  0.8745
 4232TIP3    H234188   4.823   2.972  14.169 -0.0975  0.4482  0.4254
 4233TIP3   OH234189   2.616   5.183   1.259 -0.1405  0.0547 -0.1151
 4233TIP3    H134190   2.591   5.106   1.207 -1.4009  0.5601 -0.2744
 4233TIP3    H234191   2.589   5.162   1.348 -0.4931  0.3219 -0.1599
 4234TIP3   OH234192   4.102   5.789   5.595  0.1264  0.0820 -0.0530
 4234TIP3    H134193   4.148   5.758   5.673  0.9669  0.2874 -0.4566
 4234TIP3    H234194   4.036   5.850   5.628  0.0784 -0.2836  0.5392
 4235TIP3   OH234195   1.362   5.080   3.276  0.0562 -0.3760 -0.5259
 4235TIP3    H134196   1.441   5.031   3.252 -0.4383 -0.7506 -1.4521
 4235TIP3    H234197   1.372   5.097   3.369  0.4118 -1.9766 -0.2322
 4236TIP3   OH234198   6.450   0.582   6.071 -0.1258 -0.9252 -0.3176
 4236TIP3    H134199   6.373   0.619   6.029  0.6346 -0.3082 -1.2184
 4236TIP3    H234200   6.430   0.583   6.165 -0.4522  1.0861 -0.3737
 4237TIP3   OH234201   5.544   3.208  12.627  0.5497  0.1497 -0.2022
 4237TIP3    H134202   5.520   3.123  12.588  1.2250 -0.0232 -0.2535
 4237TIP3    H234203   5.510   3.273  12.565 -0.3955 -0.0674  0.0802
 4238TIP3   OH234204   6.618   0.466   2.102 -0.0629  0.5615  0.4224
 4238TIP3    H134205   6.673   0.500   2.032  1.9020 -0.4711  1.3805
 4238TIP3    H234206   6.556   0.407   2.058 -2.3780  3.7624 -1.0326
 4239TIP3   OH234207   1.932   5.585   0.497  0.4055 -0.2760 -0.0614
 4239TIP3    H134208   1.996   5.582   0.426  1.6308  2.1068  0.8040
 4239TIP3    H234209   1.848   5.589   0.453  1.1538  1.6945 -1.5005
 4240TIP3   OH234210   3.987   6.621   1.528  0.6274  0.2701  0.2923
 4240TIP3    H134211   3.969   6.527   1.537  1.6299  0.1586  1.3304
 4240TIP3    H234212   4.001   6.651   1.618  1.2449  1.2226 -0.1084
 4241TIP3   OH234213   6.046   4.833  14.696  0.3013 -0.7187  0.3313
 4241TIP3    H134214   5.988   4.903  14.666  2.8664  1.2374 -0.4019
 4241TIP3    H234215   5.990   4.756  14.699 -1.6564  0.3116 -3.4530
 4242TIP3   OH234216   5.189   4.134   4.782 -0.2712 -0.5109 -0.1193
 4242TIP3    H134217   5.198   4.134   4.687  0.4932 -0.1429 -0.0590
 4242TIP3    H234218   5.216   4.222   4.808  1.5635 -1.2512  0.6095
 4243TIP3   OH234219   6.310   3.091  14.603  0.2155  0.1513  0.2736
 4243TIP3    H134220   6.245   3.022  14.589 -1.6114  1.4948  1.6104
 4243TIP3    H234221   6.369   3.056  14.670  1.3834 -1.3423 -1.4274
 4244TIP3   OH234222   3.058   0.612  12.345  0.1662 -0.1947  0.7933
 4244TIP3    H134223   3.070   0.665  12.266 -2.9847 -0.1032  0.2574
 4244TIP3    H234224   3.018   0.672  12.408  0.5725 -0.8431  1.6923
 4245TIP3   OH234225   0.667   2.821  15.761  0.3234  0.2542 -0.4255
 4245TIP3    H134226   0.679   2.726  15.755 -1.0827  0.1250 -1.9469
 4245TIP3    H234227   0.749   2.853  15.800  0.5629 -1.6206  0.7337
 4246TIP3   OH234228   4.383   0.460  14.571 -0.1658  0.2425  0.4026
 4246TIP3    H134229   4.358   0.482  14.661  2.2206  2.8054  0.5742
 4246TIP3    H234230   4.318   0.505  14.517 -1.5629 -1.2401  0.7723
 4247TIP3   OH234231   5.308   4.351   4.933 -0.0475  0.2766  0.5727
 4247TIP3    H134232   5.348   4.371   5.018  1.8958  1.7718 -0.5968
 4247TIP3    H234233   5.360   4.402   4.870 -2.2075  0.2145 -1.3822
 4248TIP3   OH234234   6.838   2.503   1.960 -0.1097  0.0448 -0.3496
 4248TIP3    H134235   6.864   2.413   1.943 -1.9541 -0.2129 -2.2146
 4248TIP3    H234236   6.842   2.512   2.055  0.5019 -1.8571 -0.1554
 4249TIP3   OH234237   4.756   0.926   3.341 -0.2802  0.7663 -0.2364
 4249TIP3    H134238   4.742   0.836   3.371 -1.6368  0.6069 -1.2476
 4249TIP3    H234239   4.816   0.963   3.404  0.2341 -0.8274  0.2638
 4250TIP3   OH234240   4.641   1.022  11.635 -0.0729  0.0599  0.4143
 4250TIP3    H134241   4.557   0.995  11.673 -0.1266  0.4501  0.5741
 4250TIP3    H234242   4.650   1.114  11.659  1.1118 -0.3646  1.6546
 4251TIP3   OH234243   5.271   3.365  15.707 -0.3258  0.3196 -0.1552
 4251TIP3    H134244   5.244   3.278  15.736  1.1933  0.5224  2.0409
 4251TIP3    H234245   5.341   3.348  15.644 -1.2574 -0.0512 -1.1221
 4252TIP3   OH234246   0.012   3.464   0.487 -0.4979  0.1939  0.0317
 4252TIP3    H134247   0.025   3.405   0.412  1.2864  0.8729 -0.2376
 4252TIP3    H234248  -0.061   3.520   0.460 -1.1338 -0.8053 -0.3881
 4253TIP3   OH234249   0.016   0.984  11.822  0.1043  0.2048 -0.4724
 4253TIP3    H134250   0.054   0.909  11.777  0.5649  0.8654 -1.1893
 4253TIP3    H234251   0.063   0.988  11.906 -1.2738 -1.4790  0.4457
 4254TIP3   OH234252   2.356   4.818   2.297  0.0617 -0.1918 -0.4633
 4254TIP3    H134253   2.349   4.842   2.204 -0.8877  1.3155 -0.0483
 4254TIP3    H234254   2.274   4.774   2.317 -0.1244  0.2866 -0.1429
 4255TIP3   OH234255   1.089   2.495   6.436  0.3553 -0.1179  0.0154
 4255TIP3    H134256   1.179   2.493   6.406  0.5085 -0.6548  0.5127
 4255TIP3    H234257   1.090   2.451   6.520 -0.7736 -2.2847 -1.0284
 4256TIP3   OH234258   3.781   2.792  12.736  0.3789 -0.5325 -0.1202
 4256TIP3    H134259   3.697   2.756  12.704  0.2017 -0.0260 -0.2287
 4256TIP3    H234260   3.839   2.786  12.661 -0.1068  0.8832 -0.6364
 4257TIP3   OH234261   5.262   4.894  16.021  0.0966  0.2141  0.0006
 4257TIP3    H134262   5.308   4.971  15.987 -0.7485  0.6512 -0.1747
 4257TIP3    H234263   5.290   4.822  15.964  0.6628  0.4386 -0.0160
 4258TIP3   OH234264   3.581   2.425   1.305 -0.0132 -0.1189  0.3212
 4258TIP3    H134265   3.542   2.509   1.278 -1.0940 -0.4728  0.7209
 4258TIP3    H234266   3.575   2.369   1.228 -2.0442 -0.7636  0.8996
 4259TIP3   OH234267   6.813   0.298  15.667  0.3146 -0.6628  0.1348
 4259TIP3    H134268   6.859   0.225  15.627  1.3797  0.4454 -0.7498
 4259TIP3    H234269   6.869   0.374  15.650 -1.8954  0.7969 -1.1937
 4260TIP3   OH234270   3.533   0.224  11.782 -0.6633 -0.0909  0.4849
 4260TIP3    H134271   3.590   0.151  11.803 -0.3601  0.0739  0.2460
 4260TIP3    H234272   3.457   0.184  11.739  0.2646 -0.1511 -1.2077
 4261TIP3   OH234273   4.331   0.115  15.755 -0.0817  0.0225 -0.3513
 4261TIP3    H134274   4.287   0.128  15.839 -0.8322  1.9458 -0.9901
 4261TIP3    H234275   4.414   0.162  15.763 -0.8119  1.5151 -1.1499
 4262TIP3   OH234276   1.142   1.757   5.941  0.5043  0.0790  0.2816
 4262TIP3    H134277   1.120   1.813   5.867  1.2992  0.6333  0.4561
 4262TIP3    H234278   1.146   1.669   5.904 -1.0153  0.0704  0.0618
 4263TIP3   OH234279   2.516   4.758  16.881  0.3414  0.1733  0.2363
 4263TIP3    H134280   2.485   4.810  16.806  0.4136 -0.7159 -0.4215
 4263TIP3    H234281   2.492   4.668  16.860 -0.8108  0.0451  1.8979
 4264TIP3   OH234282   0.013   0.395  10.510 -0.3015  0.1303  0.3584
 4264TIP3    H134283   0.065   0.446  10.448  0.2239  0.7162  1.2502
 4264TIP3    H234284   0.078   0.342  10.556 -0.5142  0.6356  1.2642
 4265TIP3   OH234285   1.000   6.032  14.637 -0.6316 -0.4129 -0.3471
 4265TIP3    H134286   0.994   5.955  14.694  1.0094  0.0582  0.5450
 4265TIP3    H234287   1.015   5.997  14.550  0.3703 -1.1397  0.0914
 4266TIP3   OH234288   1.913   4.010  16.227 -0.2795  0.0783 -0.5108
 4266TIP3    H134289   1.951   4.013  16.315  0.6122 -1.3419 -0.8133
 4266TIP3    H234290   1.962   3.941  16.182 -2.0121 -0.5683 -1.5149
 4267TIP3   OH234291   3.748   0.282   3.521 -0.2098 -0.2780  0.0890
 4267TIP3    H134292   3.741   0.247   3.432  0.0509 -2.1081  0.7352
 4267TIP3    H234293   3.664   0.326   3.536 -0.5363 -0.5551 -0.8192
 4268TIP3   OH234294   3.065   4.593  11.410  0.0846 -0.5404  0.4703
 4268TIP3    H134295   3.035   4.557  11.327 -1.5210  1.7316 -0.0343
 4268TIP3    H234296   2.984   4.619  11.456  1.0208  0.0507  1.8605
 4269TIP3   OH234297   6.336   3.939  16.215  0.3194 -0.1808 -0.7393
 4269TIP3    H134298   6.295   3.863  16.175 -0.2241  0.8068 -2.1328
 4269TIP3    H234299   6.266   4.004  16.221  1.0278  0.5809 -0.5672
 4270TIP3   OH234300   0.014   1.629  14.894 -0.1648 -0.1903  0.8698
 4270TIP3    H134301   0.086   1.687  14.918 -0.0710 -0.4883  1.3373
 4270TIP3    H234302   0.053   1.541  14.897 -0.3228 -0.2805  0.2486
 4271TIP3   OH234303   3.681   4.642   0.914  0.4229 -0.4973 -0.3146
 4271TIP3    H134304   3.591   4.614   0.929  0.6664 -1.2787 -0.2679
 4271TIP3    H234305   3.701   4.612   0.825  1.4466 -2.5872  0.5540
 4272TIP3   OH234306   3.463   1.509   0.958  0.1375  0.3108 -0.3000
 4272TIP3    H134307   3.455   1.416   0.937 -1.5866  0.9912 -3.3594
 4272TIP3    H234308   3.552   1.532   0.931  0.0756 -0.1741 -0.9387
 4273TIP3   OH234309   0.184   4.188  14.609 -0.2802  0.0707  0.1001
 4273TIP3    H134310   0.174   4.278  14.578 -2.5764 -0.4826 -0.9131
 4273TIP3    H234311   0.142   4.187  14.695  1.2028  0.2913  0.8740
 4274TIP3   OH234312   1.408   6.797   1.429  0.0045  0.2205 -0.3387
 4274TIP3    H134313   1.375   6.720   1.475 -1.4890  0.9599 -0.1371
 4274TIP3    H234314   1.364   6.795   1.344  0.2205  0.6743 -0.4652
 4275TIP3   OH234315   3.354   4.503  16.943  0.5082  0.3947 -0.4781
 4275TIP3    H134316   3.415   4.529  17.012  1.8729 -0.1397 -1.4586
 4275TIP3    H234317   3.302   4.582  16.927 -0.3448  0.3364  1.6312
 4276TIP3   OH234318   2.491   2.821  13.464 -0.6794 -0.3078 -0.1030
 4276TIP3    H134319   2.440   2.836  13.384 -2.1029 -1.1639  0.6098
 4276TIP3    H234320   2.539   2.740  13.447 -1.4896 -0.8533  0.1256
 4277TIP3   OH234321   4.459   4.843  12.319  0.4197 -0.2996 -0.2747
 4277TIP3    H134322   4.448   4.748  12.328  0.4258 -0.2665  0.0992
 4277TIP3    H234323   4.400   4.867  12.248 -0.9441 -0.3230  0.8228
 4278TIP3   OH234324   2.203   6.395  15.943 -0.3923 -0.4265  0.2495
 4278TIP3    H134325   2.195   6.482  15.983  0.6753 -0.0394 -0.3279
 4278TIP3    H234326   2.196   6.334  16.016 -1.6980  0.1149  0.5927
 4279TIP3   OH234327   4.283   6.128  13.340 -0.1721  0.3220 -0.1715
 4279TIP3    H134328   4.342   6.177  13.283  0.2641 -1.3556 -1.2345
 4279TIP3    H234329   4.203   6.117  13.289  0.2092 -1.1625 -0.5066
 4280TIP3   OH234330   1.703   4.350   4.000 -0.0723 -0.1607  0.0991
 4280TIP3    H134331   1.691   4.349   3.905  0.9789  0.9107 -0.0629
 4280TIP3    H234332   1.797   4.355   4.012 -0.2731  3.6136  1.0963
 4281TIP3   OH234333   4.101   6.791  16.284 -0.1454  0.3265 -0.0889
 4281TIP3    H134334   4.108   6.886  16.270 -0.1064  0.4975  1.0316
 4281TIP3    H234335   4.192   6.762  16.293 -0.0696 -0.0399 -1.6696
 4282TIP3   OH234336   3.085   4.477   0.404 -0.1476  0.0425  0.0921
 4282TIP3    H134337   3.050   4.566   0.402 -1.4050 -0.4471 -1.4222
 4282TIP3    H234338   3.063   4.445   0.491 -0.3085  0.9681  0.4036
 4283TIP3   OH234339   1.736   2.781  13.245  0.3333  0.0765 -0.3440
 4283TIP3    H134340   1.661   2.838  13.260  0.4732  0.5645 -1.4168
 4283TIP3    H234341   1.697   2.696  13.222  0.0440  0.7669 -2.6011
 4284TIP3   OH234342   1.170   3.257  12.676  0.9067 -0.2279  0.6692
 4284TIP3    H134343   1.113   3.243  12.752 -0.8939 -0.0258 -0.5696
 4284TIP3    H234344   1.189   3.351  12.678  0.4988 -0.1420  0.6366
 4285TIP3   OH234345   6.499   1.428   3.834 -0.7735  0.3891 -0.2140
 4285TIP3    H134346   6.417   1.459   3.797 -1.5938 -1.7065 -0.2602
 4285TIP3    H234347   6.527   1.357   3.776 -0.6871 -1.1554  1.6261
 4286TIP3   OH234348   1.497   4.178  14.789 -0.5094 -0.3558 -0.0333
 4286TIP3    H134349   1.446   4.124  14.729 -1.9478  1.4580 -0.5425
 4286TIP3    H234350   1.576   4.201  14.739 -1.3921  0.6128 -1.0247
 4287TIP3   OH234351   2.172   3.228   5.215 -0.4881 -0.5443 -0.3503
 4287TIP3    H134352   2.133   3.224   5.302 -3.6417  1.2897 -1.4850
 4287TIP3    H234353   2.212   3.315   5.210 -0.4474 -0.5821 -0.7523
 4288TIP3   OH234354   2.402   3.778   1.864  0.2999 -0.4279  0.0743
 4288TIP3    H134355   2.320   3.796   1.818  1.0426  3.7802 -0.0343
 4288TIP3    H234356   2.449   3.717   1.808 -0.6436  1.1539 -2.6203
 4289TIP3   OH234357   6.210   2.276  15.451  0.1724  0.0081  0.1686
 4289TIP3    H134358   6.136   2.331  15.477 -1.4529 -1.1651 -1.6849
 4289TIP3    H234359   6.270   2.336  15.406  0.0476  0.8527  1.1106
 4290TIP3   OH234360   6.659   5.494  13.776  0.0537 -0.5176 -0.0983
 4290TIP3    H134361   6.592   5.551  13.737  0.3191  0.2466  0.5331
 4290TIP3    H234362   6.647   5.410  13.732 -1.4355 -0.4590  0.1166
 4291TIP3   OH234363   2.246   0.518  16.292 -0.3160 -0.3657  0.0976
 4291TIP3    H134364   2.151   0.527  16.289 -0.2007  0.9328 -2.8128
 4291TIP3    H234365   2.274   0.588  16.352 -1.1131  0.4021 -0.3991
 4292TIP3   OH234366   2.617   1.613   5.367  0.5606 -0.1010 -0.5134
 4292TIP3    H134367   2.522   1.619   5.373  0.4343 -2.1025  0.0830
 4292TIP3    H234368   2.649   1.681   5.426 -0.5391 -0.8666  1.0308
 4293TIP3   OH234369   5.900   3.956  13.409 -0.1305 -0.0192 -0.0005
 4293TIP3    H134370   5.925   4.048  13.405  0.0958 -0.1011 -0.4846
 4293TIP3    H234371   5.970   3.910  13.363  0.1959 -0.5250  0.9550
 4294TIP3   OH234372   0.663   0.339  17.006  0.1696 -0.4560  0.1360
 4294TIP3    H134373   0.680   0.308  16.917 -3.1446  0.1015 -0.8302
 4294TIP3    H234374   0.733   0.300  17.059  1.8485 -1.3812 -2.5534
 4295TIP3   OH234375   5.575   1.555  11.191 -0.0057  0.4967  0.3601
 4295TIP3    H134376   5.594   1.480  11.249  1.5565 -0.9894 -1.8783
 4295TIP3    H234377   5.657   1.605  11.190  1.0728 -1.0474 -2.5346
 4296TIP3   OH234378   2.144   5.530   6.247 -0.0969 -0.4533  0.2039
 4296TIP3    H134379   2.059   5.498   6.218 -0.4300  0.8115 -0.2633
 4296TIP3    H234380   2.143   5.623   6.228  1.7214 -0.5426 -0.6103
 4297TIP3   OH234381   1.138   4.580   4.711 -0.2606  0.4440  0.5720
 4297TIP3    H134382   1.195   4.602   4.638  0.3853 -1.1490  0.5555
 4297TIP3    H234383   1.082   4.509   4.678 -0.9367  0.6725  1.1901
 4298TIP3   OH234384   5.413   6.102  12.793  0.5153 -0.1275  0.8120
 4298TIP3    H134385   5.404   6.017  12.836 -1.1775  0.2030  1.1667
 4298TIP3    H234386   5.324   6.136  12.787  0.9216  0.7459 -1.1573
 4299TIP3   OH234387   3.943   3.832   0.678 -0.2155 -0.3545 -0.1069
 4299TIP3    H134388   4.022   3.849   0.729 -1.0673  1.0552  0.8199
 4299TIP3    H234389   3.898   3.762   0.725 -0.3040 -0.0433  0.2713
 4300TIP3   OH234390   6.586   1.504  13.493 -0.6101 -0.1372 -0.2641
 4300TIP3    H134391   6.554   1.524  13.581 -1.0361 -1.1260 -0.1889
 4300TIP3    H234392   6.565   1.412  13.480 -0.0562 -0.1408 -1.1958
 4301TIP3   OH234393   4.924   4.184  14.568 -0.9089 -0.0809  0.4265
 4301TIP3    H134394   4.947   4.154  14.656  3.0305 -0.2307 -0.4713
 4301TIP3    H234395   4.911   4.103  14.518  0.4478 -0.1630  0.1441
 4302TIP3   OH234396   0.721   1.158   2.952 -0.0508 -0.3818 -0.2527
 4302TIP3    H134397   0.717   1.069   2.917  1.9180 -0.3925 -0.5857
 4302TIP3    H234398   0.633   1.175   2.986 -0.8200 -1.9577 -1.3552
 4303TIP3   OH234399   1.687   6.543   6.090  0.4290  0.6826  0.1395
 4303TIP3    H134400   1.607   6.593   6.079 -1.1897 -1.6587  0.4641
 4303TIP3    H234401   1.669   6.485   6.164  2.8350  0.7941  0.8995
 4304TIP3   OH234402   0.057   2.105  12.542 -0.0800  0.5845 -0.3639
 4304TIP3    H134403   0.045   2.187  12.494  1.5995  0.0545 -1.7825
 4304TIP3    H234404  -0.013   2.048  12.510 -1.6505  1.5825  1.0855
 4305TIP3   OH234405   5.325   0.270   6.060 -0.0390 -0.3428 -0.1362
 4305TIP3    H134406   5.280   0.354   6.048 -1.3300 -0.8694  0.7743
 4305TIP3    H234407   5.398   0.291   6.118 -0.7040  0.0694  0.5755
 4306TIP3   OH234408   0.793   3.317  13.272 -0.0913 -0.2854 -0.6875
 4306TIP3    H134409   0.766   3.328  13.363 -0.9281  0.3418 -0.9981
 4306TIP3    H234410   0.854   3.389  13.256  1.9696 -1.7663  0.0472
 4307TIP3   OH234411   3.197   0.382  13.762  0.3682 -0.0858 -0.0132
 4307TIP3    H134412   3.133   0.310  13.758 -0.8833  0.9432  0.9155
 4307TIP3    H234413   3.279   0.341  13.735 -0.5903 -1.5299 -0.9496
 4308TIP3   OH234414   3.581   5.876  15.984  0.4022  0.8689  0.1995
 4308TIP3    H134415   3.503   5.860  15.931  0.1610 -0.2657  0.8476
 4308TIP3    H234416   3.628   5.792  15.982  0.9624  1.1585  0.8325
 4309TIP3   OH234417   6.244   4.802   3.147 -0.8336 -0.1088 -0.2082
 4309TIP3    H134418   6.310   4.829   3.083 -2.6074  0.8125 -1.7644
 4309TIP3    H234419   6.272   4.715   3.176  0.0249 -0.5904 -2.3086
 4310TIP3   OH234420   4.520   2.550  14.121  0.2948  0.3145  0.8053
 4310TIP3    H134421   4.525   2.472  14.065  0.3800 -1.2269  2.8656
 4310TIP3    H234422   4.606   2.591  14.114  0.9099 -0.8737  1.1730
 4311TIP3   OH234423   2.575   5.584  13.491 -0.1868 -0.3879  0.5027
 4311TIP3    H134424   2.612   5.593  13.579 -1.4508 -0.6955  1.0888
 4311TIP3    H234425   2.561   5.490  13.480 -0.9669 -0.2694  0.3892
 4312TIP3   OH234426   1.815   1.575   0.733  0.4066 -0.6804  0.2633
 4312TIP3    H134427   1.777   1.551   0.818  2.4339 -1.3568  1.0204
 4312TIP3    H234428   1.883   1.639   0.754  1.9838 -1.9795 -0.6441
 4313TIP3   OH234429   3.560   3.469  14.137 -0.5627 -0.8083 -0.4411
 4313TIP3    H134430   3.622   3.532  14.173 -0.9743  0.1697 -1.3729
 4313TIP3    H234431   3.545   3.406  14.207  0.0208  0.0186  0.4413
 4314TIP3   OH234432   4.615   0.337  14.665  0.1148 -0.3190 -0.1876
 4314TIP3    H134433   4.573   0.283  14.732 -0.3715  0.2815  0.0035
 4314TIP3    H234434   4.543   0.384  14.623  0.4900 -0.1155 -0.6103
 4315TIP3   OH234435   0.136   4.694  13.578 -0.0594 -0.5473 -0.7315
 4315TIP3    H134436   0.082   4.649  13.643  0.4764 -0.8900 -0.5124
 4315TIP3    H234437   0.195   4.626  13.544  0.0941 -0.2291 -1.1105
 4316TIP3   OH234438   6.505   2.839   4.586 -0.2029  0.5323 -0.1215
 4316TIP3    H134439   6.458   2.756   4.580 -0.1739  0.3729  1.3410
 4316TIP3    H234440   6.437   2.905   4.600 -0.4109  1.0927 -3.1542
 4317TIP3   OH234441   1.103   1.690   4.388 -0.7079 -0.0657 -0.0721
 4317TIP3    H134442   1.160   1.636   4.443 -0.8264  1.0368  1.1755
 4317TIP3    H234443   1.155   1.768   4.368 -1.2867  0.3328 -0.0572
 4318TIP3   OH234444   1.433   0.972  12.291  0.1434 -0.6594 -0.6532
 4318TIP3    H134445   1.442   0.970  12.196  0.3595  1.7707 -0.7490
 4318TIP3    H234446   1.520   0.993  12.323 -0.5380  1.8315 -0.2045
 4319TIP3   OH234447   5.578   5.526   0.277 -0.5882 -0.2445  0.4819
 4319TIP3    H134448   5.598   5.451   0.222 -0.2171  1.0504 -1.2136
 4319TIP3    H234449   5.664   5.561   0.302 -0.7320  0.5384 -0.0774
 4320TIP3   OH234450   5.990   6.454   4.349  0.1882  0.2648 -0.0512
 4320TIP3    H134451   5.951   6.540   4.368  1.3416  0.8930 -0.4739
 4320TIP3    H234452   6.050   6.470   4.276 -2.2018 -1.5873 -2.6625
 4321TIP3   OH234453   3.105   2.784  10.546  0.4680 -0.5958 -0.0524
 4321TIP3    H134454   3.110   2.866  10.595  2.0159 -1.7702  1.8873
 4321TIP3    H234455   3.036   2.800  10.481  0.2388  1.9840  0.6907
 4322TIP3   OH234456   2.846   2.805  11.958  0.0726  0.7416 -0.6069
 4322TIP3    H134457   2.755   2.797  11.986  0.1470 -4.5126 -0.8808
 4322TIP3    H234458   2.843   2.792  11.863  1.0895 -0.6381 -0.4796
 4323TIP3   OH234459   6.519   6.408   6.226  0.3988  0.7742  0.4678
 4323TIP3    H134460   6.522   6.445   6.138 -1.3846  1.1886  0.5516
 4323TIP3    H234461   6.607   6.373   6.240  0.1695 -1.3049 -2.3260
 4324TIP3   OH234462   1.856   1.027   0.043  0.3995  0.5082  0.7284
 4324TIP3    H134463   1.832   1.058  -0.044 -1.0918  2.3106  1.7047
 4324TIP3    H234464   1.947   1.056   0.055  0.7357 -0.0705 -0.3405
 4325TIP3   OH234465   3.766   2.421  11.506 -0.2781  0.0025  0.3357
 4325TIP3    H134466   3.748   2.365  11.430  0.4581  1.4414 -0.9729
 4325TIP3    H234467   3.857   2.448  11.494 -0.8816  2.2317  0.3677
 4326TIP3   OH234468   5.309   5.238   4.420  0.0212 -0.4364  0.0419
 4326TIP3    H134469   5.379   5.191   4.464  0.6251  0.6299  0.2641
 4326TIP3    H234470   5.337   5.330   4.422 -0.3740 -0.2398 -1.7552
 4327TIP3   OH234471   6.763   1.599   1.866  0.4757 -0.3425  0.3280
 4327TIP3    H134472   6.804   1.677   1.829  2.0097 -0.6780  1.2090
 4327TIP3    H234473   6.763   1.536   1.794 -1.6260  0.7215 -0.6612
 4328TIP3   OH234474   2.673   1.444   0.529  0.6778 -0.0352  0.2350
 4328TIP3    H134475   2.653   1.535   0.551  1.0100  0.1197 -0.0966
 4328TIP3    H234476   2.745   1.421   0.588 -0.4102 -0.5806  1.4016
 4329TIP3   OH234477   2.626   6.085   0.463 -0.1301 -0.1313  0.0980
 4329TIP3    H134478   2.609   6.176   0.489 -2.0281 -0.1630 -0.8457
 4329TIP3    H234479   2.721   6.075   0.472 -0.1557  1.1338  2.6896
 4330TIP3   OH234480   4.029   1.613   0.848 -0.0690  0.3744 -0.5174
 4330TIP3    H134481   4.049   1.581   0.936  1.6866  0.4145 -0.8714
 4330TIP3    H234482   3.942   1.577   0.829  1.1133 -2.9588 -0.2800
 4331TIP3   OH234483   0.528   4.224  15.935 -0.7379 -0.5191 -0.0752
 4331TIP3    H134484   0.532   4.318  15.918  0.1634 -0.6747 -0.8184
 4331TIP3    H234485   0.451   4.195  15.886 -0.1488 -0.3952 -1.1162
 4332TIP3   OH234486   0.501   6.766  14.460 -0.3562 -0.1437 -0.3797
 4332TIP3    H134487   0.596   6.778  14.473 -0.3278 -1.9396  1.6234
 4332TIP3    H234488   0.493   6.677  14.426 -1.3638 -0.1963 -0.0107
 4333TIP3   OH234489   3.395   2.856   4.481 -0.0268  0.6259  0.5684
 4333TIP3    H134490   3.416   2.797   4.553 -2.0416 -0.3114  0.4491
 4333TIP3    H234491   3.398   2.800   4.403 -1.0476  0.8649  0.3411
 4334TIP3   OH234492   4.206   6.053  15.278  0.1106  0.3937 -0.3466
 4334TIP3    H134493   4.112   6.060  15.294  0.2360  4.5375 -0.2635
 4334TIP3    H234494   4.214   6.061  15.183  0.3534  2.5336 -0.2061
 4335TIP3   OH234495   5.774   0.545  16.050 -0.2705  0.5340 -0.0965
 4335TIP3    H134496   5.707   0.611  16.032 -0.8512 -0.1071 -0.3391
 4335TIP3    H234497   5.751   0.510  16.136  0.0799  0.6987  0.0648
 4336TIP3   OH234498   3.076   2.404  14.339 -0.3384  0.2691 -0.5933
 4336TIP3    H134499   3.008   2.360  14.390 -0.9179 -0.2446 -1.7742
 4336TIP3    H234500   3.147   2.339  14.334 -0.5814  0.0349 -1.0554
 4337TIP3   OH234501   2.901   5.596  12.331  0.5488  0.0103  0.6723
 4337TIP3    H134502   2.887   5.612  12.238  0.2618  0.8926  0.8590
 4337TIP3    H234503   2.959   5.667  12.359 -0.2487  0.4040  1.3918
 4338TIP3   OH234504   5.428   1.301   0.468 -0.0346  0.1626 -0.2534
 4338TIP3    H134505   5.472   1.278   0.549  0.2994  0.2436 -0.4102
 4338TIP3    H234506   5.347   1.250   0.469 -1.0765  1.7354  1.1312
 4339TIP3   OH234507   5.612   6.232  13.882 -0.0674  0.7126  0.0514
 4339TIP3    H134508   5.659   6.232  13.965 -0.2936  0.5796  0.1783
 4339TIP3    H234509   5.646   6.155  13.835  0.0063  0.7461  0.0489
 4340TIP3   OH234510   5.354   2.439   0.030  0.5391  0.4071  0.0247
 4340TIP3    H134511   5.286   2.485   0.078 -1.3899 -0.5418 -1.6661
 4340TIP3    H234512   5.404   2.508  -0.013 -1.1281  1.0617 -0.9521
 4341TIP3   OH234513   0.183   4.409   1.180 -0.2820 -0.2030  0.2741
 4341TIP3    H134514   0.243   4.458   1.237 -1.0354 -0.4138  1.2770
 4341TIP3    H234515   0.204   4.317   1.197 -0.0045 -0.2637 -0.3663
 4342TIP3   OH234516   5.466   4.969   2.659  0.5192  0.1351  0.2192
 4342TIP3    H134517   5.489   5.028   2.731  1.1783  1.5148 -1.0680
 4342TIP3    H234518   5.412   5.023   2.601  0.1460 -0.9044 -0.4241
 4343TIP3   OH234519   2.199   0.499   3.495 -0.1095 -0.4852  0.4936
 4343TIP3    H134520   2.110   0.517   3.524  0.3142  0.3086  1.3774
 4343TIP3    H234521   2.233   0.585   3.469  0.7895 -0.5569  1.3598
 4344TIP3   OH234522   6.793   0.153  12.349 -0.2087  0.2393 -0.4503
 4344TIP3    H134523   6.876   0.178  12.309 -0.1065 -0.4806 -0.6953
 4344TIP3    H234524   6.783   0.060  12.329  0.1248 -0.3095  1.6917
 4345TIP3   OH234525   4.553   0.350   0.777 -0.9902 -0.5230  0.5083
 4345TIP3    H134526   4.632   0.405   0.773 -0.7161 -0.9787 -1.0171
 4345TIP3    H234527   4.542   0.331   0.870  0.7476 -0.5079  0.7530
 4346TIP3   OH234528   3.061   3.951   4.074  0.0114 -0.1825 -0.7017
 4346TIP3    H134529   3.017   4.031   4.044 -0.8160  0.6045  2.3155
 4346TIP3    H234530   2.991   3.887   4.083  0.3067 -0.5303 -0.8715
 4347TIP3   OH234531   2.182   2.258  16.945  0.3465 -0.2734 -0.3059
 4347TIP3    H134532   2.266   2.286  16.909  0.0426  0.0743 -0.7485
 4347TIP3    H234533   2.119   2.277  16.876 -0.2132  0.2220  0.3380
 4348TIP3   OH234534   2.911   4.093   1.964  0.4431  0.4849 -0.0053
 4348TIP3    H134535   2.862   4.174   1.951  0.1463  0.1820 -0.8186
 4348TIP3    H234536   2.934   4.065   1.876  3.2152  1.3026  0.3535
 4349TIP3   OH234537   0.468   1.456  16.729  0.1607 -0.0626  0.4723
 4349TIP3    H134538   0.405   1.493  16.790 -1.1208 -2.2178  0.5510
 4349TIP3    H234539   0.486   1.527  16.667 -1.8421  0.8174  0.8313
 4350TIP3   OH234540   1.066   1.112  14.389  0.2841 -0.4481 -0.6930
 4350TIP3    H134541   1.090   1.089  14.299  0.5654  0.2984 -0.8169
 4350TIP3    H234542   0.974   1.137  14.383  0.1552 -0.9156 -0.6752
 4351TIP3   OH234543   5.187   5.251   3.831 -0.2292  0.1291  0.1951
 4351TIP3    H134544   5.102   5.232   3.792 -1.1076  1.7129  1.1955
 4351TIP3    H234545   5.238   5.290   3.760 -0.7237  0.1537 -0.1549
 4352TIP3   OH234546   6.167   5.228  13.611  0.3376  0.1426  0.1759
 4352TIP3    H134547   6.171   5.147  13.663  0.0118  0.7388  1.1534
 4352TIP3    H234548   6.075   5.234  13.584  0.5340 -0.2339 -0.5950
 4353TIP3   OH234549   5.763   2.409   5.046 -0.5247 -0.0877 -0.0767
 4353TIP3    H134550   5.713   2.484   5.014  0.8269  0.3323 -1.3266
 4353TIP3    H234551   5.737   2.336   4.991  1.5221  0.5512 -2.0517
 4354TIP3   OH234552   3.338   1.447   3.422  0.0622  0.5728 -0.2396
 4354TIP3    H134553   3.382   1.525   3.388 -2.1176  0.9186 -2.5599
 4354TIP3    H234554   3.327   1.391   3.346  0.6870 -1.6182  1.1944
 4355TIP3   OH234555   4.355   4.655   3.673 -0.0252  0.5227  0.3531
 4355TIP3    H134556   4.357   4.569   3.715 -1.9104  0.8887  1.2957
 4355TIP3    H234557   4.345   4.636   3.580 -0.6985 -0.2729  0.5756
 4356TIP3   OH234558   6.788   3.814   1.250  0.1759  0.8582  0.2360
 4356TIP3    H134559   6.759   3.832   1.160  0.5703 -0.4982 -0.1843
 4356TIP3    H234560   6.875   3.777   1.241 -1.3195 -3.3669  0.7460
 4357TIP3   OH234561   3.264   2.645  14.431 -0.1454  0.4369  0.3416
 4357TIP3    H134562   3.232   2.572  14.377 -0.6321  2.5063 -2.3819
 4357TIP3    H234563   3.359   2.644  14.419  0.0822 -0.7398  1.8025
 4358TIP3   OH234564   6.645   3.640   1.891  0.3866 -0.6078 -0.3433
 4358TIP3    H134565   6.655   3.736   1.889  0.6354 -0.6360 -0.4642
 4358TIP3    H234566   6.560   3.626   1.933  0.1167 -0.3157 -0.7746
 4359TIP3   OH234567   5.973   6.810   0.145  0.3844 -0.2808  0.0495
 4359TIP3    H134568   5.927   6.866   0.083  1.0994  0.4074  0.1314
 4359TIP3    H234569   6.038   6.763   0.092  0.2281 -0.5513  0.0925
 4360TIP3   OH234570   1.866   1.224  16.136 -0.0709  0.2263 -0.3405
 4360TIP3    H134571   1.887   1.145  16.085  2.4843 -0.9280  2.1992
 4360TIP3    H234572   1.924   1.291  16.101 -1.1159  0.5776 -1.4563
 4361TIP3   OH234573   2.106   6.158  11.885  0.0423 -0.6453  0.3417
 4361TIP3    H134574   2.056   6.088  11.927  1.1352 -1.8784 -0.3353
 4361TIP3    H234575   2.039   6.221  11.856 -0.8644 -0.7529  2.0765
 4362TIP3   OH234576   4.609   0.852   5.411 -0.6204  0.2257 -0.4250
 4362TIP3    H134577   4.672   0.911   5.371  0.8748 -1.3597 -0.5067
 4362TIP3    H234578   4.584   0.793   5.340 -0.0949 -0.8515  0.2665
 4363TIP3   OH234579   0.452   4.467   6.763 -0.3825 -0.0023 -0.7355
 4363TIP3    H134580   0.406   4.543   6.797 -1.0650 -1.2607  1.2791
 4363TIP3    H234581   0.542   4.477   6.794 -0.6833 -0.4560  0.2981
 4364TIP3   OH234582   6.431   0.390   5.833 -0.7486 -0.0621 -0.4288
 4364TIP3    H134583   6.442   0.390   5.928 -1.4625  0.8914 -0.3319
 4364TIP3    H234584   6.469   0.307   5.804 -2.5747 -1.4553  0.9274
 4365TIP3   OH234585   6.757   6.334   1.145  0.0907  0.1166 -0.4483
 4365TIP3    H134586   6.662   6.331   1.148  0.1212 -3.0772  0.8856
 4365TIP3    H234587   6.784   6.343   1.237  1.0362 -1.1914 -0.5634
 4366TIP3   OH234588   1.286   3.724   0.101 -0.2353  0.4956  0.1535
 4366TIP3    H134589   1.327   3.788   0.043  0.0103  1.0702  0.9338
 4366TIP3    H234590   1.352   3.705   0.167 -0.5325 -0.0876  0.2896
 4367TIP3   OH234591   0.862   6.762   1.060 -0.2718 -0.3218  0.1237
 4367TIP3    H134592   0.853   6.842   1.113  1.3748 -1.0505  1.6304
 4367TIP3    H234593   0.803   6.700   1.102 -2.1079  0.2498 -1.4922
 4368TIP3   OH234594   5.629   4.517  14.940 -0.4947  0.0433  0.4395
 4368TIP3    H134595   5.692   4.576  14.981 -1.2427 -0.1428  1.9464
 4368TIP3    H234596   5.545   4.561  14.952 -0.7292  0.0825 -1.1391
 4369TIP3   OH234597   2.623   5.093   4.664 -0.4446  0.6843  0.2705
 4369TIP3    H134598   2.682   5.156   4.706  0.4572 -0.2277  0.4186
 4369TIP3    H234599   2.541   5.140   4.653  0.1859  1.8581  0.4456
 4370TIP3   OH234600   5.315   0.052   4.618  0.3206  0.0358 -0.8212
 4370TIP3    H134601   5.229   0.086   4.643  0.0704 -0.8161 -0.4965
 4370TIP3    H234602   5.368   0.131   4.604 -0.4175  0.5682 -0.7141
 4371TIP3   OH234603   1.091   5.210   2.885  0.7498  0.6597  0.1758
 4371TIP3    H134604   1.014   5.158   2.911  0.1547  1.6682  0.4867
 4371TIP3    H234605   1.166   5.154   2.905  0.0902 -0.6031 -0.6953
 4372TIP3   OH234606   0.288   1.468  16.081  0.3182 -0.1526 -0.0948
 4372TIP3    H134607   0.208   1.500  16.122 -0.1176  0.9516 -1.7585
 4372TIP3    H234608   0.358   1.500  16.139 -0.2972  1.0039  0.0376
 4373TIP3   OH234609   0.135   5.375   3.301  0.0148  0.1595  0.1032
 4373TIP3    H134610   0.213   5.348   3.254 -0.1824  0.4034 -0.3700
 4373TIP3    H234611   0.122   5.467   3.277 -0.2801  0.1916  0.3655
 4374TIP3   OH234612   5.471   1.958   6.141  0.5825 -0.5098  0.0680
 4374TIP3    H134613   5.478   1.979   6.048 -1.5389  0.5524  0.0779
 4374TIP3    H234614   5.509   2.034   6.186  0.0742 -0.2360  0.0500
 4375TIP3   OH234615   5.730   0.798  14.730  0.3428 -0.1461  0.1522
 4375TIP3    H134616   5.723   0.703  14.741  2.2787 -0.4614 -0.8328
 4375TIP3    H234617   5.747   0.832  14.818 -1.4333 -0.5544  0.6871
 4376TIP3   OH234618   0.884   1.463   4.658 -0.2093  0.3429  0.2012
 4376TIP3    H134619   0.867   1.557   4.663  0.1268  0.3360  2.0504
 4376TIP3    H234620   0.978   1.454   4.673  0.0691 -0.1928 -1.6701
 4377TIP3   OH234621   4.781   6.324   0.837  0.8248  0.0692  0.4637
 4377TIP3    H134622   4.838   6.358   0.906  1.8515  2.0968 -1.2451
 4377TIP3    H234623   4.829   6.250   0.800  0.5346 -0.6578  1.5058
 4378TIP3   OH234624   1.222   3.399  16.019 -0.2522 -0.0669  0.1215
 4378TIP3    H134625   1.283   3.352  16.075 -0.5680  0.7777  1.2343
 4378TIP3    H234626   1.136   3.361  16.040 -0.5102  0.9543  1.0388
 4379TIP3   OH234627   4.567   0.248  12.090 -1.2738  0.5268 -0.2401
 4379TIP3    H134628   4.635   0.268  12.154 -0.5362  0.4852 -1.0007
 4379TIP3    H234629   4.606   0.268  12.005 -1.5703 -1.1613 -0.8297
 4380TIP3   OH234630   5.143   6.037   2.546  0.4548 -0.5744 -0.7272
 4380TIP3    H134631   5.173   6.061   2.633  0.7526 -1.7291 -0.4831
 4380TIP3    H234632   5.057   6.076   2.537  0.5664 -0.1743 -0.0430
 4381TIP3   OH234633   2.788   1.871  16.475  0.3128 -0.1302 -0.0491
 4381TIP3    H134634   2.714   1.901  16.422 -1.4180 -1.3322  1.5811
 4381TIP3    H234635   2.847   1.947  16.478 -1.5076  1.3734 -0.2452
 4382TIP3   OH234636   3.774   1.101  16.837  0.4233 -0.0853 -0.9285
 4382TIP3    H134637   3.835   1.115  16.910 -1.8919  1.3558  0.8457
 4382TIP3    H234638   3.715   1.032  16.867 -0.5104  0.4634 -1.4671
 4383TIP3   OH234639   0.932   5.804  12.895 -0.6110  0.0040  0.1317
 4383TIP3    H134640   0.843   5.771  12.879 -1.2745  1.9498 -0.4699
 4383TIP3    H234641   0.980   5.728  12.928 -3.1814 -0.5268  3.1058
 4384TIP3   OH234642   0.521   2.535  11.651  0.2506  0.3461  0.6235
 4384TIP3    H134643   0.521   2.549  11.556  2.6583  1.2761  0.7078
 4384TIP3    H234644   0.430   2.550  11.677 -0.1239  1.7446 -1.2977
 4385TIP3   OH234645   4.893   3.682  12.923  0.2725 -0.7661 -0.5724
 4385TIP3    H134646   4.932   3.614  12.978 -1.6594 -1.5887 -0.1586
 4385TIP3    H234647   4.841   3.634  12.858 -0.6808  0.2884 -0.6206
 4386TIP3   OH234648   4.445   5.452  10.817 -0.1321 -0.1939  0.7718
 4386TIP3    H134649   4.524   5.504  10.803 -0.5679  0.0612 -0.9641
 4386TIP3    H234650   4.375   5.517  10.825 -0.4660 -0.4501  0.0524
 4387TIP3   OH234651   3.529   0.884  14.424 -0.0649 -0.0281 -0.0046
 4387TIP3    H134652   3.514   0.973  14.458  1.0379  0.5316 -0.9031
 4387TIP3    H234653   3.600   0.849  14.478 -0.2286 -0.2123  0.0913
 4388TIP3   OH234654   2.277   1.967   5.188  0.1617 -0.6849 -0.0643
 4388TIP3    H134655   2.345   1.935   5.247  0.3461  0.7704  0.5709
 4388TIP3    H234656   2.195   1.942   5.230  0.2184 -3.5608 -1.4599
 4389TIP3   OH234657   6.284   5.776  11.125  0.4734  0.5778  0.0639
 4389TIP3    H134658   6.309   5.725  11.048 -0.9347 -0.1570  0.0569
 4389TIP3    H234659   6.327   5.861  11.113  0.4232  0.4109 -1.4489
 4390TIP3   OH234660   6.332   4.783   4.492  0.6108  0.5582  0.6460
 4390TIP3    H134661   6.410   4.810   4.541 -0.1764 -0.3154  2.4954
 4390TIP3    H234662   6.283   4.864   4.478  2.2122  1.2476 -1.2957
 4391TIP3   OH234663   2.959   5.352  15.402  0.3515  0.2263 -0.1300
 4391TIP3    H134664   2.916   5.294  15.340  1.0912 -0.3469 -0.1229
 4391TIP3    H234665   2.936   5.317  15.488 -0.9782  1.2359 -0.0330
 4392TIP3   OH234666   4.997   0.414   3.341  0.1463 -0.5916 -0.0158
 4392TIP3    H134667   5.023   0.397   3.432 -2.0905  0.0999  0.8081
 4392TIP3    H234668   4.912   0.372   3.332  0.5445 -1.0550 -1.9835
 4393TIP3   OH234669   2.107   1.708  14.101  0.5022 -0.2252 -0.5199
 4393TIP3    H134670   2.194   1.675  14.078  1.3551 -0.7454  2.8038
 4393TIP3    H234671   2.110   1.802  14.080  2.5869  0.1450  1.0701
 4394TIP3   OH234672   1.072   4.347   5.684 -0.0436  0.2764 -0.1034
 4394TIP3    H134673   0.995   4.396   5.712 -0.3890  0.4633 -1.3054
 4394TIP3    H234674   1.036   4.268   5.644  0.3538  0.5745 -1.0867
 4395TIP3   OH234675   5.659   1.117  13.823  0.1694  0.6194  0.8374
 4395TIP3    H134676   5.591   1.088  13.883  0.0983  0.9596  0.9263
 4395TIP3    H234677   5.613   1.142  13.743  0.3941 -1.2093  0.0908
 4396TIP3   OH234678   0.464   3.905  14.746 -0.2231  0.0425  0.0129
 4396TIP3    H134679   0.516   3.828  14.769  2.8881  1.8807 -0.3440
 4396TIP3    H234680   0.411   3.876  14.672 -0.0979 -2.0794  0.6906
 4397TIP3   OH234681   1.300   0.475  14.383  0.0050  0.0016 -0.1311
 4397TIP3    H134682   1.394   0.477  14.397 -0.0617 -0.7023  0.4796
 4397TIP3    H234683   1.289   0.448  14.292  0.3928  1.1726 -0.5504
 4398TIP3   OH234684   0.232   4.515  12.840  0.5325 -0.0241 -0.3825
 4398TIP3    H134685   0.297   4.472  12.784 -0.9702 -2.9926 -0.0240
 4398TIP3    H234686   0.151   4.511  12.790  0.0674  1.3767  0.2052
 4399TIP3   OH234687   6.656   2.555   4.140  0.5806 -0.0482 -0.3437
 4399TIP3    H134688   6.637   2.469   4.180  0.0441 -0.9280 -2.3738
 4399TIP3    H234689   6.695   2.606   4.211  0.0208 -1.6471  1.1912
 4400TIP3   OH234690   3.571   6.042   4.543  0.7373 -0.4677 -0.7086
 4400TIP3    H134691   3.588   6.106   4.612 -0.3230  0.1702 -1.0058
 4400TIP3    H234692   3.530   5.968   4.588  1.5381 -0.7537 -0.4314
 4401TIP3   OH234693   0.772   6.514   3.459 -0.2898 -0.1256 -0.1673
 4401TIP3    H134694   0.780   6.586   3.522  0.5486 -1.6284  1.5142
 4401TIP3    H234695   0.837   6.534   3.392 -1.9446  2.0727 -1.2622
 4402TIP3   OH234696   1.225   0.668   3.264 -0.2402 -0.3597  0.7861
 4402TIP3    H134697   1.273   0.716   3.332 -0.2559  0.9698 -0.1159
 4402TIP3    H234698   1.139   0.709   3.262 -0.7231 -1.3400  0.9284
 4403TIP3   OH234699   6.170   4.007   5.657 -0.5838  0.8000  0.4193
 4403TIP3    H134700   6.208   4.030   5.742 -0.1981  0.5305  0.3249
 4403TIP3    H234701   6.175   3.911   5.654  0.2390  0.8494 -0.2728
 4404TIP3   OH234702   2.427   5.159  10.938  0.1011  0.3289 -0.1329
 4404TIP3    H134703   2.431   5.233  10.998  1.5648  0.1030  0.0881
 4404TIP3    H234704   2.517   5.148  10.907 -0.0104 -1.5374  0.0792
 4405TIP3   OH234705   3.382   6.508  16.873  0.5505  0.6076 -0.0582
 4405TIP3    H134706   3.361   6.557  16.794  1.3267  2.1690  0.6559
 4405TIP3    H234707   3.460   6.551  16.908  0.4371 -0.2748  1.3662
 4406TIP3   OH234708   6.614   1.263   2.746 -0.0618  0.2257  0.2974
 4406TIP3    H134709   6.587   1.268   2.654 -0.9209  0.8785  0.5748
 4406TIP3    H234710   6.589   1.175   2.773 -0.0702  0.1298 -0.0137
 4407TIP3   OH234711   5.551   0.765   4.687 -0.3902  0.5458 -0.0076
 4407TIP3    H134712   5.499   0.695   4.646 -0.9614  0.5601  0.6757
 4407TIP3    H234713   5.630   0.771   4.633  0.1613 -1.3393  0.5215
 4408TIP3   OH234714   4.459   1.278   3.398  0.1382  0.0926  0.1328
 4408TIP3    H134715   4.502   1.363   3.410  1.4281 -0.1969 -1.9601
 4408TIP3    H234716   4.522   1.225   3.350 -2.1121 -0.6864 -2.2232
 4409TIP3   OH234717   1.213   5.498  17.055 -0.0913 -0.5856  0.3693
 4409TIP3    H134718   1.151   5.463  16.991 -0.0409  2.4166 -1.5010
 4409TIP3    H234719   1.203   5.441  17.131 -3.3504 -1.6983 -0.7174
 4410TIP3   OH234720   1.506   3.866   1.012 -0.1894  0.0471 -0.2394
 4410TIP3    H134721   1.534   3.779   1.038 -0.9235 -0.1842 -0.1966
 4410TIP3    H234722   1.562   3.888   0.937  1.0540  0.1941  0.6976
 4411TIP3   OH234723   0.001   1.675  15.646  0.5129 -0.0072  0.2100
 4411TIP3    H134724   0.064   1.604  15.647 -0.0429 -0.5071  0.1055
 4411TIP3    H234725  -0.017   1.691  15.553 -0.5910 -0.8511  0.2503
 4412TIP3   OH234726   6.439   3.076  11.893  0.2995  0.2984 -0.3217
 4412TIP3    H134727   6.441   3.028  11.976 -0.7578  0.4061 -0.2234
 4412TIP3    H234728   6.531   3.080  11.866  0.5390 -0.6537  0.3089
 4413TIP3   OH234729   2.936   1.782   4.677  0.1013  0.2856 -0.1393
 4413TIP3    H134730   2.960   1.702   4.723  0.3419  0.2682 -0.2989
 4413TIP3    H234731   3.017   1.815   4.640  0.2335  1.2461  0.9308
 4414TIP3   OH234732   2.027   4.349   4.732  0.6246 -0.2220  0.6776
 4414TIP3    H134733   1.983   4.396   4.802 -0.9583  0.2436 -0.5640
 4414TIP3    H234734   2.120   4.358   4.751  0.3382  2.4513  1.1136
 4415TIP3   OH234735   3.771   0.777  11.441 -0.3897  0.5860  0.0378
 4415TIP3    H134736   3.720   0.822  11.509 -2.4850  1.4326 -1.9441
 4415TIP3    H234737   3.862   0.797  11.462 -0.9320  0.4708  2.7805
 4416TIP3   OH234738   0.994   2.771   5.783  0.1302  0.7398 -0.1570
 4416TIP3    H134739   1.027   2.703   5.725  0.1129  0.5872  0.0110
 4416TIP3    H234740   0.904   2.744   5.803  0.5622  0.0781  1.0133
 4417TIP3   OH234741   1.652   5.607   3.315 -0.0718  0.3377  0.1973
 4417TIP3    H134742   1.676   5.604   3.223  0.6103 -1.1179  0.3900
 4417TIP3    H234743   1.616   5.695   3.328 -0.7151  0.3720 -1.5654
 4418TIP3   OH234744   4.546   1.550  13.789  0.6570 -0.0458 -0.4473
 4418TIP3    H134745   4.514   1.549  13.879  2.2581  0.2214  0.1653
 4418TIP3    H234746   4.594   1.632  13.781  3.1577 -1.3750 -0.4993
 4419TIP3   OH234747   1.856   4.709   6.468 -0.3673 -0.4619  0.1912
 4419TIP3    H134748   1.873   4.616   6.457  0.2471 -0.2965 -0.3009
 4419TIP3    H234749   1.883   4.749   6.385 -2.0920 -0.0307 -0.2121
 4420TIP3   OH234750   6.504   2.398   2.404 -0.2109  0.2464  0.3737
 4420TIP3    H134751   6.439   2.338   2.367  0.9939 -1.5393  1.0298
 4420TIP3    H234752   6.460   2.436   2.481 -1.5429  1.4826 -0.9345
 4421TIP3   OH234753   5.370   4.592  16.444  0.5697  0.2280 -0.4759
 4421TIP3    H134754   5.400   4.584  16.354  0.0676  0.0583 -0.6323
 4421TIP3    H234755   5.301   4.657  16.441  1.0179  0.7349 -0.0908
 4422TIP3   OH234756   4.455   3.965   0.592 -0.4832  0.2724  0.3125
 4422TIP3    H134757   4.411   4.010   0.520 -1.9980 -0.8414  0.5006
 4422TIP3    H234758   4.471   3.877   0.560 -1.7644 -0.4411  1.5082
 4423TIP3   OH234759   3.579   0.162  10.649 -0.1464  0.1588 -0.3620
 4423TIP3    H134760   3.625   0.156  10.733 -0.5091  1.5419 -0.0534
 4423TIP3    H234761   3.515   0.232  10.660 -0.5568  0.0206 -1.6352
 4424TIP3   OH234762   3.875   0.825   5.106  0.2310  0.0470 -0.6836
 4424TIP3    H134763   3.793   0.868   5.083  0.3264  1.4819  1.4093
 4424TIP3    H234764   3.848   0.747   5.154  0.0859  0.3834 -0.2158
 4425TIP3   OH234765   3.304   3.546  10.210 -0.4359  0.0495 -0.0909
 4425TIP3    H134766   3.377   3.571  10.153  0.3533  0.3527  1.0139
 4425TIP3    H234767   3.343   3.488  10.275 -1.3857 -0.5474 -0.0361
 4426TIP3   OH234768   4.675   4.358   0.305 -0.2016 -0.5223  0.0411
 4426TIP3    H134769   4.758   4.378   0.347  0.4192 -0.8383 -1.0008
 4426TIP3    H234770   4.678   4.407   0.223 -0.9454 -0.7305 -0.1143
 4427TIP3   OH234771   2.399   1.401   1.723  0.5009 -0.1186  0.2965
 4427TIP3    H134772   2.443   1.407   1.638  1.0705 -1.7871  0.4490
 4427TIP3    H234773   2.309   1.428   1.704  0.4191 -1.2028 -1.0203
 4428TIP3   OH234774   5.787   2.377  12.856  1.0041  0.7994 -0.3196
 4428TIP3    H134775   5.844   2.436  12.807  0.9961  0.2573 -1.0110
 4428TIP3    H234776   5.708   2.428  12.874  1.2629  1.2044 -0.3326
 4429TIP3   OH234777   6.321   6.584  11.502 -0.3369 -0.0666  0.3193
 4429TIP3    H134778   6.257   6.615  11.437  1.1996  1.3687 -0.6009
 4429TIP3    H234779   6.268   6.543  11.570 -2.1601  0.2038 -0.8601
 4430TIP3   OH234780   2.073   2.282   5.807 -0.1622  0.5985  0.1828
 4430TIP3    H134781   2.036   2.216   5.866 -0.2032  2.0856  1.8786
 4430TIP3    H234782   2.165   2.257   5.797 -0.3919 -0.2273  0.0536
 4431TIP3   OH234783   3.647   1.782   5.669 -0.2922 -0.8745  0.6005
 4431TIP3    H134784   3.742   1.781   5.656 -0.3273 -0.6481  0.3346
 4431TIP3    H234785   3.627   1.694   5.700 -0.0347 -1.0134  0.3783
 4432TIP3   OH234786   3.047   2.893  16.983  0.0620 -0.7202  0.3274
 4432TIP3    H134787   2.966   2.861  16.942  1.1343  0.1380 -2.7709
 4432TIP3    H234788   3.020   2.967  17.037 -1.1279  0.6016 -1.9405
 4433TIP3   OH234789   5.667   3.483   0.048  0.1972 -0.2432 -0.1904
 4433TIP3    H134790   5.669   3.575   0.025  0.6849 -0.0981  0.3873
 4433TIP3    H234791   5.577   3.466   0.073  0.2761  0.2864  0.4779
 4434TIP3   OH234792   3.913   4.189  16.974  0.5091  0.0663 -0.4109
 4434TIP3    H134793   3.945   4.179  16.884  1.0012  0.9299 -0.3425
 4434TIP3    H234794   3.943   4.276  17.000  2.3598 -1.0393  1.4119
 4435TIP3   OH234795   3.652   2.688  15.961 -0.1044 -0.4904 -0.2595
 4435TIP3    H134796   3.704   2.724  15.889 -1.4693  1.0598 -0.5422
 4435TIP3    H234797   3.576   2.649  15.918 -0.2169 -0.8498  0.2566
 4436TIP3   OH234798   3.301   4.973   6.051 -0.3570  0.2179 -0.4671
 4436TIP3    H134799   3.254   5.017   5.980 -0.6588 -1.6469 -1.4777
 4436TIP3    H234800   3.232   4.935   6.105 -0.0808 -0.0192 -0.2796
 4437TIP3   OH234801   1.189   5.423   1.976  0.0443 -0.7759 -0.4200
 4437TIP3    H134802   1.248   5.495   1.955 -1.8641  0.9235 -0.2549
 4437TIP3    H234803   1.136   5.456   2.049 -1.5041 -1.9822 -0.9449
 4438TIP3   OH234804   4.229   6.642   3.988 -0.8500  0.1164  0.6822
 4438TIP3    H134805   4.155   6.591   3.956  0.1627 -2.2442  1.8330
 4438TIP3    H234806   4.273   6.673   3.909 -0.8989 -1.8015 -0.1555
 4439TIP3   OH234807   4.421   0.541  13.464  0.2931  0.7316 -0.7337
 4439TIP3    H134808   4.473   0.502  13.534 -0.5961  0.5505 -0.1594
 4439TIP3    H234809   4.375   0.467  13.423 -2.6600  1.1943  1.3907
 4440TIP3   OH234810   5.463   0.952   0.022  0.0787  0.3332  0.4690
 4440TIP3    H134811   5.426   0.932  -0.064 -2.2224 -2.9268  2.0053
 4440TIP3    H234812   5.403   1.016   0.060 -0.8745 -0.7170  0.8099
 4441TIP3   OH234813   3.383   4.466  16.430 -0.5529  0.2453 -0.0988
 4441TIP3    H134814   3.356   4.375  16.436  1.3368 -0.4014 -0.5912
 4441TIP3    H234815   3.398   4.481  16.337 -1.1865  1.1756 -0.0637
 4442TIP3   OH234816   0.052   1.484  14.074 -0.4346 -0.3804 -0.2653
 4442TIP3    H134817   0.143   1.489  14.043 -0.7762 -0.3120 -1.2839
 4442TIP3    H234818   0.033   1.573  14.105  0.0300 -0.5435  0.5199
 4443TIP3   OH234819   5.647   3.765   0.008  0.5406 -0.5022 -0.3595
 4443TIP3    H134820   5.614   3.778  -0.081  2.1417  1.2497 -0.7714
 4443TIP3    H234821   5.593   3.822   0.063 -1.0957 -2.3076  0.0323
 4444TIP3   OH234822   3.278   2.118  12.959  0.0066 -0.7446  0.4905
 4444TIP3    H134823   3.249   2.098  12.870 -0.5506  0.4624  0.3826
 4444TIP3    H234824   3.200   2.106  13.013 -0.3841  1.0623  0.4113
 4445TIP3   OH234825   2.344   5.395  12.142 -0.1499 -0.2036 -0.3472
 4445TIP3    H134826   2.341   5.315  12.089  1.0602  0.5388 -1.6088
 4445TIP3    H234827   2.281   5.454  12.100 -0.2897 -0.1365 -0.0424
 4446TIP3   OH234828   0.247   6.623  14.885 -1.1065  0.1202 -0.4270
 4446TIP3    H134829   0.185   6.600  14.954 -0.6335  0.1538  0.0112
 4446TIP3    H234830   0.333   6.611  14.924 -0.7332 -2.5925 -1.8389
 4447TIP3   OH234831   6.675   3.486  13.257  0.3692 -0.3914 -0.6945
 4447TIP3    H134832   6.615   3.486  13.331  0.3251 -0.2036 -0.7317
 4447TIP3    H234833   6.728   3.407  13.270 -0.1487 -0.7689 -0.8785
 4448TIP3   OH234834   6.505   2.790  14.063  0.5510 -0.1649  0.2018
 4448TIP3    H134835   6.437   2.857  14.055  1.0869  0.6778  2.2168
 4448TIP3    H234836   6.492   2.734  13.986 -2.1819  0.1669  0.3243
 4449TIP3   OH234837   0.894   6.483  14.620  0.3786 -0.1359  0.8529
 4449TIP3    H134838   0.859   6.553  14.565 -1.0860 -1.0502  0.5572
 4449TIP3    H234839   0.908   6.524  14.705 -0.5248  0.5212  0.7043
 4450TIP3   OH234840   5.079   1.413   4.335  0.2511  0.1487 -0.2424
 4450TIP3    H134841   5.013   1.481   4.343 -0.8369 -0.9731  0.9651
 4450TIP3    H234842   5.031   1.336   4.304  1.1271 -0.5055 -0.0269
 4451TIP3   OH234843   6.229   4.056  13.168 -0.2124  0.1112  0.1890
 4451TIP3    H134844   6.211   4.149  13.153 -0.5248 -0.0288 -0.3563
 4451TIP3    H234845   6.252   4.023  13.081  1.9744  0.1190  0.7151
 4452TIP3   OH234846   2.387   3.546  12.340  0.0508 -0.6414  0.7384
 4452TIP3    H134847   2.385   3.455  12.370 -0.4300 -1.1764 -0.8085
 4452TIP3    H234848   2.385   3.598  12.421 -0.4890 -1.9868  1.6302
 4453TIP3   OH234849   6.554   2.904  12.115  0.1097 -0.1440  0.2478
 4453TIP3    H134850   6.588   2.938  12.197  0.1748  0.0782  0.1305
 4453TIP3    H234851   6.463   2.880  12.134 -0.1875  0.8456  0.1297
 4454TIP3   OH234852   0.178   3.381  12.428 -0.3284  0.0719 -0.2698
 4454TIP3    H134853   0.215   3.377  12.516 -0.7889  1.4675  0.0165
 4454TIP3    H234854   0.145   3.293  12.412  1.4675 -0.7226  0.1779
 4455TIP3   OH234855   3.373   0.988   1.651  0.1859  0.1193  0.7275
 4455TIP3    H134856   3.287   1.030   1.652 -0.6763 -1.5015 -0.1792
 4455TIP3    H234857   3.404   0.992   1.741  0.0527  2.4132  0.7255
 4456TIP3   OH234858   1.178   3.301   4.846  0.3114 -0.3276 -0.0156
 4456TIP3    H134859   1.268   3.275   4.864 -0.2686 -0.6427  2.8985
 4456TIP3    H234860   1.138   3.223   4.808  0.6332 -1.0794  1.1297
 4457TIP3   OH234861   4.972   5.916  17.010 -1.1402  0.0294 -0.3922
 4457TIP3    H134862   4.924   5.838  16.982  0.4949 -2.1615  2.3397
 4457TIP3    H234863   4.924   5.947  17.087  0.0269 -0.3099  0.4950
 4458TIP3   OH234864   0.460   1.163  13.406 -0.3789 -0.4268 -0.1691
 4458TIP3    H134865   0.520   1.123  13.469 -2.6918 -0.1847  2.3412
 4458TIP3    H234866   0.381   1.109  13.409 -2.2233  2.1193  0.5581
 4459TIP3   OH234867   5.914   0.638   4.010  0.4137 -0.3937  0.2321
 4459TIP3    H134868   5.878   0.549   4.006 -0.3364 -0.1545  1.1361
 4459TIP3    H234869   6.008   0.627   3.993  0.7131 -1.6507  2.3035
 4460TIP3   OH234870   1.014   2.310  13.708  0.3246  0.6726 -0.3215
 4460TIP3    H134871   1.089   2.253  13.721 -0.0856  0.1554 -0.1774
 4460TIP3    H234872   0.975   2.318  13.795 -1.1426 -0.9993 -0.7526
 4461TIP3   OH234873   6.537   1.100   1.298 -0.0233  0.4452 -0.5480
 4461TIP3    H134874   6.526   1.150   1.379  0.3952 -0.1544 -0.1055
 4461TIP3    H234875   6.459   1.119   1.247 -2.4924 -2.3990  1.7383
 4462TIP3   OH234876   0.055   0.780  14.673  0.1558 -0.2892  0.4259
 4462TIP3    H134877   0.000   0.708  14.641 -0.1134  0.1963 -0.2370
 4462TIP3    H234878   0.027   0.794  14.763 -0.3947 -0.4353  0.2787
 4463TIP3   OH234879   4.263   2.685   4.087  0.1389  0.2108 -0.0734
 4463TIP3    H134880   4.253   2.769   4.042 -0.6078 -0.1558 -0.6126
 4463TIP3    H234881   4.211   2.695   4.167  0.7267  0.5462  0.2718
 4464TIP3   OH234882   5.727   6.042   4.385 -0.2333  0.3609 -0.2000
 4464TIP3    H134883   5.656   5.979   4.368 -2.4514  2.8058 -0.7277
 4464TIP3    H234884   5.759   6.019   4.473 -2.0198 -0.5835  0.2617
 4465TIP3   OH234885   1.728   2.445   4.741  0.9618  0.3496  0.0008
 4465TIP3    H134886   1.790   2.499   4.791  0.8029  1.4891 -0.9679
 4465TIP3    H234887   1.758   2.355   4.754  2.6867  0.8476 -0.2455
 4466TIP3   OH234888   5.127   2.737  11.703  0.4067 -0.2924 -0.7364
 4466TIP3    H134889   5.130   2.670  11.634 -1.6773 -1.0611 -0.1500
 4466TIP3    H234890   5.036   2.739  11.731  0.8979  1.1074  0.9647
 4467TIP3   OH234891   5.853   2.352  16.188 -0.0186  0.2674 -0.0214
 4467TIP3    H134892   5.806   2.327  16.268  0.1870 -0.0185  0.0101
 4467TIP3    H234893   5.869   2.446  16.198 -1.8482  0.6855 -0.6899
 4468TIP3   OH234894   5.583   2.413   4.109 -0.6324 -0.5935  0.7272
 4468TIP3    H134895   5.633   2.331   4.119 -0.4241 -0.4979  0.4529
 4468TIP3    H234896   5.628   2.475   4.167 -0.1198 -0.3625  0.0855
 4469TIP3   OH234897   5.062   1.485   6.133 -0.8778 -0.0857  0.4320
 4469TIP3    H134898   4.985   1.478   6.075 -0.2854  0.6916 -0.4796
 4469TIP3    H234899   5.078   1.395   6.162 -1.5329 -0.4123 -0.1764
 4470TIP3   OH234900   1.400   2.298  14.671  0.2126 -0.6136  0.5955
 4470TIP3    H134901   1.401   2.289  14.576  1.5801  0.7012  0.4570
 4470TIP3    H234902   1.429   2.388  14.687  0.2905 -0.9071  2.2695
 4471TIP3   OH234903   4.799   0.444   5.568  0.1748 -0.2504  0.2156
 4471TIP3    H134904   4.820   0.482   5.483 -0.6802 -3.1371 -1.4169
 4471TIP3    H234905   4.880   0.452   5.618  0.8600  1.0733 -1.0337
 4472TIP3   OH234906   3.730   0.947  15.953 -0.1903  0.1090  0.0094
 4472TIP3    H134907   3.796   0.895  15.906 -1.1718 -0.9109 -0.2718
 4472TIP3    H234908   3.778   1.023  15.984  0.9861 -0.2939 -0.7470
 4473TIP3   OH234909   3.420   6.314   0.830  0.1713 -0.4227 -0.5958
 4473TIP3    H134910   3.515   6.316   0.824  0.4215 -1.5080  1.8553
 4473TIP3    H234911   3.394   6.406   0.825  1.4071 -0.0563 -0.6104
 4474TIP3   OH234912   3.986   4.278  15.852 -0.3539  0.6126 -0.1197
 4474TIP3    H134913   3.957   4.266  15.943  0.6110  3.0948  0.6097
 4474TIP3    H234914   4.011   4.191  15.823  0.3076 -0.1250  2.3829
 4475TIP3   OH234915   1.658   0.203   2.392 -0.3990 -0.4524 -0.8614
 4475TIP3    H134916   1.668   0.188   2.298  2.1149  1.9211 -1.1112
 4475TIP3    H234917   1.747   0.197   2.427 -0.6867  2.4622  0.6498
 4476TIP3   OH234918   6.340   6.078  16.317  0.1325  0.1904 -0.2787
 4476TIP3    H134919   6.419   6.045  16.360 -0.8136 -1.1268  0.5088
 4476TIP3    H234920   6.282   6.104  16.390 -1.3287 -1.6825 -0.6889
 4477TIP3   OH234921   2.092   0.111  16.718 -0.1416 -0.0462 -0.4830
 4477TIP3    H134922   2.155   0.177  16.689 -0.6124  0.2099 -0.9594
 4477TIP3    H234923   2.119   0.088  16.807 -0.4237  1.3697 -0.0024
 4478TIP3   OH234924   1.244   3.469  13.454 -0.6528 -0.0341  0.6118
 4478TIP3    H134925   1.326   3.422  13.465 -1.1982 -1.6688 -1.5355
 4478TIP3    H234926   1.265   3.541  13.394 -0.7144 -0.2845  0.2866
 4479TIP3   OH234927   5.680   0.976  14.962  0.2565  0.2643 -0.1383
 4479TIP3    H134928   5.661   0.909  15.027 -0.5427  1.4588  0.9226
 4479TIP3    H234929   5.595   1.017  14.945  0.6130  0.5672 -1.2574
 4480TIP3   OH234930   4.152   3.561  11.254 -0.1656  0.1539  0.6225
 4480TIP3    H134931   4.213   3.612  11.308  0.6943 -1.0907  0.8617
 4480TIP3    H234932   4.205   3.529  11.181 -0.6057 -0.6491  0.6411
 4481TIP3   OH234933   2.962   1.952   0.601 -0.3425  0.7810  0.0436
 4481TIP3    H134934   3.046   1.946   0.645 -1.0313 -0.7779  1.2759
 4481TIP3    H234935   2.900   1.911   0.662 -1.2343 -2.4333 -2.6688
 4482TIP3   OH234936   4.053   1.150  13.191 -0.1699  0.2658  0.2582
 4482TIP3    H134937   4.060   1.207  13.268  0.2002  0.5880 -0.0108
 4482TIP3    H234938   3.960   1.153  13.167 -0.0341  1.3725 -0.2090
 4483TIP3   OH234939   3.062   1.854  13.156 -0.3972 -0.2505  0.0428
 4483TIP3    H134940   2.971   1.858  13.185 -0.0521 -1.8692  1.5742
 4483TIP3    H234941   3.111   1.899  13.224  0.0504 -0.3289 -0.2246
 4484TIP3   OH234942   6.459   4.886  16.866 -0.1107 -0.6730  0.8812
 4484TIP3    H134943   6.380   4.833  16.873 -0.6681  0.3231  2.7830
 4484TIP3    H234944   6.513   4.859  16.941  0.6795 -0.2636  0.4792
 4485TIP3   OH234945   2.779   2.276   3.631 -0.1213 -0.5492 -1.1270
 4485TIP3    H134946   2.688   2.248   3.633  0.1408 -1.3917 -0.5752
 4485TIP3    H234947   2.794   2.303   3.540 -1.8129  2.7224 -0.5748
 4486TIP3   OH234948   3.722   6.135   4.760 -0.1650 -0.1774 -0.1261
 4486TIP3    H134949   3.782   6.206   4.784  1.0572 -1.4664  0.8325
 4486TIP3    H234950   3.711   6.086   4.842 -0.2175 -1.6214 -0.9795
 4487TIP3   OH234951   4.989   3.914  12.840 -0.4159 -0.3143 -0.1416
 4487TIP3    H134952   5.072   3.891  12.882 -0.4303 -1.7047 -0.8177
 4487TIP3    H234953   4.935   3.836  12.849 -1.3013  0.2333 -0.5708
 4488TIP3   OH234954   6.112   1.318  12.652 -0.8825 -0.0198  0.1667
 4488TIP3    H134955   6.054   1.244  12.636  1.9062 -2.1411 -1.0386
 4488TIP3    H234956   6.105   1.371  12.572 -0.0385 -1.1363 -0.6823
 4489TIP3   OH234957   4.117   0.311   5.714 -0.2134  0.4177 -0.0745
 4489TIP3    H134958   4.173   0.342   5.785 -0.7834  1.7879 -0.1966
 4489TIP3    H234959   4.175   0.258   5.659  0.7927  1.2330  0.1745
 4490TIP3   OH234960   5.863   4.767   0.295 -0.7557  0.1904 -0.3993
 4490TIP3    H134961   5.897   4.795   0.380 -1.2628 -3.2000  1.0702
 4490TIP3    H234962   5.938   4.727   0.250 -0.2882  2.6536 -2.0209
 4491TIP3   OH234963   4.684   0.403  11.871  0.3627  0.0699  0.8705
 4491TIP3    H134964   4.598   0.373  11.844  0.3726 -1.4267  2.3086
 4491TIP3    H234965   4.669   0.490  11.908 -0.0991  0.8663 -1.0874
 4492TIP3   OH234966   2.086   3.048   5.774  0.1006 -0.2837  0.6350
 4492TIP3    H134967   2.135   3.125   5.745 -2.4302  1.8565  1.5944
 4492TIP3    H234968   2.147   3.000   5.829  2.4066 -0.1214 -1.6034
 4493TIP3   OH234969   3.193   3.153   5.447 -0.5174  0.5612  0.3332
 4493TIP3    H134970   3.104   3.173   5.478 -0.8616 -0.3294 -0.0503
 4493TIP3    H234971   3.186   3.157   5.351  0.1235  1.5617  0.3150
 4494TIP3   OH234972   5.049   3.095   5.860 -0.4630 -0.0200  0.5455
 4494TIP3    H134973   5.071   3.156   5.790 -0.6823 -0.8743 -0.2728
 4494TIP3    H234974   4.991   3.031   5.820  1.0469 -1.7339  0.9604
 4495TIP3   OH234975   4.303   3.889   4.214 -0.7097  0.2571 -0.1723
 4495TIP3    H134976   4.355   3.878   4.134 -1.1100  1.2905 -0.5872
 4495TIP3    H234977   4.213   3.871   4.186 -0.8687  0.7649  0.0094
 4496TIP3   OH234978   4.072   2.187   6.416  0.2624  0.4895  0.0236
 4496TIP3    H134979   3.993   2.229   6.381 -1.7444 -1.5741  1.7672
 4496TIP3    H234980   4.071   2.099   6.378  1.8989  0.5045 -0.1065
 4497TIP3   OH234981   6.268   1.409  15.643  0.0316 -0.0038  0.5125
 4497TIP3    H134982   6.277   1.471  15.715 -0.2794  0.4808  0.1372
 4497TIP3    H234983   6.353   1.410  15.599 -0.6716  1.9977 -0.9571
 4498TIP3   OH234984   5.315   5.722   4.264 -0.1661  0.0778  0.3544
 4498TIP3    H134985   5.232   5.682   4.237 -0.6355  1.5723 -0.5487
 4498TIP3    H234986   5.291   5.810   4.292  1.2353  0.9282 -0.9754
 4499TIP3   OH234987   1.614   4.937  10.561 -0.2410  0.7887  0.4852
 4499TIP3    H134988   1.625   4.844  10.541  3.4135  1.3951 -1.1042
 4499TIP3    H234989   1.554   4.969  10.493  0.3887  0.0110 -0.4699
 4500TIP3   OH234990   5.374   3.467  12.841 -0.3537 -0.1519  0.2395
 4500TIP3    H134991   5.371   3.373  12.858  0.5053 -0.3506 -0.6423
 4500TIP3    H234992   5.314   3.480  12.767 -0.9868  0.1056  0.7867
 4501TIP3   OH234993   1.315   2.319   2.584  0.4569  0.2777  0.0500
 4501TIP3    H134994   1.239   2.377   2.573 -0.5797 -0.8334  1.0821
 4501TIP3    H234995   1.369   2.362   2.650  0.0204  0.3883  0.3386
 4502TIP3   OH234996   1.342   5.998  12.184  0.7766 -0.1866 -0.4805
 4502TIP3    H134997   1.289   5.985  12.263  1.0354 -2.7054 -0.6331
 4502TIP3    H234998   1.403   5.924  12.184  2.1328  0.8716 -2.0125
 4503TIP3   OH234999   4.610   3.321   0.475 -0.0134 -0.3600 -0.8067
 4503TIP3    H135000   4.677   3.363   0.420 -0.4267 -1.3300 -2.0977
 4503TIP3    H235001   4.555   3.273   0.413 -1.9086  0.3850  0.2242
 4504TIP3   OH235002   1.561   2.572  16.781  0.3302 -0.3582 -0.0587
 4504TIP3    H135003   1.578   2.508  16.850  2.0815 -0.3624 -0.4607
 4504TIP3    H235004   1.516   2.644  16.827  2.9343  0.4022  1.5168
 4505TIP3   OH235005   1.548   1.151  16.408 -0.5248  0.5491  0.2815
 4505TIP3    H135006   1.541   1.244  16.427  0.3508  0.7985 -0.5650
 4505TIP3    H235007   1.478   1.111  16.460 -1.0260  1.6856  0.5157
 4506TIP3   OH235008   0.172   5.882   4.694  0.2024  0.0199 -0.4535
 4506TIP3    H135009   0.240   5.826   4.657  1.5902  1.8850 -0.8939
 4506TIP3    H235010   0.102   5.822   4.719  1.5610 -1.8695 -0.9701
 4507TIP3   OH235011   4.863   1.450  13.854 -0.0356  0.0699  0.4117
 4507TIP3    H135012   4.769   1.464  13.843 -0.1622  0.1146  1.4650
 4507TIP3    H235013   4.904   1.502  13.785 -0.8200 -0.8592 -0.7824
 4508TIP3   OH235014   5.878   3.063  13.040 -0.3581  0.0227 -0.0805
 4508TIP3    H135015   5.791   3.034  13.013 -0.4515  0.4865 -0.2957
 4508TIP3    H235016   5.869   3.158  13.051 -0.2649 -0.1205  1.3800
 4509TIP3   OH235017   5.604   4.594   0.216  0.6403  0.2978  0.0077
 4509TIP3    H135018   5.646   4.667   0.261  0.3779  1.0677 -0.9691
 4509TIP3    H235019   5.536   4.564   0.277  0.7134  0.9042  0.3913
 4510TIP3   OH235020   5.136   1.011   1.611 -0.1461 -0.0227 -0.4374
 4510TIP3    H135021   5.149   1.083   1.674 -0.9578  0.9918 -1.3896
 4510TIP3    H235022   5.168   1.046   1.528  0.7362 -1.2832 -0.6585
 4511TIP3   OH235023   3.087   3.647  13.485 -0.2254 -0.1639 -0.0778
 4511TIP3    H135024   3.165   3.670  13.536 -1.7296  3.1987  0.9596
 4511TIP3    H235025   3.105   3.682  13.397  0.4624 -1.8773 -0.6804
 4512TIP3   OH235026   0.463   1.934  11.484  0.0804 -0.0163 -0.0503
 4512TIP3    H135027   0.530   1.865  11.482  0.5776  0.4375  0.7194
 4512TIP3    H235028   0.395   1.901  11.426  0.4961 -0.9719 -0.0291
 4513TIP3   OH235029   2.498   6.453  16.939 -0.2263 -0.0930  0.1321
 4513TIP3    H135030   2.513   6.537  16.896 -1.1946 -0.7055 -1.4657
 4513TIP3    H235031   2.577   6.439  16.992 -0.3216  2.0917  0.9558
 4514TIP3   OH235032   4.265   5.140   4.272 -0.2682 -0.2261  0.2145
 4514TIP3    H135033   4.303   5.192   4.201  2.1266 -1.8927  0.1149
 4514TIP3    H235034   4.310   5.171   4.351 -0.0710 -0.9715  0.4004
 4515TIP3   OH235035   1.094   5.174  15.496  0.1480 -0.9240  0.0172
 4515TIP3    H135036   1.083   5.128  15.413 -0.1621 -0.9635  0.0804
 4515TIP3    H235037   1.188   5.172  15.512  0.1655 -1.2782 -0.1288
 4516TIP3   OH235038   3.999   6.032   1.032  0.0998 -0.2634  0.2287
 4516TIP3    H135039   4.016   6.121   1.065  2.4621 -0.5157 -0.1465
 4516TIP3    H235040   4.039   5.974   1.097  0.5463 -0.9604 -0.6486
 4517TIP3   OH235041   3.314   2.545  13.516  0.4063  0.0972  0.1407
 4517TIP3    H135042   3.263   2.504  13.446  2.0167 -1.4483 -0.2059
 4517TIP3    H235043   3.252   2.553  13.589 -0.8921  0.3162 -0.9529
 4518TIP3   OH235044   4.261   2.304  15.793  0.3273 -0.3308  0.0693
 4518TIP3    H135045   4.346   2.326  15.832  1.2495 -0.3640 -1.7824
 4518TIP3    H235046   4.251   2.367  15.721 -0.3554 -1.4518 -0.8512
 4519TIP3   OH235047   0.411   6.572   0.796 -0.6929 -0.1027  0.2262
 4519TIP3    H135048   0.438   6.640   0.735 -0.8279 -1.7977 -1.8619
 4519TIP3    H235049   0.315   6.579   0.800 -0.9111 -1.2508 -1.5008
 4520TIP3   OH235050   4.624   4.574   4.269 -0.1563 -0.0078  0.2289
 4520TIP3    H135051   4.657   4.495   4.227 -1.5089 -0.2273 -0.4862
 4520TIP3    H235052   4.678   4.584   4.347  1.6356 -0.2529 -0.9295
 4521TIP3   OH235053   3.077   0.226  14.900 -0.1490  0.4213 -0.7236
 4521TIP3    H135054   3.120   0.158  14.952 -0.8136  0.2480 -0.3932
 4521TIP3    H235055   3.097   0.203  14.810  2.7919  1.8766 -0.5722
 4522TIP3   OH235056   1.505   5.026  15.871 -0.4651  0.2681  0.3999
 4522TIP3    H135057   1.502   4.999  15.962  0.9089  1.3123  0.7881
 4522TIP3    H235058   1.520   5.121  15.874 -2.8393  0.7748 -0.9070
 4523TIP3   OH235059   2.151   2.213   5.507 -0.2035 -0.4237 -0.0495
 4523TIP3    H135060   2.192   2.271   5.443 -1.4473  2.1016  1.3253
 4523TIP3    H235061   2.217   2.201   5.575 -0.2430  0.0995  0.0820
 4524TIP3   OH235062   1.475   2.856   1.068 -0.1159 -0.3828 -0.3325
 4524TIP3    H135063   1.432   2.816   0.993 -0.1793 -0.8042 -0.0713
 4524TIP3    H235064   1.410   2.851   1.138  0.8442 -2.3029  0.4626
 4525TIP3   OH235065   4.820   2.480  12.912  0.5387 -0.1170 -0.2878
 4525TIP3    H135066   4.804   2.537  12.838  0.0366 -0.7818 -0.6999
 4525TIP3    H235067   4.810   2.391  12.878  1.5457 -0.4748  0.2772
 4526TIP3   OH235068   0.326   4.896  15.052 -0.3193 -0.7054 -0.0407
 4526TIP3    H135069   0.263   4.968  15.054  0.7844  0.3074 -0.5304
 4526TIP3    H235070   0.316   4.857  14.965  1.1525  0.8276 -0.9708
 4527TIP3   OH235071   4.930   4.649   6.814  0.1398 -0.1247  0.3083
 4527TIP3    H135072   4.996   4.718   6.810  0.8222 -0.6628  1.5928
 4527TIP3    H235073   4.980   4.568   6.802 -0.2782 -0.5396  1.2705
 4528TIP3   OH235074   4.350   4.803  13.694  0.1244  0.5291  0.3041
 4528TIP3    H135075   4.418   4.853  13.648  1.3352 -1.7103 -0.4940
 4528TIP3    H235076   4.351   4.837  13.784  2.7611  0.1821  0.4738
 4529TIP3   OH235077   0.661   5.636   1.171  0.2937  0.0079  0.0470
 4529TIP3    H135078   0.604   5.639   1.247  0.5322  1.0935  0.1969
 4529TIP3    H235079   0.690   5.727   1.158  0.8177 -0.2734 -0.9051
 4530TIP3   OH235080   0.585   1.429   5.176  0.1109 -0.7892 -0.5196
 4530TIP3    H135081   0.655   1.397   5.118 -0.1338 -0.8166 -0.7998
 4530TIP3    H235082   0.511   1.445   5.118 -0.3974 -1.5877 -0.1015
 4531TIP3   OH235083   4.882   6.284  13.694 -0.3403  0.5319 -0.8097
 4531TIP3    H135084   4.907   6.201  13.654 -1.6647 -0.1046 -0.3689
 4531TIP3    H235085   4.964   6.318  13.732  0.3898 -0.1111 -1.7625
 4532TIP3   OH235086   2.015   2.007  16.707  0.4427  0.4684 -0.4336
 4532TIP3    H135087   1.934   2.045  16.741 -0.4245 -1.1685 -0.5512
 4532TIP3    H235088   2.057   1.967  16.783  0.1255 -0.4018 -0.7058
 4533TIP3   OH235089   4.541   5.051   5.784  0.1890  0.5216 -0.2027
 4533TIP3    H135090   4.511   4.986   5.847 -2.5601  1.4065 -0.4506
 4533TIP3    H235091   4.461   5.085   5.745  1.7035  0.7281 -3.4907
 4534TIP3   OH235092   1.537   3.141   3.474  0.4933 -0.0199 -0.3690
 4534TIP3    H135093   1.615   3.186   3.444  0.1503  0.7465 -0.1419
 4534TIP3    H235094   1.531   3.062   3.420  0.7885  0.4980 -1.1577
 4535TIP3   OH235095   3.393   1.507   3.917  0.2872 -0.3045 -0.1653
 4535TIP3    H135096   3.413   1.440   3.981 -0.1979 -0.1016  0.2057
 4535TIP3    H235097   3.325   1.468   3.862  1.1968 -0.7466 -1.0137
 4536TIP3   OH235098   4.695   5.000   4.007 -0.1844 -0.0280  0.0753
 4536TIP3    H135099   4.714   4.982   4.099  2.3160  2.3174  0.1547
 4536TIP3    H235100   4.611   4.958   3.991 -0.2187 -1.3879  3.1248
 4537TIP3   OH235101   2.039   1.569  13.483  0.1507 -0.4189  0.4909
 4537TIP3    H135102   1.985   1.623  13.541  0.5350 -0.4558  0.8788
 4537TIP3    H235103   2.077   1.631  13.421 -0.9839 -0.4842 -0.3061
 4538TIP3   OH235104   6.013   4.874   3.478  0.2388 -0.0263 -0.2072
 4538TIP3    H135105   5.969   4.794   3.508  0.1041  0.0519 -0.1952
 4538TIP3    H235106   5.964   4.945   3.520 -0.5121  0.1273 -1.3067
 4539TIP3   OH235107   2.127   3.536   1.952 -0.0833  0.1777  0.1913
 4539TIP3    H135108   2.067   3.610   1.963 -2.8473 -1.6380 -1.5437
 4539TIP3    H235109   2.114   3.482   2.029  0.5369  0.5287  0.5537
 4540TIP3   OH235110   2.210   5.804  10.229 -0.1123 -0.0309  0.4414
 4540TIP3    H135111   2.173   5.725  10.269  1.1740 -0.1847  1.4023
 4540TIP3    H235112   2.297   5.776  10.200 -0.9200  0.1025 -2.4306
 4541TIP3   OH235113   5.473   6.043   2.234  0.2612 -0.0849  0.1656
 4541TIP3    H135114   5.526   6.003   2.303  0.0357  0.1806  0.4963
 4541TIP3    H235115   5.520   6.022   2.153  1.5952  1.2510  0.5400
 4542TIP3   OH235116   2.383   4.783  12.692 -0.1618  0.4422 -0.1726
 4542TIP3    H135117   2.347   4.832  12.766 -1.1282  1.2205 -1.1238
 4542TIP3    H235118   2.351   4.693  12.705  1.0154  0.1852  1.1883
 4543TIP3   OH235119   5.624   2.112   3.699 -0.4821 -0.3519 -0.4248
 4543TIP3    H135120   5.601   2.069   3.781 -0.3400  0.6689  0.1679
 4543TIP3    H235121   5.641   2.040   3.638  2.1722 -1.2418  1.1850
 4544TIP3   OH235122   4.700   5.069   4.749  0.9354  0.1873  0.3660
 4544TIP3    H135123   4.644   5.109   4.815  0.9158  0.2874  0.2905
 4544TIP3    H235124   4.769   5.134   4.735 -0.1350  1.0734 -1.1536
 4545TIP3   OH235125   1.734   1.459  11.391 -0.0508 -0.5077 -0.3674
 4545TIP3    H135126   1.666   1.524  11.373  0.8438  0.5259 -0.0857
 4545TIP3    H235127   1.812   1.510  11.411  0.6108 -1.6680  0.1377
 4546TIP3   OH235128   1.101   0.523   5.933  0.2380  0.1219  0.0098
 4546TIP3    H135129   1.061   0.590   5.988  0.4804  1.8592 -1.8235
 4546TIP3    H235130   1.036   0.504   5.866  0.8463 -0.2076 -0.4976
 4547TIP3   OH235131   0.285   1.373   3.049 -0.3340  0.2476  0.0879
 4547TIP3    H135132   0.356   1.320   3.087 -0.3442 -0.0832 -0.3477
 4547TIP3    H235133   0.318   1.403   2.965 -0.5667  0.4127  0.0521
 4548TIP3   OH235134   0.512   5.088  16.766 -0.1406 -0.0068 -0.4974
 4548TIP3    H135135   0.504   5.175  16.727 -1.1580 -0.5896 -1.6459
 4548TIP3    H235136   0.599   5.058  16.740 -0.1289  0.3173 -0.8458
 4549TIP3   OH235137   2.109   6.788  10.858 -0.3047  0.3471 -0.0666
 4549TIP3    H135138   2.201   6.788  10.831 -0.0208  0.2360  0.8724
 4549TIP3    H235139   2.112   6.793  10.954 -1.2678 -0.4715  0.0174
 4550TIP3   OH235140   5.249   6.641  14.370  0.0530  0.0876  0.1543
 4550TIP3    H135141   5.265   6.692  14.290  0.6891 -2.0561 -1.1719
 4550TIP3    H235142   5.259   6.550  14.343 -1.6932 -0.8207  2.2626
 4551TIP3   OH235143   4.763   1.268   4.320  0.1633 -0.1357 -0.5098
 4551TIP3    H135144   4.675   1.264   4.355 -1.4230  0.6088 -3.9853
 4551TIP3    H235145   4.797   1.353   4.348 -1.9372  1.4703 -2.4911
 4552TIP3   OH235146   1.322   0.342  13.678 -0.3701  0.5118  0.5946
 4552TIP3    H135147   1.291   0.310  13.593  1.8884  2.3083 -1.0022
 4552TIP3    H235148   1.293   0.274  13.740 -1.0852 -1.4620 -1.7163
 4553TIP3   OH235149   4.075   5.236  13.500 -0.4392 -0.8627 -0.1140
 4553TIP3    H135150   4.068   5.172  13.571 -3.1991 -1.1381 -0.5235
 4553TIP3    H235151   4.031   5.314  13.533  1.3598  0.2662 -0.2665
 4554TIP3   OH235152   5.400   6.725  15.155 -0.2576 -0.3102  0.3320
 4554TIP3    H135153   5.472   6.673  15.120  0.9192  0.1853  1.8903
 4554TIP3    H235154   5.386   6.793  15.090  0.8460 -0.2921  0.0884
 4555TIP3   OH235155   1.856   2.796   6.036 -0.4176  0.2133  0.1530
 4555TIP3    H135156   1.893   2.828   5.954 -0.2540  0.7419  0.4274
 4555TIP3    H235157   1.764   2.776   6.015 -0.4635  0.6543 -0.0788
 4556TIP3   OH235158   3.795   1.432   5.019 -0.0811  0.0387 -0.2648
 4556TIP3    H135159   3.741   1.354   5.008 -1.6641  1.2215 -1.3190
 4556TIP3    H235160   3.791   1.450   5.113 -1.6719  0.1619 -0.3265
 4557TIP3   OH235161   4.955   2.012   0.817  0.1962  0.6827 -0.0072
 4557TIP3    H135162   4.934   2.087   0.761 -2.0409  1.6084  1.9092
 4557TIP3    H235163   4.922   2.037   0.903  2.9174 -0.9383  1.6376
 4558TIP3   OH235164   0.343   5.322   3.157  0.6850  0.1122  0.3909
 4558TIP3    H135165   0.412   5.283   3.104 -1.2232 -1.9772 -0.7394
 4558TIP3    H235166   0.338   5.413   3.128  0.2839 -0.7471 -2.5200
 4559TIP3   OH235167   3.583   2.693  12.263 -0.4346  0.5541 -0.0930
 4559TIP3    H135168   3.516   2.628  12.241 -0.7327  0.9871 -0.4873
 4559TIP3    H235169   3.648   2.685  12.194 -0.2482  0.3641  0.1059
 4560TIP3   OH235170   3.807   6.735   3.894 -0.5556  0.1530 -0.0310
 4560TIP3    H135171   3.812   6.729   3.798  0.0187 -1.1518  0.0530
 4560TIP3    H235172   3.838   6.824   3.914 -0.8169  0.4884 -1.0576
 4561TIP3   OH235173   6.305   3.379   1.413 -0.1076  0.2248 -0.0399
 4561TIP3    H135174   6.327   3.446   1.348 -0.1879  0.0461 -0.2502
 4561TIP3    H235175   6.352   3.406   1.492  0.8205 -0.1027 -0.4601
 4562TIP3   OH235176   4.007   6.320  15.980 -1.0410  0.3838 -0.6228
 4562TIP3    H135177   3.993   6.314  16.075 -0.0572 -2.4534 -0.5721
 4562TIP3    H235178   3.920   6.340  15.945 -1.9319 -0.8087  0.7472
 4563TIP3   OH235179   0.750   4.206  16.109  0.2731  0.5822 -0.0219
 4563TIP3    H135180   0.785   4.128  16.154 -1.2688  0.9989  2.0635
 4563TIP3    H235181   0.677   4.172  16.057  1.4945  0.2317 -1.5634
 4564TIP3   OH235182   1.870   4.511  11.914 -0.1541 -0.6971 -0.1578
 4564TIP3    H135183   1.959   4.486  11.890  0.3213  0.2840  0.5210
 4564TIP3    H235184   1.827   4.428  11.936  1.0897 -1.0590  1.1146
 4565TIP3   OH235185   4.090   5.822   4.277  0.1972 -0.2944  0.2946
 4565TIP3    H135186   4.085   5.748   4.338  3.8719 -1.2876 -0.3418
 4565TIP3    H235187   4.181   5.850   4.281 -0.3615  2.2333 -1.8169
 4566TIP3   OH235188   3.166   4.743  11.928 -0.1257  0.1301  0.1013
 4566TIP3    H135189   3.092   4.686  11.949 -0.1979  0.3429  0.4423
 4566TIP3    H235190   3.135   4.831  11.950  0.4225  0.1574  0.7891
 4567TIP3   OH235191   2.331   2.756   0.435  0.4441  0.3972 -0.1613
 4567TIP3    H135192   2.301   2.826   0.377 -0.6198  0.6448  0.6619
 4567TIP3    H235193   2.251   2.712   0.464  1.0969 -2.0180 -1.6522
 4568TIP3   OH235194   1.021   5.624  11.625  0.7292 -0.0303  0.0367
 4568TIP3    H135195   1.066   5.584  11.699  1.0833 -0.7539 -0.5500
 4568TIP3    H235196   1.085   5.623  11.554  0.6994  1.4811 -0.0392
 4569TIP3   OH235197   3.242   5.231  10.974 -0.2585 -0.0432 -0.8370
 4569TIP3    H135198   3.231   5.149  10.926 -1.7525  0.9895 -2.3818
 4569TIP3    H235199   3.167   5.233  11.034 -1.7055  1.2740 -2.5761
 4570TIP3   OH235200   0.161   1.269   0.805  0.0864 -0.2015 -0.0673
 4570TIP3    H135201   0.176   1.364   0.809 -2.0700  0.1315  1.6482
 4570TIP3    H235202   0.176   1.247   0.713 -2.5074  2.4390 -1.2764
 4571TIP3   OH235203   1.003   1.352  16.293  0.4242  0.3209  0.1934
 4571TIP3    H135204   1.090   1.313  16.281  0.4613  0.1233  1.0464
 4571TIP3    H235205   1.008   1.395  16.379  0.5442  2.6355 -0.8972
 4572TIP3   OH235206   5.223   4.817  16.845 -0.3712 -0.4163 -0.2486
 4572TIP3    H135207   5.182   4.788  16.764  0.2858  0.4532 -0.9160
 4572TIP3    H235208   5.286   4.884  16.817  0.4612 -0.7015  0.8939
 4573TIP3   OH235209   5.958   4.630  15.907 -0.2099  0.6094 -0.3406
 4573TIP3    H135210   6.045   4.670  15.905 -0.3008  0.7999 -0.8432
 4573TIP3    H235211   5.938   4.620  16.000  0.4410  0.3503 -0.2230
 4574TIP3   OH235212   3.550   1.339   3.581 -0.1290  0.3584 -0.0569
 4574TIP3    H135213   3.486   1.289   3.631 -0.4086  0.5205 -0.2491
 4574TIP3    H235214   3.501   1.376   3.508  0.1505  0.6103 -0.1235
 4575TIP3   OH235215   6.196   5.316   5.261 -0.1787 -0.1784  0.3617
 4575TIP3    H135216   6.265   5.250   5.276 -0.4354 -0.2055  1.5550
 4575TIP3    H235217   6.115   5.270   5.283 -0.5053  0.1049 -0.2394
 4576TIP3   OH235218   0.391   5.831  12.533  0.2789  0.2604 -0.3215
 4576TIP3    H135219   0.339   5.837  12.452  1.8183 -0.7905 -1.4307
 4576TIP3    H235220   0.471   5.879  12.514  1.2236 -1.0977  0.0913
 4577TIP3   OH235221   5.962   5.184   2.162  0.2009 -0.3115  0.3533
 4577TIP3    H135222   6.022   5.110   2.150  2.0860  1.0796  0.8674
 4577TIP3    H235223   5.941   5.184   2.255  0.2341 -0.1647  0.3608
 4578TIP3   OH235224   6.090   4.889  13.165  0.5664  0.2298  0.5153
 4578TIP3    H135225   6.180   4.893  13.197  1.4622 -3.2086 -1.1584
 4578TIP3    H235226   6.097   4.911  13.072 -0.2055 -0.7667  0.2174
 4579TIP3   OH235227   5.634   1.767   2.676  0.3346  0.7050  0.2177
 4579TIP3    H135228   5.543   1.797   2.677 -0.2373 -0.7536  3.0959
 4579TIP3    H235229   5.628   1.673   2.659  1.5839  1.0128 -2.3060
 4580TIP3   OH235230   2.976   0.330  14.434 -0.1464  0.0127 -0.4159
 4580TIP3    H135231   2.961   0.267  14.364 -0.1959  0.1512 -0.5312
 4580TIP3    H235232   2.897   0.324  14.488 -1.1307  1.4618 -1.5820
 4581TIP3   OH235233   4.004   1.054   5.006 -0.5509  0.2295 -0.2956
 4581TIP3    H135234   4.015   0.981   5.067  1.7981  0.4105 -0.3876
 4581TIP3    H235235   3.979   1.128   5.060 -0.5228 -0.0874  0.1548
 4582TIP3   OH235236   5.685   5.793  15.208 -0.5899  0.2808  0.3510
 4582TIP3    H135237   5.778   5.776  15.194 -0.5599  0.1639  0.6887
 4582TIP3    H235238   5.683   5.873  15.261 -0.6897  0.4260  0.1306
 4583TIP3   OH235239   3.382   5.190   5.216  0.0500 -0.0004 -0.3237
 4583TIP3    H135240   3.334   5.221   5.139 -0.4948  1.1570  0.4581
 4583TIP3    H235241   3.473   5.217   5.200 -0.0806  0.3357 -0.5109
 4584TIP3   OH235242   0.074   4.798  14.930 -0.1206 -0.2179  0.1148
 4584TIP3    H135243   0.053   4.845  14.849  0.5071 -2.0212 -1.1571
 4584TIP3    H235244   0.005   4.733  14.939 -0.0672 -0.1752  0.9396
 4585TIP3   OH235245   6.763   0.250  16.598 -0.1298 -0.4270  0.4080
 4585TIP3    H135246   6.835   0.248  16.534 -1.3378  0.1931 -1.0394
 4585TIP3    H235247   6.772   0.168  16.647  1.9957 -0.0160  0.7953
 4586TIP3   OH235248   5.648   4.155   1.725 -0.1865 -0.5302 -0.0981
 4586TIP3    H135249   5.659   4.234   1.672  0.0423 -0.5330 -0.0537
 4586TIP3    H235250   5.594   4.184   1.799  2.6219  0.4202  1.7232
 4587TIP3   OH235251   4.797   1.173  16.857 -0.4334  1.0305 -0.9052
 4587TIP3    H135252   4.855   1.216  16.919 -0.6205 -0.1308  0.1173
 4587TIP3    H235253   4.712   1.171  16.901 -0.3396 -0.7256 -0.7075
 4588TIP3   OH235254   3.749   3.296   1.542 -0.6438 -0.5334  0.2247
 4588TIP3    H135255   3.686   3.363   1.568  0.1068 -0.2248  1.2917
 4588TIP3    H235256   3.747   3.232   1.614  0.8426 -0.1071  0.6722
 4589TIP3   OH235257   1.768   6.738   0.018  0.1758 -0.3772  0.4287
 4589TIP3    H135258   1.674   6.742   0.000  0.4501 -1.0308 -1.3392
 4589TIP3    H235259   1.794   6.651  -0.010  1.0333 -0.8716  2.5617
 4590TIP3   OH235260   2.482   1.943  12.390 -0.2262  0.3638  0.1403
 4590TIP3    H135261   2.525   2.011  12.443  0.1666  0.7830 -0.6932
 4590TIP3    H235262   2.418   1.904  12.449 -0.3019  1.3137  0.7123
 4591TIP3   OH235263   2.736   6.046  11.174  0.1721  0.1641  0.1555
 4591TIP3    H135264   2.825   6.066  11.201 -0.1534 -0.6605  2.0354
 4591TIP3    H235265   2.716   6.110  11.106  0.9693  2.7470  2.1927
 4592TIP3   OH235266   1.064   2.158  10.724  0.7181  0.3047 -0.2862
 4592TIP3    H135267   0.991   2.096  10.723  1.4898 -0.6327  0.3444
 4592TIP3    H235268   1.130   2.120  10.667  1.5144  0.1396  0.7197
 4593TIP3   OH235269   3.250   1.626  13.463 -0.2885  0.4425  0.2859
 4593TIP3    H135270   3.211   1.712  13.448  2.1413  1.9779  2.0333
 4593TIP3    H235271   3.212   1.596  13.545  1.5476  1.6750  1.6810
 4594TIP3   OH235272   3.227   3.588   4.385  0.3644  0.4917  0.3431
 4594TIP3    H135273   3.180   3.669   4.363 -0.1315 -0.4397 -2.2790
 4594TIP3    H235274   3.317   3.605   4.359 -0.2230 -0.6130 -2.8689
 4595TIP3   OH235275   5.355   5.466  14.557  0.0303  0.1325 -0.3272
 4595TIP3    H135276   5.329   5.374  14.563  1.6476 -0.6084 -3.1234
 4595TIP3    H235277   5.289   5.506  14.500 -1.2638  1.0494  1.7004
 4596TIP3   OH235278   6.582   1.732  14.070  0.3473 -0.1241 -0.0031
 4596TIP3    H135279   6.498   1.777  14.076 -0.0802 -0.7097 -1.2770
 4596TIP3    H235280   6.633   1.787  14.010  0.9898  0.3638  0.9548
 4597TIP3   OH235281   5.447   3.021   4.624 -0.3580  0.0911  0.0989
 4597TIP3    H135282   5.493   2.999   4.543 -1.0233  0.5519 -0.4230
 4597TIP3    H235283   5.469   2.951   4.685  3.7728  1.9582  1.0507
 4598TIP3   OH235284   5.380   6.050   0.634  0.4839 -0.2676 -0.3024
 4598TIP3    H135285   5.442   6.094   0.692  1.0696 -1.3992 -0.0379
 4598TIP3    H235286   5.432   5.981   0.592 -0.7202 -1.6382  0.3847
 4599TIP3   OH235287   3.754   2.126   2.158 -0.1489  0.0623  0.6397
 4599TIP3    H135288   3.721   2.216   2.156  1.4625  0.6767  0.7467
 4599TIP3    H235289   3.761   2.101   2.066 -0.4722  0.0800  0.6076
 4600TIP3   OH235290   0.054   0.397   3.154 -1.0324  0.5022  0.0529
 4600TIP3    H135291   0.033   0.305   3.171 -0.3027  0.5628  1.4716
 4600TIP3    H235292   0.088   0.398   3.065 -0.9167 -0.6326  0.0662
 4601TIP3   OH235293   4.961   0.551  14.238 -0.3429 -0.0872  0.0020
 4601TIP3    H135294   5.045   0.555  14.191 -0.3230  0.2102  0.0594
 4601TIP3    H235295   4.980   0.499  14.316 -0.0931  0.3710  0.2512
 4602TIP3   OH235296   3.991   3.222  12.266 -0.0341 -0.5142  1.1235
 4602TIP3    H135297   4.043   3.298  12.240 -2.3837  1.0023  0.5217
 4602TIP3    H235298   3.947   3.249  12.347 -0.9231 -1.1966  0.8947
 4603TIP3   OH235299   6.053   6.060  13.961 -0.0925  0.0005 -0.6302
 4603TIP3    H135300   6.042   6.024  14.049 -1.3198  1.8791  0.0470
 4603TIP3    H235301   5.983   6.019  13.909  0.3005 -0.7069 -0.6112
 4604TIP3   OH235302   2.351   0.312   2.010 -0.6901  0.1539 -0.6877
 4604TIP3    H135303   2.295   0.356   2.074 -1.1280  0.3142 -1.1765
 4604TIP3    H235304   2.360   0.376   1.939  0.4947  0.3187 -0.4097
 4605TIP3   OH235305   1.025   6.293   3.756 -0.2485  0.1526  0.7062
 4605TIP3    H135306   1.104   6.347   3.762 -0.1739 -0.0947  3.0690
 4605TIP3    H235307   1.056   6.203   3.766 -0.7502 -0.0040  0.9002
 4606TIP3   OH235308   1.775   2.506   3.671 -0.0194  0.2317 -0.0927
 4606TIP3    H135309   1.739   2.527   3.585 -0.3008 -0.0124 -0.0363
 4606TIP3    H235310   1.703   2.462   3.717  0.4402 -0.5091 -0.0769
 4607TIP3   OH235311   2.985   0.944  15.970  0.7044 -0.6038 -0.1469
 4607TIP3    H135312   3.011   0.859  15.936  1.9994 -0.1190 -0.4186
 4607TIP3    H235313   2.957   0.927  16.060  1.6708 -1.2059  0.0537
 4608TIP3   OH235314   0.796   3.448   1.733  0.7936  0.0132  0.1711
 4608TIP3    H135315   0.848   3.398   1.669 -0.0133 -0.2865 -0.2713
 4608TIP3    H235316   0.853   3.519   1.760  1.0911  0.2570 -1.0451
 4609TIP3   OH235317   4.654   5.079  14.345 -0.3042  0.3856 -0.0394
 4609TIP3    H135318   4.744   5.047  14.352 -0.2188  0.9360  1.8343
 4609TIP3    H235319   4.662   5.163  14.299 -0.0601 -0.2665 -1.2223
 4610TIP3   OH235320   3.995   0.590  12.311 -0.5293 -0.2380  0.4625
 4610TIP3    H135321   4.050   0.659  12.348 -0.1895 -0.7894  0.9948
 4610TIP3    H235322   3.955   0.548  12.386  3.0686 -3.8680  0.7095
 4611TIP3   OH235323   2.801   5.412   5.879 -0.2688  0.5805  0.1911
 4611TIP3    H135324   2.789   5.428   5.973  0.9885  0.1957  0.4419
 4611TIP3    H235325   2.742   5.475   5.837  0.1522  1.7293  1.2249
 4612TIP3   OH235326   4.368   3.095  17.170 -0.2205  0.1208 -0.0553
 4612TIP3    H135327   4.337   3.050  17.249  1.6815 -1.2176  0.0107
 4612TIP3    H235328   4.359   3.029  17.101  1.5032 -0.0152 -0.1969
 4613TIP3   OH235329   3.094   1.324  15.696  0.2154 -0.0971 -0.0729
 4613TIP3    H135330   3.021   1.335  15.635 -0.0914  0.8731  0.4494
 4613TIP3    H235331   3.157   1.392  15.670  0.3351 -0.0514  0.3314
 4614TIP3   OH235332   0.100   1.755   5.453 -0.0149  0.4934  0.3335
 4614TIP3    H135333   0.053   1.838   5.453 -4.1443 -1.5133 -1.8438
 4614TIP3    H235334   0.066   1.707   5.528 -2.0616 -1.1517 -1.5037
 4615TIP3   OH235335   3.790   5.763   3.533  0.0951  0.6270  0.5547
 4615TIP3    H135336   3.698   5.756   3.509  0.4739 -1.3633 -0.4995
 4615TIP3    H235337   3.791   5.824   3.607 -2.0409  0.7408  0.5383
 4616TIP3   OH235338   6.831   0.909   5.867  0.3369  0.3731 -0.4596
 4616TIP3    H135339   6.900   0.945   5.923  0.3181 -0.4140  0.1003
 4616TIP3    H235340   6.821   0.972   5.796  1.0497  0.9094 -0.0933
 4617TIP3   OH235341   2.996   5.698   4.252 -0.6774  0.1405  0.1891
 4617TIP3    H135342   3.042   5.778   4.228 -0.3166 -0.0880  0.0939
 4617TIP3    H235343   3.052   5.628   4.217 -1.4412 -0.1260 -0.5264
 4618TIP3   OH235344   2.546   6.389  12.646 -0.0676 -0.2698 -0.0013
 4618TIP3    H135345   2.568   6.425  12.732  0.2413  1.5289 -0.7901
 4618TIP3    H235346   2.584   6.301  12.647  3.2567  1.0182  0.3893
 4619TIP3   OH235347   5.224   6.441  16.601 -0.0043 -0.1783  0.1486
 4619TIP3    H135348   5.137   6.404  16.612 -0.4696 -0.3065 -3.0678
 4619TIP3    H235349   5.265   6.387  16.534  0.9803  2.2954 -1.3691
 4620TIP3   OH235350   2.794   1.082   5.282  0.3976  0.0597  0.1656
 4620TIP3    H135351   2.829   1.160   5.326  2.5653 -0.2511 -0.8869
 4620TIP3    H235352   2.870   1.041   5.241 -0.6385 -2.6954  0.7630
 4621TIP3   OH235353   6.234   3.708  11.928 -0.1995 -0.0377 -0.2873
 4621TIP3    H135354   6.177   3.714  11.852  1.6676 -1.3610 -1.8801
 4621TIP3    H235355   6.314   3.667  11.896  1.3738  0.9862  2.0145
 4622TIP3   OH235356   0.577   4.155   1.036  0.1699 -0.5152 -0.0896
 4622TIP3    H135357   0.672   4.144   1.031  0.1934 -0.2544 -0.2296
 4622TIP3    H235358   0.547   4.083   1.091  0.7579  0.8751  2.2236
 4623TIP3   OH235359   0.058   5.183  14.847  0.0237  0.0294  0.2528
 4623TIP3    H135360  -0.002   5.257  14.853 -0.3140 -0.1882 -0.3173
 4623TIP3    H235361   0.024   5.131  14.774 -0.1362 -1.0444  1.0816
 4624TIP3   OH235362   1.477   3.752   3.074  0.0054 -0.0915  0.1960
 4624TIP3    H135363   1.475   3.832   3.022  0.8802  0.3606  0.8267
 4624TIP3    H235364   1.419   3.771   3.148 -2.0026 -1.0802 -1.0420
 4625TIP3   OH235365   5.254   2.683  16.334 -0.5461 -0.6333 -0.6484
 4625TIP3    H135366   5.280   2.683  16.242  0.3333  0.5160 -0.4228
 4625TIP3    H235367   5.336   2.690  16.382 -1.0755  0.1475  0.1764
 4626TIP3   OH235368   5.900   2.534  13.951 -0.6492 -0.5057  0.4621
 4626TIP3    H135369   5.844   2.585  14.008 -2.3413 -1.6202 -0.1266
 4626TIP3    H235370   5.883   2.443  13.975 -1.1430 -0.9920 -1.5029
 4627TIP3   OH235371   3.116   1.267  11.179  0.2590  0.2933 -0.1220
 4627TIP3    H135372   3.057   1.216  11.235  1.7224  0.3226  1.5089
 4627TIP3    H235373   3.069   1.275  11.096 -0.4984 -2.7861 -0.1010
 4628TIP3   OH235374   0.071   0.813   2.647 -0.0214 -0.1568  0.5583
 4628TIP3    H135375   0.040   0.844   2.561 -0.1809 -2.6121 -0.3479
 4628TIP3    H235376   0.157   0.854   2.657 -0.7705  1.6296  0.1236
 4629TIP3   OH235377   5.831   2.660   3.097  0.5911  0.1471  0.0073
 4629TIP3    H135378   5.764   2.593   3.085  0.5926  0.1753 -0.1651
 4629TIP3    H235379   5.812   2.726   3.030  1.1653 -0.1470 -0.4518
 4630TIP3   OH235380   5.422   3.535  13.668  0.6432 -0.0315 -0.0201
 4630TIP3    H135381   5.470   3.468  13.717  0.7530  0.7712  0.9991
 4630TIP3    H235382   5.340   3.491  13.643 -0.8131  0.3115  3.4835
 4631TIP3   OH235383   2.130   2.439   3.609  0.7356  0.0367  0.0431
 4631TIP3    H135384   2.163   2.417   3.522 -0.0693  0.4355 -0.3660
 4631TIP3    H235385   2.183   2.385   3.668 -1.3322 -3.3559 -0.9194
 4632TIP3   OH235386   1.799   3.068  10.703 -0.7333 -0.5567  0.0229
 4632TIP3    H135387   1.825   3.147  10.655 -1.7317  1.1056  2.0550
 4632TIP3    H235388   1.818   2.996  10.643  0.1217  1.2208 -1.9642
 4633TIP3   OH235389   1.523   4.140   4.752 -0.2762  0.5615 -0.1388
 4633TIP3    H135390   1.545   4.229   4.777  0.2772  0.7023 -1.0641
 4633TIP3    H235391   1.539   4.137   4.658  1.1427 -0.8994  0.0999
 4634TIP3   OH235392   1.287   4.318  14.155  0.3494  0.1609  0.5750
 4634TIP3    H135393   1.321   4.317  14.065 -1.0235 -0.7033  0.0278
 4634TIP3    H235394   1.312   4.232  14.190 -3.4318 -1.7191 -0.7835
 4635TIP3   OH235395   1.466   6.804  14.085 -0.6795 -0.2201  0.5977
 4635TIP3    H135396   1.386   6.836  14.127 -1.4995 -0.0959 -0.9921
 4635TIP3    H235397   1.506   6.747  14.151 -0.8788  1.4629  2.2664
 4636TIP3   OH235398   2.029   5.486   5.481  0.0648  0.1738  0.6350
 4636TIP3    H135399   2.105   5.429   5.470 -0.2876 -0.1554 -0.2102
 4636TIP3    H235400   1.959   5.442   5.433 -0.0805  1.5797 -0.5222
 4637TIP3   OH235401   5.054   5.344  16.839  0.0788  0.0642  0.0636
 4637TIP3    H135402   5.014   5.362  16.924  0.8572 -1.5486  0.8157
 4637TIP3    H235403   4.990   5.375  16.775 -1.8340 -1.3302  1.2190
 4638TIP3   OH235404   1.394   2.854  15.792  0.2691 -0.2888 -0.0473
 4638TIP3    H135405   1.386   2.909  15.713  0.5080  1.1528  0.9006
 4638TIP3    H235406   1.450   2.905  15.851  0.4495 -1.5488  0.8941
 4639TIP3   OH235407   1.880   0.515   2.431 -0.1091 -0.5446  0.0284
 4639TIP3    H135408   1.834   0.556   2.504 -0.8118 -0.6481 -0.3470
 4639TIP3    H235409   1.932   0.445   2.471  0.1338 -0.0940  0.5179
 4640TIP3   OH235410   4.042   6.304  17.055 -0.1095  0.1656 -0.2938
 4640TIP3    H135411   4.009   6.214  17.062  0.7598 -0.2633 -1.2949
 4640TIP3    H235412   3.965   6.359  17.070 -0.9017 -0.7677 -0.7867
 4641TIP3   OH235413   2.962   3.175  15.968 -0.0460  0.2756 -0.1856
 4641TIP3    H135414   3.049   3.135  15.979 -0.3851 -0.2676  0.6529
 4641TIP3    H235415   2.910   3.137  16.039 -1.1411  0.1322 -1.0487
 4642TIP3   OH235416   6.715   4.467  11.605 -0.5807  0.0446 -0.6630
 4642TIP3    H135417   6.716   4.532  11.535  0.6178  0.1632 -0.5537
 4642TIP3    H235418   6.806   4.462  11.635 -0.3241 -2.6991 -1.6097
 4643TIP3   OH235419   5.782   2.565  12.445 -0.6882  0.4253 -0.0315
 4643TIP3    H135420   5.772   2.476  12.481 -0.4547  0.3614 -0.1207
 4643TIP3    H235421   5.734   2.563  12.363 -1.7087  0.7369  0.5366
 4644TIP3   OH235422   1.925   4.117   3.690  0.2457 -0.1652 -0.2112
 4644TIP3    H135423   2.017   4.144   3.689  0.2861 -0.2900  0.0053
 4644TIP3    H235424   1.921   4.049   3.757  0.0152 -0.2321 -0.2933
 4645TIP3   OH235425   2.685   1.603  13.956 -0.7354  0.0563  0.0554
 4645TIP3    H135426   2.674   1.511  13.982 -2.2054 -0.0517 -0.8365
 4645TIP3    H235427   2.780   1.614  13.947 -0.2402 -0.4837  3.2278
 4646TIP3   OH235428   6.805   3.032  15.677  0.2142  0.0639  0.1410
 4646TIP3    H135429   6.764   3.095  15.737 -0.8253 -1.2950  0.9188
 4646TIP3    H235430   6.898   3.055  15.679 -0.0188  1.0484  1.0532
 4647TIP3   OH235431   5.601   6.481  14.460  0.2347  0.7065  0.4091
 4647TIP3    H135432   5.574   6.561  14.504  2.0372  1.2780  0.5503
 4647TIP3    H235433   5.683   6.456  14.502 -0.8415 -1.8966  1.1850
 4648TIP3   OH235434   3.750   2.240  15.102 -0.5549 -0.3050 -0.0430
 4648TIP3    H135435   3.790   2.179  15.163 -1.1613 -1.1754 -0.4862
 4648TIP3    H235436   3.785   2.215  15.016 -0.9578 -0.1561 -0.2557
 4649TIP3   OH235437   5.587   4.716  15.155  0.8668  0.2049 -0.3635
 4649TIP3    H135438   5.526   4.785  15.131  2.4119  2.5701  1.8951
 4649TIP3    H235439   5.544   4.669  15.227 -0.4464 -1.7163 -2.3034
 4650TIP3   OH235440   5.623   4.599  12.829  0.4532 -0.4444  0.5697
 4650TIP3    H135441   5.548   4.542  12.845 -0.2794  1.0442  2.8547
 4650TIP3    H235442   5.675   4.595  12.909  1.3931  0.6278  0.0517
 4651TIP3   OH235443   0.832   5.781   4.310 -0.5807  0.2032  0.1504
 4651TIP3    H135444   0.781   5.718   4.360 -1.1013  1.6210  1.4648
 4651TIP3    H235445   0.921   5.773   4.345 -0.4818 -0.2961 -0.2000
 4652TIP3   OH235446   2.894   2.051   1.884 -0.4957  0.1142  0.0748
 4652TIP3    H135447   2.930   2.132   1.922 -1.5152 -0.0896  1.5624
 4652TIP3    H235448   2.800   2.058   1.898 -0.6854 -0.9147 -0.6211
 4653TIP3   OH235449   6.257   2.833   0.594  0.3877 -0.0439 -0.2645
 4653TIP3    H135450   6.191   2.893   0.559  1.1268  0.7970 -0.2482
 4653TIP3    H235451   6.210   2.781   0.659 -0.3842  0.1567 -0.6496
 4654TIP3   OH235452   5.190   0.859  17.191  0.2655 -0.3177 -0.0729
 4654TIP3    H135453   5.214   0.823  17.106  1.1506  1.5059 -0.6564
 4654TIP3    H235454   5.230   0.800  17.255  0.9980 -0.8063 -0.9638
 4655TIP3   OH235455   4.553   1.392   0.693 -0.0651 -0.1175 -0.1581
 4655TIP3    H135456   4.593   1.350   0.769  0.5311  2.1003  0.8185
 4655TIP3    H235457   4.469   1.425   0.725 -0.5238 -0.5021 -0.9136
 4656TIP3   OH235458   0.832   2.144   0.986  0.0621  0.1904 -0.4297
 4656TIP3    H135459   0.802   2.234   0.999 -1.9277 -0.2279 -1.5921
 4656TIP3    H235460   0.885   2.124   1.063 -2.0183  1.3577  1.4323
 4657TIP3   OH235461   2.118   2.829   4.744  0.5540  0.3415  0.0865
 4657TIP3    H135462   2.188   2.863   4.800  0.4963  0.5093  0.0566
 4657TIP3    H235463   2.143   2.855   4.655  1.8015 -1.8194 -0.2730
 4658TIP3   OH235464   5.798   0.615  10.761 -1.0446 -0.6319 -0.4194
 4658TIP3    H135465   5.762   0.656  10.683 -1.6474  2.5670  1.3596
 4658TIP3    H235466   5.893   0.623  10.750 -1.0945  2.4562  0.2485
 4659TIP3   OH235467   4.809   0.729  16.102 -0.8136 -0.4714 -0.6196
 4659TIP3    H135468   4.866   0.794  16.063 -1.8404  0.1503 -1.1086
 4659TIP3    H235469   4.731   0.728  16.047 -2.4017  0.5851  1.4710
 4660TIP3   OH235470   5.442   4.040   0.852  0.2875 -0.1870 -0.1787
 4660TIP3    H135471   5.533   4.026   0.826  0.4784  2.2859 -1.0746
 4660TIP3    H235472   5.396   4.057   0.770  0.1358  3.8426  0.5299
 4661TIP3   OH235473   6.121   6.628  14.884  0.0170  0.5046  0.5422
 4661TIP3    H135474   6.129   6.597  14.974  1.0319  1.5702  0.8408
 4661TIP3    H235475   6.036   6.671  14.880 -0.1026  0.3053  0.9445
 4662TIP3   OH235476   3.719   6.109   4.332 -0.1906  0.6699  0.3262
 4662TIP3    H135477   3.651   6.078   4.393 -0.7651 -1.2993 -1.1988
 4662TIP3    H235478   3.794   6.129   4.389 -0.4360 -1.8152  1.7071
 4663TIP3   OH235479   2.123   2.495  15.501  0.2109 -0.2152  0.2671
 4663TIP3    H135480   2.202   2.446  15.524  2.1568  2.7284  0.3753
 4663TIP3    H235481   2.093   2.533  15.584 -0.7754 -0.5038  0.0579
 4664TIP3   OH235482   0.543   3.680  15.621  0.1658 -0.0593 -0.2762
 4664TIP3    H135483   0.474   3.746  15.607  0.1216 -0.1537 -0.5125
 4664TIP3    H235484   0.495   3.597  15.628  0.2274 -0.0762 -0.0557
 4665TIP3   OH235485   5.356   3.462   0.128 -1.1374  0.2332 -0.0204
 4665TIP3    H135486   5.283   3.423   0.080 -0.2825 -0.7972 -0.5231
 4665TIP3    H235487   5.327   3.552   0.147 -2.7499 -0.3069  0.2884
 4666TIP3   OH235488   5.840   1.410   6.489  0.2288  0.6200  0.3919
 4666TIP3    H135489   5.809   1.330   6.532 -0.2831  0.1179 -0.8480
 4666TIP3    H235490   5.767   1.472   6.499  0.5025  0.8338  1.0870
 4667TIP3   OH235491   3.230   3.830  11.952 -0.0042  0.6291  0.0500
 4667TIP3    H135492   3.140   3.836  11.921 -0.2483  2.1210  0.9180
 4667TIP3    H235493   3.282   3.816  11.873 -0.7678  2.4844 -0.8527
 4668TIP3   OH235494   2.964   1.136  11.408  0.1449 -0.6975 -0.3309
 4668TIP3    H135495   2.922   1.108  11.489  0.7335 -2.3085 -0.5506
 4668TIP3    H235496   3.028   1.068  11.389  0.4893 -0.0066 -1.8017
 4669TIP3   OH235497   2.528   0.205   1.468 -0.1639  0.4836  0.1505
 4669TIP3    H135498   2.433   0.207   1.479  0.0360 -0.9038  2.9680
 4669TIP3    H235499   2.555   0.297   1.474 -1.2750  0.8445 -0.2072
 4670TIP3   OH235500   1.811   2.293  16.574 -0.5248 -0.7751 -0.0342
 4670TIP3    H135501   1.803   2.384  16.603 -0.8841 -0.5597 -0.7913
 4670TIP3    H235502   1.790   2.296  16.481 -2.0194 -1.8566  0.2406
 4671TIP3   OH235503   6.070   5.968  11.415 -0.1212 -0.4564 -0.2366
 4671TIP3    H135504   6.153   6.015  11.407  0.0094 -0.8887 -1.6613
 4671TIP3    H235505   6.069   5.909  11.340 -1.3988 -0.9672  0.1677
 4672TIP3   OH235506   2.117   6.605   5.280 -0.1477  0.0422  0.0958
 4672TIP3    H135507   2.076   6.528   5.319  0.7597  0.9205  3.0283
 4672TIP3    H235508   2.048   6.672   5.281 -0.8026 -0.4952 -2.0562
 4673TIP3   OH235509   3.679   6.131   2.292  0.0342  0.2110  0.5492
 4673TIP3    H135510   3.613   6.141   2.223  1.5834  1.3616 -0.8415
 4673TIP3    H235511   3.729   6.213   2.288  2.5756 -1.2641  0.4086
 4674TIP3   OH235512   2.290   2.953   0.208 -0.1917  0.2370  0.2943
 4674TIP3    H135513   2.308   2.986   0.120 -0.5540  0.4648  0.3080
 4674TIP3    H235514   2.201   2.982   0.228  0.3081  1.1999  1.2096
 4675TIP3   OH235515   0.249   0.532   1.015 -0.3520 -0.6319  0.0989
 4675TIP3    H135516   0.240   0.453   1.069  0.9326 -0.0105  1.3007
 4675TIP3    H235517   0.280   0.599   1.076 -2.5885  1.1782 -0.6183
 4676TIP3   OH235518   5.800   0.514   4.391 -0.5329 -0.1627 -0.1433
 4676TIP3    H135519   5.708   0.497   4.410 -1.1427 -2.2229 -3.9111
 4676TIP3    H235520   5.826   0.442   4.334  2.2403  2.3946 -2.4388
 4677TIP3   OH235521   1.263   6.753  15.883  0.0893 -0.5261 -0.1545
 4677TIP3    H135522   1.298   6.664  15.878 -1.2633 -1.0370 -1.4386
 4677TIP3    H235523   1.171   6.740  15.906  0.1470  0.6267  0.7844
 4678TIP3   OH235524   1.486   1.651   0.003 -0.7971 -0.0048 -0.2594
 4678TIP3    H135525   1.446   1.708   0.069 -0.2454 -1.0527  1.0398
 4678TIP3    H235526   1.580   1.667   0.012 -0.7047 -0.3478 -0.6211
 4679TIP3   OH235527   6.568   3.313  17.153  1.0292  0.4106 -0.4552
 4679TIP3    H135528   6.573   3.378  17.222  3.6682  0.4821 -0.6160
 4679TIP3    H235529   6.513   3.244  17.189 -0.4024  1.9215  0.3750
 4680TIP3   OH235530   3.970   0.187   0.333  0.0740  0.5366 -0.3769
 4680TIP3    H135531   3.933   0.105   0.363 -3.1301  1.3386 -1.7627
 4680TIP3    H235532   4.006   0.228   0.412 -0.4163 -1.1108  0.7393
 4681TIP3   OH235533   5.613   3.459   5.398 -0.1752  0.2025 -0.4743
 4681TIP3    H135534   5.668   3.529   5.363 -0.8336  0.7729 -0.3923
 4681TIP3    H235535   5.658   3.378   5.373  0.1727  0.6366 -1.2935
 4682TIP3   OH235536   2.679   4.526  12.614 -0.7750  0.1331 -0.7266
 4682TIP3    H135537   2.691   4.432  12.626  1.3826  0.5355  0.9339
 4682TIP3    H235538   2.650   4.558  12.700 -1.0355  1.0706 -1.1434
 4683TIP3   OH235539   0.285   4.904  16.773 -0.2620 -0.2739  0.3145
 4683TIP3    H135540   0.361   4.955  16.744 -0.5022 -0.2561 -0.2927
 4683TIP3    H235541   0.220   4.916  16.703 -1.8988  2.0219  2.0653
 4684TIP3   OH235542   2.629   2.944   4.964  0.0681 -0.3325  0.3648
 4684TIP3    H135543   2.684   2.919   4.889  0.1930  0.0195  0.3404
 4684TIP3    H235544   2.671   2.901   5.039  1.4224  1.3316  0.6405
 4685TIP3   OH235545   5.616   0.386  12.319  0.1275  0.2776  0.1906
 4685TIP3    H135546   5.660   0.449  12.377 -1.3403  1.3862  0.1590
 4685TIP3    H235547   5.579   0.321  12.378  2.9871 -1.5605  0.1472
 4686TIP3   OH235548   2.811   6.330  11.519 -0.5289 -0.0917  0.0880
 4686TIP3    H135549   2.771   6.246  11.494  0.4450 -1.0611  1.6216
 4686TIP3    H235550   2.805   6.332  11.614 -2.2414  2.5181  0.0235
 4687TIP3   OH235551   4.454   3.398  11.319 -0.3016 -0.3280 -0.4475
 4687TIP3    H135552   4.482   3.452  11.245 -2.2576 -0.4151 -1.3172
 4687TIP3    H235553   4.525   3.334  11.330  0.0569 -0.2845 -2.2312
 4688TIP3   OH235554   6.260   0.068  16.729 -0.2682 -0.5423  0.3133
 4688TIP3    H135555   6.176   0.050  16.686 -1.1781  1.3457  1.1911
 4688TIP3    H235556   6.266   0.163  16.731  3.1506 -0.5707 -1.9995
 4689TIP3   OH235557   0.614   3.685  14.777  0.1519  0.1810  0.2804
 4689TIP3    H135558   0.660   3.666  14.695 -0.4011  0.0168  0.0054
 4689TIP3    H235559   0.684   3.693  14.842  0.7502  1.9834 -0.5166
 4690TIP3   OH235560   6.117   2.039  11.402  0.1790  0.2915 -0.2547
 4690TIP3    H135561   6.029   2.022  11.434  0.6116 -1.1743  0.2432
 4690TIP3    H235562   6.105   2.065  11.311 -0.7304 -0.4557 -0.3603
 4691TIP3   OH235563   4.349   2.334   5.583 -0.1469 -0.6436  0.2549
 4691TIP3    H135564   4.319   2.272   5.650  2.5295 -0.7289  1.5253
 4691TIP3    H235565   4.372   2.280   5.508 -0.6120 -0.8581  0.2654
 4692TIP3   OH235566   0.852   5.994  12.634  0.4793 -0.2970  0.5205
 4692TIP3    H135567   0.905   5.931  12.682  1.8321  0.2853 -0.1492
 4692TIP3    H235568   0.916   6.052  12.592 -0.4825 -1.5430 -3.0658
 4693TIP3   OH235569   5.126   0.801  12.821  0.0246 -0.2144  0.1064
 4693TIP3    H135570   5.152   0.763  12.737  1.5413  1.8618 -0.4388
 4693TIP3    H235571   5.161   0.740  12.886  3.2085  0.5436 -0.7115
 4694TIP3   OH235572   3.592   4.130   1.772 -0.1028 -0.3763  0.4608
 4694TIP3    H135573   3.552   4.213   1.800 -0.2479 -0.2928  0.0185
 4694TIP3    H235574   3.668   4.157   1.720 -1.2209 -0.4647 -1.3005
 4695TIP3   OH235575   5.973   5.382  17.209 -0.1022 -0.9652 -0.0284
 4695TIP3    H135576   5.986   5.396  17.303 -0.7755 -1.6240  0.1718
 4695TIP3    H235577   6.059   5.397  17.170 -0.2488  1.3763  0.4273
 4696TIP3   OH235578   0.119   1.079  17.063 -0.8471  0.0836  0.2548
 4696TIP3    H135579   0.140   1.163  17.023 -2.7363  1.0030  1.0960
 4696TIP3    H235580   0.057   1.038  17.003  1.4408 -1.6179 -1.1018
 4697TIP3   OH235581   0.742   5.376   1.092 -0.2994  0.1059  0.0974
 4697TIP3    H135582   0.733   5.323   1.171 -1.9273 -0.9562 -0.7145
 4697TIP3    H235583   0.711   5.463   1.117 -1.4380 -0.3920  0.4895
 4698TIP3   OH235584   3.919   6.055  12.653  0.3771  0.1088  0.3874
 4698TIP3    H135585   3.870   6.137  12.657 -1.5795 -1.0491  2.3809
 4698TIP3    H235586   4.009   6.081  12.636 -0.3308  2.5926  0.1402
 4699TIP3   OH235587   3.498   5.751  14.502 -0.7176 -0.2562  0.1797
 4699TIP3    H135588   3.489   5.686  14.572  0.4952 -1.1492 -0.4554
 4699TIP3    H235589   3.588   5.739  14.470 -1.8049 -1.2011 -2.8020
 4700TIP3   OH235590   4.753   1.394  16.300 -0.4851  0.0199 -0.0891
 4700TIP3    H135591   4.761   1.369  16.207  1.3485 -0.6083  0.1914
 4700TIP3    H235592   4.708   1.478  16.298  0.5214  0.5730 -1.6507
 4701TIP3   OH235593   3.638   0.312   1.093 -0.4044 -0.2235 -0.6036
 4701TIP3    H135594   3.609   0.399   1.066  0.2110  0.1740 -0.0246
 4701TIP3    H235595   3.647   0.318   1.188  0.2071 -0.7474 -0.6207
 4702TIP3   OH235596   1.820   6.008  13.975  0.1701 -0.2467 -0.3619
 4702TIP3    H135597   1.913   5.988  13.968  0.1260 -1.5906  1.8317
 4702TIP3    H235598   1.784   5.987  13.889  1.7234 -0.7117 -0.9331
 4703TIP3   OH235599   3.896   3.736  14.148  0.2083 -0.0306  0.1001
 4703TIP3    H135600   3.943   3.816  14.170  2.1548 -0.7722 -1.0954
 4703TIP3    H235601   3.834   3.724  14.220  2.2550  0.7291  2.1188
 4704TIP3   OH235602   3.266   1.281   4.666 -0.1709  0.2786 -0.1314
 4704TIP3    H135603   3.340   1.265   4.723  0.5182 -0.2815 -1.1582
 4704TIP3    H235604   3.189   1.254   4.717  0.3226  0.7284  0.8794
 4705TIP3   OH235605   0.338   4.912  12.450 -0.2578  0.1450  0.2853
 4705TIP3    H135606   0.279   4.888  12.379  2.3892 -0.5413 -1.8494
 4705TIP3    H235607   0.357   5.005  12.437 -2.0644  0.8176  1.9940
 4706TIP3   OH235608   2.311   3.078   4.668  0.1616  0.2415 -0.3381
 4706TIP3    H135609   2.305   2.994   4.624 -1.6683 -0.6245  1.4114
 4706TIP3    H235610   2.293   3.059   4.760  1.0378  2.3589  0.3469
 4707TIP3   OH235611   3.427   3.971   3.387  0.3911 -0.1050  0.0045
 4707TIP3    H135612   3.428   3.876   3.399  0.5941 -0.1998 -0.7162
 4707TIP3    H235613   3.516   3.993   3.359  0.4163  0.3325  0.4264
 4708TIP3   OH235614   3.906   3.016  16.602 -0.3586 -0.1636 -0.5065
 4708TIP3    H135615   3.920   2.922  16.588  0.3812 -0.0618 -0.4823
 4708TIP3    H235616   3.872   3.022  16.691  1.5694 -0.2604  0.2833
 4709TIP3   OH235617   3.949   6.619  13.822 -0.2878  0.2048  0.0575
 4709TIP3    H135618   3.902   6.684  13.769  2.4290  2.1408 -0.2200
 4709TIP3    H235619   4.041   6.627  13.794  0.6644 -1.4384  2.3679
 4710TIP3   OH235620   6.495   5.176   2.596 -0.1071 -0.1329  0.4363
 4710TIP3    H135621   6.444   5.163   2.676 -0.6322 -1.2778 -0.0647
 4710TIP3    H235622   6.460   5.257   2.559 -0.8566 -0.3526  0.6413
 4711TIP3   OH235623   4.100   3.648  15.273  0.1544  0.2990  0.0645
 4711TIP3    H135624   4.105   3.553  15.288 -0.4440  0.4940  1.6537
 4711TIP3    H235625   4.078   3.656  15.180 -0.1700 -1.1284 -0.0071
 4712TIP3   OH235626   0.030   3.656   5.061 -0.0678 -0.2423  0.3052
 4712TIP3    H135627  -0.013   3.632   4.979 -0.3290  0.8152  0.1235
 4712TIP3    H235628   0.123   3.664   5.039 -0.2171  0.6531 -0.0417
 4713TIP3   OH235629   5.496   4.317   0.909  0.8660  0.4661  0.2491
 4713TIP3    H135630   5.410   4.331   0.950  0.3386  2.7057 -1.4673
 4713TIP3    H235631   5.491   4.228   0.874 -0.6773  0.4794  0.3547
 4714TIP3   OH235632   4.125   5.135   2.796 -0.2912 -0.4982  0.2320
 4714TIP3    H135633   4.138   5.160   2.705  0.3894 -1.4796  0.0420
 4714TIP3    H235634   4.185   5.061   2.809  0.0501 -0.0063  1.6320
 4715TIP3   OH235635   1.865   2.759   2.133 -0.1861 -0.5866  0.0713
 4715TIP3    H135636   1.894   2.747   2.042  1.0058 -1.4426  0.5314
 4715TIP3    H235637   1.813   2.839   2.131  1.2663  0.3881 -1.0528
 4716TIP3   OH235638   3.694   3.439  14.727 -0.1438 -0.3333  0.2982
 4716TIP3    H135639   3.756   3.366  14.737 -1.2141 -1.1053  1.4954
 4716TIP3    H235640   3.671   3.463  14.816 -1.2222  0.2639 -0.1294
 4717TIP3   OH235641   5.334   6.345  13.203  0.3414 -0.4163  0.1911
 4717TIP3    H135642   5.392   6.419  13.186  2.8694 -2.2354  0.3363
 4717TIP3    H235643   5.292   6.328  13.119  1.5622 -0.2576 -0.4769
 4718TIP3   OH235644   3.644   3.177   3.765  0.2271 -0.1238  0.2073
 4718TIP3    H135645   3.638   3.231   3.844  3.5279 -0.3615  0.7568
 4718TIP3    H235646   3.699   3.104   3.790  0.9080 -0.5125 -2.1869
 4719TIP3   OH235647   3.291   1.073   3.335 -0.2088 -0.2538  0.6401
 4719TIP3    H135648   3.269   1.015   3.262 -0.0309 -0.2337  0.5705
 4719TIP3    H235649   3.377   1.109   3.312  0.0793 -0.6438  1.0989
 4720TIP3   OH235650   4.788   0.200  15.083 -0.1590  0.1657 -0.2979
 4720TIP3    H135651   4.816   0.268  15.022  1.3002 -0.4458 -0.3514
 4720TIP3    H235652   4.767   0.125  15.028 -1.9508  0.5892 -0.2540
 4721TIP3   OH235653   1.517   4.406   1.769 -0.0177  0.5597 -0.5729
 4721TIP3    H135654   1.422   4.411   1.780 -0.0262  0.5286 -0.6295
 4721TIP3    H235655   1.532   4.318   1.735  0.0254  0.5860 -0.6227
 4722TIP3   OH235656   2.297   2.013  13.608  0.0720  0.2443 -0.1792
 4722TIP3    H135657   2.366   2.064  13.566 -0.7397  0.7878 -0.9155
 4722TIP3    H235658   2.227   2.010  13.542 -0.5497 -0.4036  0.4906
 4723TIP3   OH235659   6.363   2.495   2.641  0.3023  0.3709 -0.1418
 4723TIP3    H135660   6.314   2.570   2.674  0.3721 -0.8486  3.0813
 4723TIP3    H235661   6.304   2.420   2.653  1.4542 -0.5548 -0.0306
 4724TIP3   OH235662   2.353   0.805   0.896 -0.2986 -0.0024  0.5478
 4724TIP3    H135663   2.313   0.727   0.859 -0.3805 -0.1894  1.0184
 4724TIP3    H235664   2.397   0.847   0.822 -1.6894  0.4328 -0.0657
 4725TIP3   OH235665   4.679   2.317   1.334  0.0912  0.3024 -0.3656
 4725TIP3    H135666   4.644   2.405   1.324  0.6218  0.6208  0.4737
 4725TIP3    H235667   4.754   2.327   1.393 -0.1320 -0.7689  0.1366
 4726TIP3   OH235668   0.550   0.674   2.434  0.2173 -0.2168  0.1038
 4726TIP3    H135669   0.531   0.618   2.509  0.2934  1.2416  1.2369
 4726TIP3    H235670   0.639   0.704   2.448  0.5893 -0.6786 -1.0929
 4727TIP3   OH235671   1.240   6.359  10.909 -0.0968  0.0202 -0.0909
 4727TIP3    H135672   1.233   6.328  10.819 -0.3673 -2.3484  0.7017
 4727TIP3    H235673   1.178   6.432  10.914 -1.4507 -0.9880 -1.3627
 4728TIP3   OH235674   2.634   1.439   2.747  0.1240  0.3927 -0.0809
 4728TIP3    H135675   2.568   1.458   2.681 -0.2816 -1.1923 -0.1671
 4728TIP3    H235676   2.676   1.523   2.764 -1.1886  1.2202 -0.8048
 4729TIP3   OH235677   6.669   3.367  13.026  0.0772  0.0465  0.2158
 4729TIP3    H135678   6.597   3.340  12.970 -0.7898 -1.0919  1.7993
 4729TIP3    H235679   6.626   3.406  13.102  1.2210  1.5964  0.1173
 4730TIP3   OH235680   1.817   5.848  16.287  0.0667  0.2608  0.3390
 4730TIP3    H135681   1.866   5.787  16.342  0.1070  0.2994  0.3461
 4730TIP3    H235682   1.834   5.934  16.327  1.9005  0.5982 -1.0011
 4731TIP3   OH235683   6.404   1.006  17.055 -0.0062  0.8401  0.3705
 4731TIP3    H135684   6.422   0.913  17.066 -0.7437  0.2382 -2.7653
 4731TIP3    H235685   6.364   1.032  17.138 -1.5254 -2.0806  0.6794
 4732TIP3   OH235686   0.454   1.412  12.938 -0.2631  0.9727 -0.2757
 4732TIP3    H135687   0.505   1.410  12.857 -1.4112  1.1555 -1.0230
 4732TIP3    H235688   0.516   1.386  13.006  0.1577 -1.5438 -1.5163
 4733TIP3   OH235689   3.059   1.437   4.510  0.8579 -0.0476 -0.6025
 4733TIP3    H135690   3.076   1.347   4.535  0.5007  0.1425  0.3423
 4733TIP3    H235691   3.044   1.483   4.592 -2.5191  0.1412 -1.1930
 4734TIP3   OH235692   1.872   6.757  16.853 -0.0459 -0.5815  0.1791
 4734TIP3    H135693   1.800   6.793  16.904  0.2411 -0.2545  0.3620
 4734TIP3    H235694   1.893   6.674  16.896 -0.3327 -0.6930  0.1064
 4735TIP3   OH235695   2.824   1.796   1.340 -0.5390  0.4706 -0.5705
 4735TIP3    H135696   2.899   1.854   1.328 -0.5356  0.0107 -3.6391
 4735TIP3    H235697   2.780   1.829   1.418  0.7826  3.0551 -0.8121
 4736TIP3   OH235698   3.839   0.926  11.695 -0.2599  0.0742  0.3914
 4736TIP3    H135699   3.929   0.902  11.719  0.2382  0.9463 -0.4945
 4736TIP3    H235700   3.788   0.907  11.774  0.4835 -1.5199  0.5417
 4737TIP3   OH235701   1.950   1.135  15.208  0.6036 -0.1916  0.0412
 4737TIP3    H135702   2.014   1.177  15.150  1.5942 -2.2943 -0.4874
 4737TIP3    H235703   1.865   1.157  15.169  1.1873 -0.3721 -1.3939
 4738TIP3   OH235704   2.597   6.272  13.014 -0.6945 -0.1600  0.0544
 4738TIP3    H135705   2.510   6.245  13.043  0.4304 -0.4843  3.5747
 4738TIP3    H235706   2.588   6.366  12.995 -1.8070 -0.1985  0.3517
 4739TIP3   OH235707   6.496   0.331   1.885  0.4305  0.0909  0.1314
 4739TIP3    H135708   6.533   0.308   1.800  2.0335  1.4579  0.4207
 4739TIP3    H235709   6.412   0.371   1.864  0.7053  0.2012 -0.7960
 4740TIP3   OH235710   5.112   2.799   4.821 -0.4543 -0.9643  0.5609
 4740TIP3    H135711   5.187   2.739   4.813 -1.4193 -2.0581 -0.8096
 4740TIP3    H235712   5.042   2.746   4.858 -1.5867 -0.9936 -1.4642
 4741TIP3   OH235713   4.077   1.037   3.988 -0.4117 -0.1181  0.6518
 4741TIP3    H135714   4.084   1.017   3.895  2.5315 -1.7735  1.1044
 4741TIP3    H235715   4.027   0.964   4.025 -0.1787 -0.3026  0.6014
 4742TIP3   OH235716   5.288   3.037   1.482  0.1331 -0.4462 -0.6077
 4742TIP3    H135717   5.383   3.029   1.469  0.3674 -0.7209  1.0668
 4742TIP3    H235718   5.270   2.985   1.560 -0.7622  2.7875  1.5227
 4743TIP3   OH235719   4.041   3.108   2.647 -0.6967 -0.0502 -0.3106
 4743TIP3    H135720   4.019   3.125   2.738 -0.9949  0.0569 -0.4022
 4743TIP3    H235721   4.044   3.013   2.639 -1.9659 -0.0820 -0.4998
 4744TIP3   OH235722   2.997   0.184  16.979 -0.6291 -0.0536 -0.8864
 4744TIP3    H135723   2.957   0.270  16.995 -1.2610 -0.0045 -2.5410
 4744TIP3    H235724   2.941   0.124  17.028 -0.2899  0.4415  0.1404
 4745TIP3   OH235725   4.559   3.345   3.707 -0.1905 -0.0747 -0.1714
 4745TIP3    H135726   4.589   3.405   3.640  1.9908 -0.3653  0.4605
 4745TIP3    H235727   4.639   3.315   3.750 -1.4791  1.3475  3.6752
 4746TIP3   OH235728   6.058   6.083  12.731 -0.5310  0.8398  0.0102
 4746TIP3    H135729   6.139   6.094  12.682 -0.6242  2.7624  0.2389
 4746TIP3    H235730   5.989   6.108  12.670 -0.8673  0.5327  0.2555
 4747TIP3   OH235731   2.557   2.376   3.433  0.2193 -0.1414 -0.6704
 4747TIP3    H135732   2.521   2.292   3.461  2.1372 -0.2866  1.7159
 4747TIP3    H235733   2.626   2.353   3.371  1.6535 -0.5452  0.9699
 4748TIP3   OH235734   4.963   4.344   5.289  0.1933  0.8914 -0.7512
 4748TIP3    H135735   5.009   4.401   5.350 -0.1555  1.7760 -1.2953
 4748TIP3    H235736   4.928   4.274   5.343  1.7911  0.4220 -0.2611
 4749TIP3   OH235737   2.934   2.221   4.728 -0.0292 -0.1373  0.1540
 4749TIP3    H135738   2.988   2.271   4.789  0.6194 -0.2483 -0.3226
 4749TIP3    H235739   2.903   2.146   4.779 -0.2183  0.2425  0.5960
 4750TIP3   OH235740   2.493   0.767   5.559  0.0066  0.1757 -0.2128
 4750TIP3    H135741   2.458   0.823   5.629  0.7446  1.1809 -0.6249
 4750TIP3    H235742   2.547   0.826   5.506  1.4667 -1.1058 -0.2006
 4751TIP3   OH235743   6.408   2.191  16.901 -0.2880  0.0233 -0.1978
 4751TIP3    H135744   6.330   2.231  16.940  0.0088  0.7240 -0.3205
 4751TIP3    H235745   6.476   2.199  16.968  0.8903  3.3346 -1.5969
 4752TIP3   OH235746   1.679   4.461  14.159 -0.4566  0.4647  0.1639
 4752TIP3    H135747   1.755   4.473  14.102 -0.1050  3.1119  1.0509
 4752TIP3    H235748   1.614   4.523  14.126 -0.9124  0.7430  1.5120
 4753TIP3   OH235749   2.067   1.047   2.106  0.6530 -0.3675  0.0003
 4753TIP3    H135750   2.010   1.036   2.182 -0.8938  0.9087 -0.9170
 4753TIP3    H235751   2.140   1.098   2.138 -0.7125  1.4662  0.3565
 4754TIP3   OH235752   4.691   3.843  13.981  0.2838 -0.4340  0.1637
 4754TIP3    H135753   4.676   3.836  14.075 -1.0644 -1.6874 -0.1074
 4754TIP3    H235754   4.603   3.840  13.943  0.5964  2.5869 -1.0428
 4755TIP3   OH235755   6.222   4.423   2.931 -0.0660 -0.4309 -0.3688
 4755TIP3    H135756   6.317   4.414   2.941 -0.0384  0.3366  0.1323
 4755TIP3    H235757   6.210   4.509   2.890 -0.5668 -0.2654  0.1085
 4756TIP3   OH235758   4.435   6.649   5.122 -0.0161  0.2345  0.2242
 4756TIP3    H135759   4.476   6.694   5.048  0.4162  2.0466  1.5034
 4756TIP3    H235760   4.349   6.690   5.130  0.2392  0.6009  1.1898
 4757TIP3   OH235761   0.376   4.720   4.821 -0.7165  0.4487  0.4830
 4757TIP3    H135762   0.333   4.694   4.902 -1.8182 -1.5324 -0.6779
 4757TIP3    H235763   0.459   4.757   4.850 -1.2499  0.1998  2.5298
 4758TIP3   OH235764   3.993   4.756  11.070 -0.2593 -0.2061 -0.2992
 4758TIP3    H135765   3.981   4.800  11.154  1.1646 -1.8041  0.8011
 4758TIP3    H235766   3.954   4.669  11.082 -1.8448  0.2062 -1.9944
 4759TIP3   OH235767   3.012   2.165  16.681 -0.0207 -0.1140 -0.2772
 4759TIP3    H135768   3.010   2.245  16.734 -0.2223 -0.4335  0.2074
 4759TIP3    H235769   2.941   2.111  16.717  1.5319 -1.4549  0.9297
 4760TIP3   OH235770   5.279   0.139   2.121 -0.6059  0.6720  0.1978
 4760TIP3    H135771   5.238   0.145   2.035 -1.8425  0.9383  0.7773
 4760TIP3    H235772   5.316   0.051   2.124 -0.5654  0.6556 -0.5900
 4761TIP3   OH235773   4.133   1.674   0.596 -0.0667 -0.0186  0.7218
 4761TIP3    H135774   4.082   1.661   0.677  1.5299 -0.9393  1.6317
 4761TIP3    H235775   4.154   1.767   0.596 -0.5996  0.1094  1.0260
 4762TIP3   OH235776   2.071   2.146   3.866  0.4068 -0.1821  0.4690
 4762TIP3    H135777   2.073   2.072   3.806  0.0219 -1.1029  1.5616
 4762TIP3    H235778   2.099   2.110   3.950  0.0048  0.8639  1.0706
 4763TIP3   OH235779   0.703   2.837  16.111 -0.2964 -0.4580 -0.9100
 4763TIP3    H135780   0.783   2.784  16.110 -0.1155 -0.1850 -1.0860
 4763TIP3    H235781   0.632   2.773  16.109 -0.0862 -0.7147 -0.2676
 4764TIP3   OH235782   3.316   5.909  16.556 -0.0209  0.0383  0.1807
 4764TIP3    H135783   3.393   5.965  16.564  0.7535 -1.1443  1.4259
 4764TIP3    H235784   3.342   5.840  16.495  0.1209 -0.6712  1.0279
 4765TIP3   OH235785   4.110   5.391   1.977 -0.7021 -0.7154  0.2236
 4765TIP3    H135786   4.094   5.298   1.987  0.1248 -0.6153  3.5713
 4765TIP3    H235787   4.204   5.401   1.993 -0.6752  0.6559 -0.6066
 4766TIP3   OH235788   2.480   6.661  12.777  0.4315 -0.3864  0.2123
 4766TIP3    H135789   2.542   6.708  12.833  1.5108 -0.5738 -0.7818
 4766TIP3    H235790   2.504   6.686  12.688 -0.9148 -0.4980 -0.2088
 4767TIP3   OH235791   0.843   1.321   1.800  0.2025 -0.3211 -0.5636
 4767TIP3    H135792   0.905   1.250   1.791 -0.1635 -1.0285  1.7822
 4767TIP3    H235793   0.770   1.297   1.743 -0.0893 -2.0518  0.4881
 4768TIP3   OH235794   6.204   6.302  12.308 -0.4138  0.2895  0.3086
 4768TIP3    H135795   6.155   6.384  12.301 -0.8385  0.0781  0.7214
 4768TIP3    H235796   6.142   6.235  12.276 -0.6434 -0.0664  1.4702
 4769TIP3   OH235797   2.191   2.095  14.597 -0.1001  0.5048 -0.3361
 4769TIP3    H135798   2.171   2.080  14.689  2.1291 -1.3681 -0.0539
 4769TIP3    H235799   2.285   2.114  14.597  0.3002 -1.1881 -2.3459
 4770TIP3   OH235800   1.552   4.872  10.992 -0.0844  0.2106  0.7075
 4770TIP3    H135801   1.531   4.798  11.049  0.9457 -1.1309 -0.5817
 4770TIP3    H235802   1.468   4.900  10.957 -0.3622 -1.3492  0.0478
 4771TIP3   OH235803   6.249   1.966   5.923  0.2156 -0.2103 -0.3796
 4771TIP3    H135804   6.173   1.919   5.889  0.9787 -0.4325 -1.8921
 4771TIP3    H235805   6.245   1.954   6.018 -1.7025 -0.0684 -0.4118
 4772TIP3   OH235806   4.183   6.667   2.249 -0.9040  0.2549  0.3133
 4772TIP3    H135807   4.260   6.673   2.306 -0.4380  2.4009 -0.4157
 4772TIP3    H235808   4.121   6.729   2.287 -1.5824 -0.1613 -0.1042
 4773TIP3   OH235809   4.796   3.243   4.351  0.8270 -0.6837 -0.1018
 4773TIP3    H135810   4.880   3.201   4.369  1.7032  0.6805 -0.8330
 4773TIP3    H235811   4.811   3.336   4.367 -0.4957 -0.3837 -0.4150
 4774TIP3   OH235812   2.323   3.033   5.922 -0.7389  0.5367 -0.6051
 4774TIP3    H135813   2.285   3.066   6.004 -0.3683  0.9588 -0.6028
 4774TIP3    H235814   2.382   2.963   5.950 -1.6636 -0.2856 -0.6237
 4775TIP3   OH235815   2.626   4.611   2.845 -0.1902 -0.4412  0.2690
 4775TIP3    H135816   2.587   4.557   2.777  0.4178  0.4870 -0.8501
 4775TIP3    H235817   2.679   4.551   2.897  0.1662 -0.9822 -0.7087
 4776TIP3   OH235818   4.818   3.924   4.650  0.0596  0.1451  0.1816
 4776TIP3    H135819   4.881   3.938   4.721 -0.3069 -0.8645  0.7292
 4776TIP3    H235820   4.860   3.962   4.573  1.2704 -0.3293  0.5742
 4777TIP3   OH235821   0.506   0.547  12.740  0.5663  0.0656 -0.2465
 4777TIP3    H135822   0.561   0.606  12.792 -0.0239  2.1003 -1.7773
 4777TIP3    H235823   0.560   0.525  12.664  0.9691 -1.8658  0.5500
 4778TIP3   OH235824   0.469   5.058  15.270  0.1701 -0.5609 -0.2236
 4778TIP3    H135825   0.459   5.056  15.175 -0.0512  0.9899 -0.2678
 4778TIP3    H235826   0.446   4.970  15.299 -0.8712 -0.7477 -1.5117
 4779TIP3   OH235827   0.272   3.782   4.969 -0.1268  0.2081  0.5516
 4779TIP3    H135828   0.342   3.808   4.910  0.8555 -0.7449  1.2452
 4779TIP3    H235829   0.296   3.693   4.996  0.0151  0.9428  3.1457
 4780TIP3   OH235830   6.534   5.712  16.882  0.5089  0.4086  0.0910
 4780TIP3    H135831   6.448   5.707  16.839  0.9829  1.2651 -0.9955
 4780TIP3    H235832   6.556   5.621  16.902  0.0806  0.0097 -1.1220
 4781TIP3   OH235833   1.477   5.053  13.495 -0.2326 -0.1174  0.3660
 4781TIP3    H135834   1.572   5.060  13.491 -0.3096  1.1883  0.3397
 4781TIP3    H235835   1.447   5.142  13.512 -1.4484 -0.5381  0.5444
 4782TIP3   OH235836   3.082   5.233  15.723 -0.4530 -0.0634  0.8213
 4782TIP3    H135837   3.170   5.221  15.687 -0.3072  0.6482  0.9319
 4782TIP3    H235838   3.073   5.164  15.788 -0.4342 -0.8909 -0.0358
 4783TIP3   OH235839   1.088   3.241  13.780 -1.0352 -0.6019  0.5394
 4783TIP3    H135840   1.096   3.217  13.688  1.1472  0.2202  0.4694
 4783TIP3    H235841   1.029   3.174  13.817 -3.8177  0.3083 -1.8431
 4784TIP3   OH235842   1.041   5.801  12.637 -0.6069  0.2635  0.3201
 4784TIP3    H135843   1.134   5.822  12.630  0.2532 -2.3775  2.1800
 4784TIP3    H235844   1.028   5.784  12.730 -2.4319 -1.4736 -0.2001
 4785TIP3   OH235845   5.596   0.671   3.305 -0.5109 -0.5197  0.1803
 4785TIP3    H135846   5.505   0.647   3.289 -0.2021 -2.0390  0.5704
 4785TIP3    H235847   5.596   0.707   3.394 -0.8238  0.0234 -0.0382
 4786TIP3   OH235848   1.059   3.233  12.952  0.4473  0.2454 -0.1761
 4786TIP3    H135849   0.990   3.173  12.923  0.8648  0.1635 -1.0339
 4786TIP3    H235850   1.018   3.319  12.948 -0.2981 -0.0025  1.5100
 4787TIP3   OH235851   6.507   3.275   0.327  0.5087  0.0384  1.0213
 4787TIP3    H135852   6.522   3.188   0.362 -0.9795 -0.8993 -0.5027
 4787TIP3    H235853   6.413   3.291   0.339 -0.0197 -0.1917 -2.0027
 4788TIP3   OH235854   4.858   0.516   3.588 -0.1774  0.1455 -0.0148
 4788TIP3    H135855   4.933   0.572   3.610 -0.1413 -0.2273  0.8598
 4788TIP3    H235856   4.786   0.577   3.577  0.1429  0.4692 -0.3457
 4789TIP3   OH235857   2.896   2.499  17.190  0.4066 -0.1339 -0.2820
 4789TIP3    H135858   2.967   2.440  17.165  0.0328 -0.9036  0.4478
 4789TIP3    H235859   2.845   2.511  17.111 -0.4416 -2.0899 -0.0646
 4790TIP3   OH235860   6.086   0.622  16.624  0.2013  0.0142  0.2778
 4790TIP3    H135861   6.145   0.692  16.649  0.5329 -0.8092  1.9430
 4790TIP3    H235862   6.006   0.638  16.675  0.4131 -0.9985  0.9590
 4791TIP3   OH235863   3.002   1.848  12.780 -0.1114 -0.0526 -0.2732
 4791TIP3    H135864   2.949   1.813  12.708  1.9703 -1.4739 -1.2340
 4791TIP3    H235865   3.039   1.929  12.745 -0.9052  0.4545  0.0543
 4792TIP3   OH235866   0.051   6.741  15.842  0.5268 -0.6401 -0.0822
 4792TIP3    H135867  -0.036   6.705  15.821  0.0500 -0.2337  1.1317
 4792TIP3    H235868   0.075   6.700  15.924  0.1427  1.4522  1.1506
 4793TIP3   OH235869   0.015   4.448  15.112  0.7766 -0.7895  0.6408
 4793TIP3    H135870   0.109   4.454  15.128  1.1115 -1.1262 -0.9922
 4793TIP3    H235871  -0.013   4.369  15.158  1.6742 -1.7201 -0.3579
 4794TIP3   OH235872   5.655   0.763   2.103 -0.3223  0.2007 -0.2295
 4794TIP3    H135873   5.748   0.769   2.079 -0.1065 -2.3616 -0.3139
 4794TIP3    H235874   5.609   0.760   2.019 -0.5922  1.9758 -0.1924
 4795TIP3   OH235875   3.319   6.111   5.230 -0.4360  0.0335 -0.3814
 4795TIP3    H135876   3.257   6.056   5.277  1.3897 -0.5932  1.4319
 4795TIP3    H235877   3.338   6.062   5.150 -2.4627  0.4075 -1.1555
 4796TIP3   OH235878   1.938   4.200   2.250 -0.0584  0.9623 -0.0484
 4796TIP3    H135879   1.854   4.245   2.251  0.3977  1.8310  0.4339
 4796TIP3    H235880   2.002   4.267   2.275  0.7427  0.2477 -0.1156
 4797TIP3   OH235881   6.086   3.737   1.742 -0.4003  0.2263  0.2309
 4797TIP3    H135882   6.114   3.813   1.793 -2.8965  0.7201  0.9622
 4797TIP3    H235883   6.009   3.704   1.788 -1.2269 -0.8789 -1.8353
 4798TIP3   OH235884   0.149   3.185   4.411 -0.1759  0.1356  0.5489
 4798TIP3    H135885   0.221   3.161   4.353 -0.1502  0.7770  0.3049
 4798TIP3    H235886   0.191   3.214   4.491 -0.1753  0.1346  0.5486
 4799TIP3   OH235887   4.137   6.163  15.796  0.1640  0.2683  0.1245
 4799TIP3    H135888   4.072   6.201  15.855  0.2636  0.4628  0.1084
 4799TIP3    H235889   4.221   6.194  15.829  0.1661  1.2258 -0.7263
 4800TIP3   OH235890   3.355   0.780  13.589 -0.1882  0.0988 -0.1071
 4800TIP3    H135891   3.442   0.812  13.564  0.5516  0.0815  2.1986
 4800TIP3    H235892   3.364   0.685  13.588  0.2332  0.0984  1.2872
 4801TIP3   OH235893   5.943   0.551   5.220  0.4005  0.0518  0.0322
 4801TIP3    H135894   5.849   0.562   5.234  0.5951 -1.2388  3.1873
 4801TIP3    H235895   5.983   0.621   5.273  1.2635  0.5579 -1.2342
 4802TIP3   OH235896   3.359   3.849  10.287 -0.4735 -1.1271  0.3795
 4802TIP3    H135897   3.334   3.780  10.225 -0.4484 -1.3180  0.5845
 4802TIP3    H235898   3.423   3.808  10.344 -0.2612 -0.8567  0.3365
 4803TIP3   OH235899   4.134   4.411   4.349  0.0262 -0.4737 -0.4545
 4803TIP3    H135900   4.217   4.445   4.317  0.5280 -1.6120 -0.4036
 4803TIP3    H235901   4.083   4.489   4.371  1.8926  0.2856  1.6499
 4804TIP3   OH235902   3.947   4.121  13.582  0.5833  0.0887 -0.2637
 4804TIP3    H135903   3.981   4.101  13.495 -0.0654 -2.9163  0.0725
 4804TIP3    H235904   3.947   4.037  13.628  1.1143  1.5979  2.7537
 4805TIP3   OH235905   0.094   0.920  15.688  0.3530 -0.1895 -0.3792
 4805TIP3    H135906   0.157   0.969  15.740  0.3233  1.1445 -1.5420
 4805TIP3    H235907   0.009   0.947  15.722  0.3578 -0.0524 -0.4732
 4806TIP3   OH235908   1.610   1.106  10.541 -0.3453 -0.2883  0.1320
 4806TIP3    H135909   1.696   1.096  10.498 -1.4474 -1.7181 -1.9114
 4806TIP3    H235910   1.554   1.042  10.498 -2.3146  0.1566  1.8691
 4807TIP3   OH235911   2.922   6.073   0.085 -0.1133 -0.6278  0.1910
 4807TIP3    H135912   2.932   6.113   0.172 -1.8876  0.0870  0.1071
 4807TIP3    H235913   3.010   6.045   0.061  0.4293 -0.7954  2.2049
 4808TIP3   OH235914   2.965   3.978   0.518  0.4794 -0.2364 -0.2536
 4808TIP3    H135915   3.037   4.017   0.568  0.0990 -0.1754  0.2559
 4808TIP3    H235916   2.916   4.052   0.484 -1.7573 -0.0999  2.8464
 4809TIP3   OH235917   1.333   2.915   5.852  0.1949  0.9814 -0.1374
 4809TIP3    H135918   1.381   2.984   5.807 -0.6721  1.8532  0.2526
 4809TIP3    H235919   1.333   2.942   5.944  0.3732  0.1456  0.1177
 4810TIP3   OH235920   2.485   2.133  14.676  0.4580 -0.3147  0.2348
 4810TIP3    H135921   2.467   2.109  14.768 -0.8276 -1.1056 -0.1951
 4810TIP3    H235922   2.575   2.165  14.677 -0.4388  2.5634  2.3027
 4811TIP3   OH235923   3.871   5.786   5.126  0.4821 -0.2020 -0.4130
 4811TIP3    H135924   3.906   5.870   5.156  2.9085 -0.0739 -3.1007
 4811TIP3    H235925   3.891   5.724   5.196 -0.8686  1.3026  1.3776
 4812TIP3   OH235926   1.578   4.685  13.248  0.1770  0.0129  0.2112
 4812TIP3    H135927   1.529   4.604  13.236  1.4686 -0.5888 -1.2625
 4812TIP3    H235928   1.514   4.746  13.286 -0.9852 -1.4894  0.7435
 4813TIP3   OH235929   0.350   4.574   0.688  0.4236 -0.4363  0.6285
 4813TIP3    H135930   0.260   4.596   0.713  0.3804  0.2944 -0.1274
 4813TIP3    H235931   0.349   4.479   0.676 -0.5371 -0.3217 -0.4374
 4814TIP3   OH235932   3.388   6.453   3.295 -0.0239 -0.2386 -0.0478
 4814TIP3    H135933   3.416   6.544   3.307 -2.3583  0.4941  0.4979
 4814TIP3    H235934   3.417   6.408   3.375 -0.4841  0.5053  0.5578
 4815TIP3   OH235935   6.672   5.370   1.709  0.2256 -0.0127  0.3287
 4815TIP3    H135936   6.759   5.390   1.742  0.0203  1.3764  0.1224
 4815TIP3    H235937   6.632   5.314   1.776  1.8949 -2.2662 -0.4506
 4816TIP3   OH235938   2.942   5.030  14.734  0.5034 -0.2002 -0.3530
 4816TIP3    H135939   2.876   5.096  14.712 -1.7297 -2.1481  0.0939
 4816TIP3    H235940   2.942   4.970  14.659  0.6295 -1.0538  0.3118
 4817TIP3   OH235941   4.138   3.330  11.403  0.2077 -0.7253 -0.8472
 4817TIP3    H135942   4.213   3.296  11.452  0.1837 -0.1495 -0.4033
 4817TIP3    H235943   4.173   3.406  11.355 -0.2164 -0.0790 -0.1604
 4818TIP3   OH235944   4.915   5.481   0.912 -0.5077 -0.2645 -0.1229
 4818TIP3    H135945   4.932   5.572   0.887 -1.5379 -0.6073 -2.3076
 4818TIP3    H235946   4.846   5.486   0.978  1.5026  0.6290  2.0634
 4819TIP3   OH235947   3.864   6.502  14.046  0.6459  0.4473  0.1802
 4819TIP3    H135948   3.888   6.542  13.962 -2.1609  0.0130 -0.9469
 4819TIP3    H235949   3.834   6.415  14.022 -0.3701  0.3852  1.6217
 4820TIP3   OH235950   4.271   0.697   5.514  0.2063 -0.3044 -0.4587
 4820TIP3    H135951   4.292   0.664   5.601 -0.8008  2.0308  0.7584
 4820TIP3    H235952   4.313   0.783   5.510  0.5232 -0.5066 -2.4462
 4821TIP3   OH235953   1.948   5.097  10.466 -0.2753  0.2737 -0.1753
 4821TIP3    H135954   1.915   5.022  10.416  0.7504  0.3203 -0.9537
 4821TIP3    H235955   2.036   5.113  10.431 -0.4318  1.7868  0.0343
 4822TIP3   OH235956   2.733   3.907   1.490 -0.0857  0.0814 -0.2576
 4822TIP3    H135957   2.746   3.932   1.581 -2.3074 -0.8072  0.3610
 4822TIP3    H235958   2.730   3.811   1.491 -0.9025  0.0836 -1.1334
 4823TIP3   OH235959   1.591   0.172  16.987 -0.1227 -0.2665  0.1415
 4823TIP3    H135960   1.531   0.239  17.019  1.9483  1.1055  1.3928
 4823TIP3    H235961   1.580   0.099  17.047  0.8070  0.7521  1.6426
 4824TIP3   OH235962   1.635   4.539   3.584 -0.4280 -0.2288 -0.0122
 4824TIP3    H135963   1.698   4.591   3.534 -2.1404 -0.4560 -2.6658
 4824TIP3    H235964   1.555   4.592   3.583 -1.5921 -1.9077 -0.8960
 4825TIP3   OH235965   4.980   5.694   2.643  0.2509  0.2425  0.5070
 4825TIP3    H135966   4.892   5.690   2.679  0.3722  3.8820  1.6827
 4825TIP3    H235967   4.968   5.702   2.549 -0.6202 -0.2281  0.5723
 4826TIP3   OH235968   5.410   0.315  11.290  0.5314 -0.0137  0.6872
 4826TIP3    H135969   5.416   0.282  11.380 -0.9912 -0.8126  0.5439
 4826TIP3    H235970   5.349   0.254  11.247  0.8352  0.6564 -0.7433
 4827TIP3   OH235971   0.953   2.498  17.116 -0.5294  0.5313 -0.3068
 4827TIP3    H135972   1.016   2.546  17.063 -1.8617  0.8389 -1.7044
 4827TIP3    H235973   0.872   2.499  17.064 -1.1975 -1.4068  0.5812
 4828TIP3   OH235974   5.085   4.366   0.121  0.7773 -1.2372 -0.0010
 4828TIP3    H135975   5.175   4.383   0.094  0.9353  1.3034  1.8191
 4828TIP3    H235976   5.064   4.281   0.082  3.2694 -1.0096 -2.0883
 4829TIP3   OH235977   4.653   3.618   5.314  0.2937 -0.5511 -0.0087
 4829TIP3    H135978   4.735   3.603   5.362 -0.6218 -1.2603  1.4029
 4829TIP3    H235979   4.602   3.675   5.372  0.3112  1.0901 -1.5085
 4830TIP3   OH235980   2.203   2.453   4.112 -0.6173  0.0802 -0.3116
 4830TIP3    H135981   2.274   2.472   4.174 -0.7421 -1.4640  0.3665
 4830TIP3    H235982   2.239   2.474   4.026 -0.2063  1.6395  0.2094
 4831TIP3   OH235983   5.920   4.933  12.235  0.3228  0.2461  0.0202
 4831TIP3    H135984   5.919   4.848  12.191  0.3114  1.0744 -1.6594
 4831TIP3    H235985   5.892   4.995  12.168 -0.0911  1.5328  1.3335
 4832TIP3   OH235986   5.429   3.976  16.510  0.2400  0.0152  0.1048
 4832TIP3    H135987   5.350   3.952  16.462 -1.0339  0.7553  1.7349
 4832TIP3    H235988   5.458   4.057  16.468 -0.5810  0.3955  0.2554
 4833TIP3   OH235989   0.101   3.409   3.948 -0.3691  0.5683  0.0699
 4833TIP3    H135990   0.161   3.396   4.021 -1.1422  0.7357  0.7471
 4833TIP3    H235991   0.088   3.503   3.944 -1.1076  0.4894  0.3713
 4834TIP3   OH235992   4.026   6.327  13.810  0.9030 -0.2741  0.0235
 4834TIP3    H135993   4.036   6.405  13.755  0.1356  2.0996  2.9935
 4834TIP3    H235994   4.082   6.343  13.885 -0.7142 -1.6733  1.6296
 4835TIP3   OH235995   4.325   0.523  11.892 -0.0699  0.1418 -0.6191
 4835TIP3    H135996   4.318   0.606  11.939 -0.5942  0.5224 -1.3405
 4835TIP3    H235997   4.366   0.546  11.809  1.3104 -0.6051 -0.1794
 4836TIP3   OH235998   5.446   3.617   4.146 -0.3335 -0.0251  0.1489
 4836TIP3    H135999   5.391   3.664   4.084  0.8237 -1.3670 -1.9927
 4836TIP3    H236000   5.425   3.525   4.134  0.8886 -0.4214  0.7668
 4837TIP3   OH236001   2.809   3.474   2.598  0.0043  0.1098  0.3827
 4837TIP3    H136002   2.800   3.440   2.687  0.7369  0.2426  0.5139
 4837TIP3    H236003   2.850   3.402   2.549 -0.7528 -0.1091  0.0496
 4838TIP3   OH236004   4.796   4.328  12.493 -0.0738 -0.1104  0.2730
 4838TIP3    H136005   4.758   4.255  12.542 -1.4814 -0.3293 -1.0574
 4838TIP3    H236006   4.890   4.309  12.490 -0.3960 -1.8450  0.0045
 4839TIP3   OH236007   5.546   2.917  15.894 -0.1808  0.0667 -0.3590
 4839TIP3    H136008   5.469   2.973  15.883  0.4507  0.5713 -2.8963
 4839TIP3    H236009   5.523   2.837  15.846  0.2393 -0.4696  0.3262
 4840TIP3   OH236010   0.240   2.226   3.315  0.1091  0.0199 -0.2672
 4840TIP3    H136011   0.253   2.218   3.409  0.3790  0.5771 -0.2541
 4840TIP3    H236012   0.156   2.183   3.299 -0.0164  0.0689  0.2479
 4841TIP3   OH236013   5.960   0.993  12.030 -0.1845  0.3738  0.1277
 4841TIP3    H136014   5.945   1.028  12.118 -0.2578 -0.5282  0.4861
 4841TIP3    H236015   5.882   0.941  12.012 -0.5899  1.2941 -0.8594
 4842TIP3   OH236016   6.633   3.065   5.374 -0.6582 -0.0252  0.0809
 4842TIP3    H136017   6.601   2.998   5.434 -2.0535 -0.9184 -1.5747
 4842TIP3    H236018   6.591   3.044   5.290 -0.1909  2.2121 -0.7784
 4843TIP3   OH236019   0.414   0.928   0.578  0.3750 -0.2234 -0.5073
 4843TIP3    H136020   0.322   0.941   0.554  0.0330 -0.5481  0.5549
 4843TIP3    H236021   0.413   0.924   0.674  1.4144 -0.9005 -0.5125
 4844TIP3   OH236022   0.952   6.722  11.432 -0.0731  0.4324 -0.3059
 4844TIP3    H136023   0.996   6.637  11.436  0.6765  0.8323  0.4190
 4844TIP3    H236024   0.968   6.754  11.343 -0.4389 -0.2190 -0.6091
 4845TIP3   OH236025   5.444   1.963  14.980  0.3681  0.2758  0.5784
 4845TIP3    H136026   5.369   2.017  14.955 -0.3419 -0.9412  0.0204
 4845TIP3    H236027   5.406   1.881  15.011  1.4721 -0.7360 -0.6018
 4846TIP3   OH236028   6.408   2.245  14.814  0.1166 -0.1090  0.2139
 4846TIP3    H136029   6.399   2.315  14.878 -2.5931  0.7813 -0.9774
 4846TIP3    H236030   6.357   2.172  14.849  0.7760 -0.5586  0.2541
 4847TIP3   OH236031   4.951   5.926  16.460  0.0649 -0.3675  0.0618
 4847TIP3    H136032   4.938   5.854  16.522  1.2504 -0.5233  0.1523
 4847TIP3    H236033   4.886   5.911  16.391 -2.1034  0.4854  1.8178
 4848TIP3   OH236034   3.966   3.688  16.477 -0.1374  0.4569 -0.2953
 4848TIP3    H136035   4.052   3.656  16.450  0.1454  0.7631  0.2274
 4848TIP3    H236036   3.947   3.640  16.557  0.8051  2.3697  1.1447
 4849TIP3   OH236037   5.649   2.771   2.693  0.3802  0.1728  0.5534
 4849TIP3    H136038   5.692   2.780   2.608  1.3012 -0.4428  0.9312
 4849TIP3    H236039   5.599   2.690   2.686 -0.2543  0.5819  0.3100
 4850TIP3   OH236040   0.751   2.199  10.885  0.6816 -0.1631  0.4104
 4850TIP3    H136041   0.795   2.129  10.839  0.8804  1.2921 -1.7660
 4850TIP3    H236042   0.659   2.172  10.889  0.6994 -0.4154 -0.6952
 4851TIP3   OH236043   6.042   4.007   3.449 -0.0451  0.2216 -0.1634
 4851TIP3    H136044   6.115   4.018   3.509 -0.0286  1.7327 -0.4364
 4851TIP3    H236045   5.975   4.067   3.482 -1.5009 -1.6743  0.5449
 4852TIP3   OH236046   4.543   3.349  13.973  0.3284 -0.4159  0.1254
 4852TIP3    H136047   4.511   3.413  14.037 -0.0623  1.0641 -1.4631
 4852TIP3    H236048   4.601   3.291  14.023 -1.7605 -0.7975  2.3030
 4853TIP3   OH236049   0.165   4.952   2.734 -0.5757  0.0275 -0.8934
 4853TIP3    H136050   0.254   4.918   2.727 -0.2098  1.0837 -1.7731
 4853TIP3    H236051   0.176   5.042   2.762 -1.5624 -0.7291  2.2797
 4854TIP3   OH236052   1.579   0.974  13.802  0.2310 -0.1169 -0.0312
 4854TIP3    H136053   1.654   1.018  13.841  1.1318 -0.4318 -1.3375
 4854TIP3    H236054   1.507   1.036  13.811  0.8630  0.5712  0.4071
 4855TIP3   OH236055   1.979   3.861  16.022 -0.4985  0.5176 -0.0391
 4855TIP3    H136056   2.062   3.813  16.017 -0.9770 -0.2356 -1.0224
 4855TIP3    H236057   1.976   3.913  15.942 -0.1964  1.8909  0.7978
 4856TIP3   OH236058   5.464   2.495   0.393  0.2234 -0.3010  0.1023
 4856TIP3    H136059   5.552   2.532   0.391  0.9883 -2.0715 -0.3878
 4856TIP3    H236060   5.475   2.403   0.368 -1.6913 -0.7048  0.5537
 4857TIP3   OH236061   1.484   0.549   0.280  0.4877 -0.1213 -0.0093
 4857TIP3    H136062   1.548   0.597   0.332 -0.5087  2.5396 -1.0566
 4857TIP3    H236063   1.533   0.521   0.202  0.8715 -0.0275  0.1936
 4858TIP3   OH236064   5.381   6.211   4.845  0.4406  0.3302 -0.2385
 4858TIP3    H136065   5.471   6.212   4.877  0.2147  0.7914  0.4039
 4858TIP3    H236066   5.330   6.251   4.916 -0.5772 -1.7553  0.2864
 4859TIP3   OH236067   6.777   0.271  13.006  0.0077  0.6134 -0.7315
 4859TIP3    H136068   6.738   0.260  13.092  0.1701 -1.5408 -0.8794
 4859TIP3    H236069   6.726   0.341  12.965 -1.2792  0.3923  0.4285
 4860TIP3   OH236070   2.121   3.515  11.143 -0.7597  0.1481 -0.2321
 4860TIP3    H136071   2.152   3.461  11.215 -0.6824  1.6912  0.9403
 4860TIP3    H236072   2.193   3.575  11.125 -1.0383  0.2229 -1.1536
 4861TIP3   OH236073   4.129   1.083  13.824 -0.0085  0.2812 -0.2946
 4861TIP3    H136074   4.145   1.177  13.814 -1.1201  0.5275  0.0671
 4861TIP3    H236075   4.139   1.047  13.736  0.5382  0.7205 -0.4146
 4862TIP3   OH236076   4.363   5.166  14.298 -0.1625 -0.7436  0.1324
 4862TIP3    H136077   4.337   5.142  14.387  1.0511  2.9196  1.6678
 4862TIP3    H236078   4.452   5.132  14.288 -0.1199 -0.7357  0.5001
 4863TIP3   OH236079   6.011   0.797  11.759  0.3584 -0.1345  0.7418
 4863TIP3    H136080   5.934   0.816  11.706  1.0098 -0.8820 -0.5184
 4863TIP3    H236081   6.006   0.703  11.777  0.6501 -0.0709  1.1851
 4864TIP3   OH236082   5.914   1.084   2.858  0.1657  0.5168  0.5403
 4864TIP3    H136083   5.971   1.141   2.807 -0.7405  0.3173 -0.7551
 4864TIP3    H236084   5.938   0.995   2.830 -0.8834  0.4396 -0.1626
 4865TIP3   OH236085   4.884   5.285  12.723 -0.4058  0.4999  0.2212
 4865TIP3    H136086   4.908   5.253  12.636  1.1801  0.7875  0.5127
 4865TIP3    H236087   4.931   5.228  12.784 -1.8074  0.0561  0.9131
 4866TIP3   OH236088   0.396   3.431  15.301  0.1154 -0.2821 -0.1928
 4866TIP3    H136089   0.402   3.526  15.300  0.2865 -0.2231  2.1861
 4866TIP3    H236090   0.482   3.402  15.333 -0.2781 -1.2010  0.0670
 4867TIP3   OH236091   0.254   5.787  11.804 -0.3039  0.4213  0.4386
 4867TIP3    H136092   0.230   5.718  11.743  0.6460  1.0324 -0.6731
 4867TIP3    H236093   0.230   5.868  11.759  0.6439  0.8932  0.7483
 4868TIP3   OH236094   0.166   5.335  14.159  0.1149  0.0786  0.0884
 4868TIP3    H136095   0.116   5.297  14.086 -0.6876  1.5884 -0.1852
 4868TIP3    H236096   0.130   5.423  14.169 -0.1637 -0.2785  2.6810
 4869TIP3   OH236097   1.419   1.010  13.505  0.4920 -0.3294  0.1962
 4869TIP3    H136098   1.340   0.956  13.496  0.9452 -0.7241 -1.7247
 4869TIP3    H236099   1.489   0.947  13.521  0.6180 -0.0597  0.7487
 4870TIP3   OH236100   4.686   2.776   5.794  0.4477 -0.3117 -0.2506
 4870TIP3    H136101   4.696   2.757   5.700 -0.9177  1.3688 -0.7868
 4870TIP3    H236102   4.597   2.750   5.815 -0.2402  1.9044 -0.1532
 4871TIP3   OH236103   1.542   4.457   0.804  0.4174  0.0037 -0.0033
 4871TIP3    H136104   1.602   4.460   0.729 -0.5266 -0.4324 -0.8019
 4871TIP3    H236105   1.565   4.377   0.850  0.8137  0.1234  0.0099
 4872TIP3   OH236106   4.435   4.248  15.502  0.2322  0.3507  0.1114
 4872TIP3    H136107   4.469   4.330  15.538 -0.1390  0.5568 -0.0068
 4872TIP3    H236108   4.505   4.216  15.445 -0.3385  1.5429 -1.3238
 4873TIP3   OH236109   2.567   3.454   1.504 -0.3148 -0.2338  0.6305
 4873TIP3    H136110   2.506   3.469   1.576 -0.5547  0.1415  0.3524
 4873TIP3    H236111   2.516   3.471   1.425 -0.4746 -2.0458  0.2964
 4874TIP3   OH236112   2.233   2.764   5.922  0.0157  0.6180  0.2889
 4874TIP3    H136113   2.233   2.670   5.938  1.2520  0.2991 -1.2676
 4874TIP3    H236114   2.226   2.803   6.008  0.0008 -0.9079  1.0113
 4875TIP3   OH236115   1.677   3.762   5.246 -0.1502  0.5269 -0.6382
 4875TIP3    H136116   1.589   3.793   5.222  0.0952  0.9222 -1.0343
 4875TIP3    H236117   1.716   3.836   5.292  1.1570  1.5847 -3.2798
 4876TIP3   OH236118   6.564   6.626  17.077  0.0445  0.4265 -0.3410
 4876TIP3    H136119   6.542   6.622  16.984  1.5074 -1.2668 -0.6666
 4876TIP3    H236120   6.651   6.588  17.083  0.1279  0.8220  1.6998
 4877TIP3   OH236121   2.822   3.723   4.376  0.2323 -0.2859 -0.6115
 4877TIP3    H136122   2.896   3.715   4.436 -0.7076  2.3678  1.0452
 4877TIP3    H236123   2.861   3.716   4.289  2.1338 -0.7973  0.2297
 4878TIP3   OH236124   2.461   0.132  15.321 -0.0919 -0.1276  0.8150
 4878TIP3    H136125   2.444   0.070  15.249 -0.5507  1.5886 -0.6459
 4878TIP3    H236126   2.543   0.102  15.360 -0.5622 -1.9368  0.5081
 4879TIP3   OH236127   4.663   1.648  16.229 -1.1644 -0.1699 -0.0267
 4879TIP3    H136128   4.578   1.689  16.246 -1.0884  0.6568 -1.4923
 4879TIP3    H236129   4.719   1.721  16.200 -0.2635 -0.8795 -0.0964
 4880TIP3   OH236130   2.023   1.376   4.653 -0.0941 -0.0661 -1.1639
 4880TIP3    H136131   1.978   1.291   4.649 -1.1365  0.5019 -2.1980
 4880TIP3    H236132   1.965   1.430   4.707  1.7555 -0.6300  1.6236
 4881TIP3   OH236133   4.001   4.755  13.616  0.6964  0.0757  0.2425
 4881TIP3    H136134   3.908   4.746  13.595  1.0940  0.1995 -1.7891
 4881TIP3    H236135   4.014   4.700  13.693 -1.0553  0.0938  0.5865
 4882TIP3   OH236136   0.489   1.618  15.200 -0.3255 -0.1223  0.3663
 4882TIP3    H136137   0.576   1.658  15.205  0.3012 -1.5847  2.7703
 4882TIP3    H236138   0.507   1.525  15.189 -1.6346 -0.3497  0.0597
 4883TIP3   OH236139   6.416   0.277  13.289  0.3690 -0.1644  0.2994
 4883TIP3    H136140   6.423   0.223  13.211 -1.8966  1.6167 -1.2466
 4883TIP3    H236141   6.330   0.317  13.284  0.1606  0.1634  3.6848
 4884TIP3   OH236142   1.896   2.857   5.775  0.1351  0.5707 -0.1198
 4884TIP3    H136143   1.803   2.879   5.779  0.1318  0.4528  0.5447
 4884TIP3    H236144   1.940   2.941   5.760 -0.0754  0.6234 -0.4471
 4885TIP3   OH236145   5.381   0.947  13.147  0.0916  0.2001 -0.4310
 4885TIP3    H136146   5.341   1.025  13.185 -1.0304 -0.6255  0.1279
 4885TIP3    H236147   5.350   0.875  13.200  0.1866 -0.7654 -1.6360
 4886TIP3   OH236148   3.370   1.357  15.132  0.1051 -0.3180  0.1387
 4886TIP3    H136149   3.293   1.304  15.155  0.4920 -0.4822  1.1479
 4886TIP3    H236150   3.371   1.427  15.197  1.2430 -0.7798  0.6617
 4887TIP3   OH236151   1.594   3.382   4.739  0.1717  0.2553  0.6161
 4887TIP3    H136152   1.645   3.311   4.779 -0.7986 -0.3130  0.8853
 4887TIP3    H236153   1.503   3.354   4.748 -0.1483  0.7724 -0.7701
 4888TIP3   OH236154   0.853   2.426   4.793 -0.1359 -0.7154  0.5550
 4888TIP3    H136155   0.798   2.433   4.871 -1.3826 -0.0373 -0.3416
 4888TIP3    H236156   0.943   2.423   4.826 -0.3898  2.6676  1.9833
 4889TIP3   OH236157   3.876   4.380  13.046  0.3868 -0.4530  0.1920
 4889TIP3    H136158   3.817   4.311  13.074 -1.2183  0.0742 -1.6833
 4889TIP3    H236159   3.881   4.440  13.121 -3.3727  0.6784 -0.2801
 4890TIP3   OH236160   2.486   0.417   4.611  0.4851  0.0351 -0.3980
 4890TIP3    H136161   2.499   0.406   4.705  3.2371 -0.8570 -0.8058
 4890TIP3    H236162   2.460   0.331   4.579 -1.0801  0.4782 -0.4377
 4891TIP3   OH236163   5.245   0.240   1.006  0.1793  0.2392 -0.3531
 4891TIP3    H136164   5.257   0.228   1.100  1.9288  1.7858 -0.3214
 4891TIP3    H236165   5.330   0.270   0.975 -0.3885 -0.1778 -2.4367
 4892TIP3   OH236166   3.509   1.651  13.429 -0.2489  0.1091  0.5814
 4892TIP3    H136167   3.552   1.568  13.447 -0.1959 -0.1192 -0.5032
 4892TIP3    H236168   3.415   1.632  13.438 -0.2424 -0.1036  0.2188
 4893TIP3   OH236169   6.807   5.605  11.899 -0.6198  0.7018 -0.5386
 4893TIP3    H136170   6.865   5.585  11.825 -0.6310 -0.7628 -0.1776
 4893TIP3    H236171   6.839   5.689  11.933  3.0607 -1.2043  1.2888
 4894TIP3   OH236172   4.295   4.483   4.591  0.2242 -0.7384 -0.4524
 4894TIP3    H136173   4.322   4.420   4.524  0.8786 -0.2611 -0.6506
 4894TIP3    H236174   4.215   4.522   4.556  1.7070  1.1096 -2.0819
 4895TIP3   OH236175   4.085   5.922   2.015  0.3315  0.0336 -0.3491
 4895TIP3    H136176   4.148   5.855   2.043  0.8153  0.8618  0.6223
 4895TIP3    H236177   4.051   5.958   2.097 -0.3916  0.5384 -0.8660
 4896TIP3   OH236178   3.026   5.783  12.112  0.4310 -0.9899  0.1158
 4896TIP3    H136179   3.001   5.831  12.191  0.9922 -1.0472  0.3317
 4896TIP3    H236180   2.943   5.758  12.072  0.1391 -0.5443  0.4337
 4897TIP3   OH236181   4.456   5.046  13.845  0.2312  0.1835 -0.0450
 4897TIP3    H136182   4.378   5.100  13.853  1.1588  1.3135  2.7113
 4897TIP3    H236183   4.514   5.094  13.786 -0.1221  0.6755  0.0093
 4898TIP3   OH236184   3.794   4.415   6.097  0.9409 -0.4669  0.1672
 4898TIP3    H136185   3.710   4.445   6.132  0.5974 -0.5145 -0.5954
 4898TIP3    H236186   3.859   4.454   6.154  0.4223  0.1289  0.3619
 4899TIP3   OH236187   2.927   6.802   0.369  0.0978 -0.1023 -0.1200
 4899TIP3    H136188   3.017   6.804   0.402  0.3800  0.5902 -0.9070
 4899TIP3    H236189   2.925   6.868   0.300 -1.0899  0.0990  0.0759
 4900TIP3   OH236190   3.602   3.164  15.929 -0.0990 -0.3263 -0.1854
 4900TIP3    H136191   3.622   3.191  15.839 -1.1778 -0.1693 -0.3842
 4900TIP3    H236192   3.658   3.220  15.983 -0.1956  0.2973 -0.7210
 4901TIP3   OH236193   4.766   2.725   3.537  0.1903 -0.7787 -0.1378
 4901TIP3    H136194   4.811   2.778   3.471 -0.0156 -0.9559 -0.4224
 4901TIP3    H236195   4.793   2.635   3.518 -0.4905 -0.9124 -0.4735
 4902TIP3   OH236196   1.727   1.872  12.896 -0.0716  0.1895  0.2407
 4902TIP3    H136197   1.701   1.956  12.933 -0.1920  0.0580  0.4542
 4902TIP3    H236198   1.823   1.876  12.894 -0.1140  0.9829 -1.2716
 4903TIP3   OH236199   2.373   2.780  11.133  0.1853  0.2578 -0.5297
 4903TIP3    H136200   2.440   2.835  11.092  0.7383  0.1823  0.2620
 4903TIP3    H236201   2.320   2.842  11.183 -0.0431  0.2536 -0.7665
 4904TIP3   OH236202   1.570   1.367  13.086 -0.1086  0.1471 -0.8004
 4904TIP3    H136203   1.491   1.416  13.111 -0.6242 -0.6566 -0.8270
 4904TIP3    H236204   1.602   1.413  13.009 -1.5663 -0.5590 -1.8755
 4905TIP3   OH236205   4.268   3.789  12.705 -0.1317 -0.6601 -0.1513
 4905TIP3    H136206   4.250   3.731  12.779 -3.3519 -0.5643 -0.7424
 4905TIP3    H236207   4.201   3.856  12.709  0.8339  0.5126 -2.0220
 4906TIP3   OH236208   6.005   2.362   4.739 -0.0058 -0.2215 -0.0863
 4906TIP3    H136209   5.993   2.282   4.689  1.8956  0.2601 -1.4295
 4906TIP3    H236210   5.966   2.430   4.685  0.7904  0.1056 -0.2681
 4907TIP3   OH236211   5.269   6.796  16.391  0.1056  0.1364 -0.8734
 4907TIP3    H136212   5.317   6.800  16.473 -0.0735  1.3344 -0.8083
 4907TIP3    H236213   5.276   6.705  16.363  2.3809  0.2639 -0.8525
 4908TIP3   OH236214   1.460   0.033  11.246  0.0136 -0.1655 -0.1027
 4908TIP3    H136215   1.505   0.102  11.197  0.6596 -0.3861  0.1631
 4908TIP3    H236216   1.519   0.013  11.319 -0.9789  0.2329  0.8466
 4909TIP3   OH236217   1.133   4.935   0.089  0.6966  0.1010 -0.3504
 4909TIP3    H136218   1.183   4.987   0.152  0.1752  1.2256 -0.8407
 4909TIP3    H236219   1.107   4.857   0.138  0.6896  0.7372  0.6905
 4910TIP3   OH236220   2.241   3.719  15.963  0.1231 -0.4098  0.2134
 4910TIP3    H136221   2.308   3.781  15.933 -0.6772 -0.0529 -0.8797
 4910TIP3    H236222   2.232   3.657  15.891  0.0101 -1.0615  0.7848
 4911TIP3   OH236223   3.669   5.574   6.119 -0.0699  0.1404 -0.0284
 4911TIP3    H136224   3.583   5.535   6.110 -1.2813  2.0489  2.2642
 4911TIP3    H236225   3.654   5.668   6.117  1.6672  0.5599  2.1182
 4912TIP3   OH236226   6.564   1.392   2.459  0.4028  0.3096  0.0118
 4912TIP3    H136227   6.599   1.480   2.444  1.3433 -0.3280 -1.9695
 4912TIP3    H236228   6.490   1.386   2.398  0.6700 -0.4291 -0.2475
 4913TIP3   OH236229   3.085   0.608   1.703  0.2600 -0.1019  0.2244
 4913TIP3    H136230   3.036   0.678   1.659  0.1694  0.9146  1.8498
 4913TIP3    H236231   3.032   0.530   1.690 -0.1527  0.3281 -0.7879
 4914TIP3   OH236232   2.834   5.184   2.377 -0.0226 -0.0069  0.1958
 4914TIP3    H136233   2.905   5.212   2.434 -0.8210  1.2191  0.6036
 4914TIP3    H236234   2.758   5.175   2.434 -0.8451  1.2589 -0.6324
 4915TIP3   OH236235   5.533   3.208  10.996 -0.4240 -0.6183 -0.3203
 4915TIP3    H136236   5.519   3.152  10.920  3.6614 -3.7409  0.8633
 4915TIP3    H236237   5.588   3.279  10.965  0.4097 -1.3351 -0.5118
 4916TIP3   OH236238   5.026   3.543  16.696  0.0048 -0.1482  0.6510
 4916TIP3    H136239   4.940   3.577  16.670  0.2536 -1.1722 -1.8385
 4916TIP3    H236240   5.060   3.502  16.616  1.7854 -1.9052  2.2104
 4917TIP3   OH236241   3.194   0.520  10.349  0.2779 -0.5187 -0.6134
 4917TIP3    H136242   3.269   0.482  10.395  0.1090 -0.5271 -0.3409
 4917TIP3    H236243   3.125   0.454  10.359 -0.5731  0.5722  1.3735
 4918TIP3   OH236244   2.014   4.816   2.584  0.1748  0.4850 -0.2293
 4918TIP3    H136245   1.950   4.861   2.640  0.1495  0.7291 -0.4498
 4918TIP3    H236246   2.096   4.861   2.600  0.1158  0.7240 -0.5744
 4919TIP3   OH236247   1.889   2.891  11.665  0.6116 -0.5864 -0.1749
 4919TIP3    H136248   1.943   2.822  11.626  0.6897 -0.5285 -0.1689
 4919TIP3    H236249   1.849   2.935  11.591  0.3507 -0.8099 -0.1683
 4920TIP3   OH236250   4.412   1.892  10.571  0.3065  0.4270  0.2786
 4920TIP3    H136251   4.502   1.921  10.559  0.4355 -0.2072 -0.3682
 4920TIP3    H236252   4.405   1.812  10.518 -0.5632  0.3302  0.5178
 4921TIP3   OH236253   6.719   2.763   3.961  0.3915  0.4227  0.2484
 4921TIP3    H136254   6.650   2.813   3.916  0.1029  2.0109  2.3245
 4921TIP3    H236255   6.672   2.701   4.016  0.6724  0.4136  0.4784
 4922TIP3   OH236256   2.273   4.108   1.301 -0.7434 -0.1691 -0.7371
 4922TIP3    H136257   2.235   4.146   1.381  1.8207  0.4423  0.3148
 4922TIP3    H236258   2.317   4.029   1.331  0.1885  0.0270 -1.5332
 4923TIP3   OH236259   0.298   6.069  16.819 -0.0142  0.2196 -0.0393
 4923TIP3    H136260   0.326   5.997  16.761  0.9056  1.5544 -1.3294
 4923TIP3    H236261   0.208   6.088  16.792 -0.2719 -0.4664  0.3307
 4924TIP3   OH236262   1.279   3.786   1.409 -0.2071 -0.1680  0.0485
 4924TIP3    H136263   1.221   3.773   1.483 -2.1822  2.0726 -0.9684
 4924TIP3    H236264   1.224   3.768   1.332  0.6585  1.1516 -0.9307
 4925TIP3   OH236265   4.251   6.186  11.083  0.2746  0.3973  0.2728
 4925TIP3    H136266   4.252   6.223  10.995 -0.6862 -1.4939 -0.5999
 4925TIP3    H236267   4.328   6.223  11.125 -0.4911  3.1429 -0.5475
 4926TIP3   OH236268   6.529   5.171   1.894 -0.2043  0.1239  0.2010
 4926TIP3    H136269   6.530   5.075   1.900  0.5555  0.1261  0.2012
 4926TIP3    H236270   6.601   5.199   1.951 -0.7526  0.7219  0.5995
 4927TIP3   OH236271   0.579   4.132   0.054  0.0865  0.0566 -0.0553
 4927TIP3    H136272   0.499   4.174   0.086 -1.2159 -1.9883 -0.4239
 4927TIP3    H236273   0.601   4.068   0.122 -1.6125 -2.9745 -2.0800
 4928TIP3   OH236274   6.027   4.933  16.818  0.6908  0.4776  0.0019
 4928TIP3    H136275   6.002   4.951  16.727 -0.7428  1.6754  0.5826
 4928TIP3    H236276   5.944   4.917  16.863  1.4062 -0.5351  1.0398
 4929TIP3   OH236277   3.239   4.914   2.569  0.3796  0.0151 -0.1624
 4929TIP3    H136278   3.217   4.956   2.652  0.4031  0.0384 -0.1681
 4929TIP3    H236279   3.310   4.853   2.592 -0.0632 -0.4643 -0.0383
 4930TIP3   OH236280   6.393   2.224   0.757 -0.1210  0.2930  0.4186
 4930TIP3    H136281   6.372   2.172   0.835  0.8232 -0.5122  0.1586
 4930TIP3    H236282   6.353   2.174   0.685  0.4404  0.1433  0.2096
 4931TIP3   OH236283   1.629   2.675   2.766  0.3598 -0.5878 -0.0681
 4931TIP3    H136284   1.614   2.666   2.672  0.2289  1.7190 -0.3326
 4931TIP3    H236285   1.707   2.622   2.783  0.7426 -0.5663 -1.6084
 4932TIP3   OH236286   4.371   5.811  12.951 -0.4633  0.0585 -0.2504
 4932TIP3    H136287   4.313   5.787  13.024 -1.5612  1.9345 -0.4623
 4932TIP3    H236288   4.319   5.869  12.896  1.0377  0.3449 -1.4425
 4933TIP3   OH236289   3.271   2.947   1.664  0.0930  0.3628 -0.4277
 4933TIP3    H136290   3.245   2.871   1.613  0.9614 -1.0926  1.1893
 4933TIP3    H236291   3.337   2.992   1.610 -1.7231  1.0634 -2.1867
 4934TIP3   OH236292   2.676   4.680  11.056 -0.0836  0.1058 -0.1564
 4934TIP3    H136293   2.691   4.608  11.118  0.6448 -0.7546 -1.2926
 4934TIP3    H236294   2.638   4.638  10.979  1.2708  0.7549 -1.2253
 4935TIP3   OH236295   1.267   6.311   2.882  0.3629  0.2285 -0.3499
 4935TIP3    H136296   1.176   6.341   2.881  0.5725  0.8597 -1.6551
 4935TIP3    H236297   1.317   6.386   2.914  0.3560 -0.4308  1.3296
 4936TIP3   OH236298   4.840   4.043   2.947 -0.6183 -0.1204 -0.1774
 4936TIP3    H136299   4.874   4.083   2.867 -1.7242 -1.9533 -1.6555
 4936TIP3    H236300   4.748   4.070   2.950 -0.5933 -0.0876  0.4774
 4937TIP3   OH236301   6.804   0.683   3.197  0.2087  0.4270  0.4586
 4937TIP3    H136302   6.857   0.732   3.133  0.0828 -2.0351 -1.6721
 4937TIP3    H236303   6.854   0.602   3.212 -1.0858 -0.2186  1.4272
 4938TIP3   OH236304   1.666   4.566  14.401  0.0586 -0.2921 -0.4729
 4938TIP3    H136305   1.680   4.520  14.319  0.6639  0.7403 -0.9737
 4938TIP3    H236306   1.749   4.609  14.419  0.7625 -2.4118  1.9611
 4939TIP3   OH236307   4.228   5.910  15.706  0.1074 -0.3995  0.3023
 4939TIP3    H136308   4.216   5.844  15.775 -1.5647  0.6825  1.1056
 4939TIP3    H236309   4.209   5.993  15.749  0.0549  0.4049 -1.2277
 4940TIP3   OH236310   0.156   3.287  14.432  0.2229  0.2189  0.2939
 4940TIP3    H136311   0.177   3.214  14.374  0.2262 -0.3905  1.0447
 4940TIP3    H236312   0.239   3.310  14.473  0.2321  0.6837  0.0120
 4941TIP3   OH236313   5.835   2.644   1.825 -0.5834  0.1643 -0.3275
 4941TIP3    H136314   5.776   2.714   1.853  1.5652  1.7222  0.5893
 4941TIP3    H236315   5.860   2.668   1.736  0.8217  1.1281  0.2831
 4942TIP3   OH236316   5.374   0.000   1.140 -0.0608 -0.2102 -0.5045
 4942TIP3    H136317   5.338   0.076   1.184  0.4595  0.2372 -0.8307
 4942TIP3    H236318   5.315  -0.072   1.163  0.2109 -0.0061  0.9335
 4943TIP3   OH236319   1.317   5.696   5.607 -0.4016  1.1932 -0.4680
 4943TIP3    H136320   1.351   5.628   5.665 -1.3420 -0.4678 -1.7943
 4943TIP3    H236321   1.395   5.732   5.564  0.0131 -0.1217 -0.8715
 4944TIP3   OH236322   1.605   4.806   4.669  1.0306  0.1091 -0.1669
 4944TIP3    H136323   1.643   4.720   4.650 -0.6685 -0.4785 -1.1671
 4944TIP3    H236324   1.533   4.787   4.729 -1.1122  0.3891 -2.4776
 4945TIP3   OH236325   5.812   5.663  15.871 -0.7647 -0.1799  0.4529
 4945TIP3    H136326   5.855   5.702  15.947 -1.8861 -0.9346  1.5225
 4945TIP3    H236327   5.778   5.580  15.904  0.3701 -1.4565 -1.3801
 4946TIP3   OH236328   3.355   2.413  16.301 -0.0664 -0.0144 -0.4159
 4946TIP3    H136329   3.300   2.373  16.234  1.4053  0.7176 -2.1410
 4946TIP3    H236330   3.396   2.339  16.345 -0.4447 -0.4858 -0.8455
 4947TIP3   OH236331   2.812   2.259  13.461 -0.4615  0.1094  0.4278
 4947TIP3    H136332   2.892   2.268  13.409 -1.2771 -2.7704 -1.5877
 4947TIP3    H236333   2.744   2.241  13.396 -2.2069 -0.2853  2.2863
 4948TIP3   OH236334   5.202   3.216   1.251  0.2543 -0.7414  0.2320
 4948TIP3    H136335   5.246   3.180   1.328  1.2069  0.2610  0.1823
 4948TIP3    H236336   5.122   3.164   1.243 -0.3888 -0.2295  2.4918
 4949TIP3   OH236337   1.358   1.224  12.950  0.9350  0.1116  0.0248
 4949TIP3    H136338   1.453   1.230  12.963  1.3436  1.7955 -2.8052
 4949TIP3    H236339   1.348   1.167  12.874 -0.2433  0.5324 -0.1519
 4950TIP3   OH236340   2.046   0.081   4.143  0.3539 -0.0860 -0.4946
 4950TIP3    H136341   2.088   0.043   4.220  0.7836  0.4335 -0.4605
 4950TIP3    H236342   2.119   0.106   4.086  0.0285 -0.9467 -1.3154
 4951TIP3   OH236343   0.973   4.597  15.988 -0.0786  0.7315  0.4361
 4951TIP3    H136344   0.964   4.691  15.973 -0.3009  0.4100 -1.7975
 4951TIP3    H236345   0.931   4.557  15.912  2.5472 -1.1303 -0.1648
 4952TIP3   OH236346   0.842   2.245   0.071  0.1954 -0.3955  1.0349
 4952TIP3    H136347   0.893   2.208  -0.001  0.1645 -0.7840  1.2065
 4952TIP3    H236348   0.890   2.219   0.150  1.6913  2.2582  1.0928
 4953TIP3   OH236349   2.317   0.287  16.559 -0.3745 -0.0094 -0.4549
 4953TIP3    H136350   2.292   0.281  16.466 -0.1499 -0.2334 -0.5018
 4953TIP3    H236351   2.401   0.241  16.564 -0.7996 -0.7446  0.0201
 4954TIP3   OH236352   0.475   0.004  15.003  0.1244 -0.1021  0.1388
 4954TIP3    H136353   0.402   0.054  15.037  0.5991 -0.6381  2.0411
 4954TIP3    H236354   0.446  -0.087  15.006  0.9685 -0.3507  1.2233
 4955TIP3   OH236355   4.611   4.579   2.552  0.0874 -0.2440  0.0256
 4955TIP3    H136356   4.545   4.520   2.589 -0.3010 -0.1941 -0.5700
 4955TIP3    H236357   4.597   4.574   2.457  0.9091 -0.1936 -0.1058
 4956TIP3   OH236358   3.260   0.319   3.849 -0.0228  0.4589 -0.5837
 4956TIP3    H136359   3.232   0.321   3.941  0.1504  0.2128 -0.5248
 4956TIP3    H236360   3.180   0.337   3.800 -1.2224 -3.7642 -0.6032
 4957TIP3   OH236361   1.860   5.751   2.182 -0.4357  0.0024 -0.3810
 4957TIP3    H136362   1.894   5.679   2.236  1.8611  0.7086 -0.7779
 4957TIP3    H236363   1.796   5.795   2.238 -1.2819 -1.8313  0.1647
 4958TIP3   OH236364   2.348   1.644   5.371  0.0845  0.3703 -0.0752
 4958TIP3    H136365   2.348   1.591   5.291  1.2432  0.2757 -0.0340
 4958TIP3    H236366   2.273   1.612   5.422  0.3372 -0.7229 -0.3789
 4959TIP3   OH236367   5.521   5.650  16.550  0.3410  0.2694 -0.2824
 4959TIP3    H136368   5.483   5.620  16.632  1.4750  1.1126  0.6047
 4959TIP3    H236369   5.615   5.631  16.558  0.4359  0.0643 -1.5336
 4960TIP3   OH236370   2.665   5.490  17.114  0.2863  0.0807 -0.5615
 4960TIP3    H136371   2.604   5.419  17.134 -1.7125  1.4978 -1.3413
 4960TIP3    H236372   2.747   5.464  17.158 -1.6458 -0.4560  3.0894
 4961TIP3   OH236373   2.579   5.599   0.433 -0.3527  0.1984 -0.3962
 4961TIP3    H136374   2.551   5.690   0.449 -2.1707 -0.2632 -0.6482
 4961TIP3    H236375   2.497   5.550   0.431  0.5676 -1.3731 -0.8200
 4962TIP3   OH236376   6.606   6.289  10.846 -0.1826  0.3525  0.3138
 4962TIP3    H136377   6.678   6.351  10.860 -0.2302  0.4375  0.1836
 4962TIP3    H236378   6.644   6.222  10.788  0.2125 -0.3522  1.3590
 4963TIP3   OH236379   5.948   2.151   2.908 -0.1579 -0.1070 -0.4461
 4963TIP3    H136380   5.967   2.214   2.978 -0.3969  0.1817 -0.6413
 4963TIP3    H236381   5.900   2.080   2.951  2.9719 -1.8551  0.5194
 4964TIP3   OH236382   3.862   2.441   1.303 -0.1038 -0.2599 -0.0786
 4964TIP3    H136383   3.767   2.433   1.316 -0.2517  0.7959 -0.3640
 4964TIP3    H236384   3.885   2.364   1.251 -1.1048  0.2730 -1.3879
 4965TIP3   OH236385   3.601   6.259  12.833 -0.5856 -0.2231 -0.8296
 4965TIP3    H136386   3.566   6.170  12.837 -2.0354  0.3395  0.0069
 4965TIP3    H236387   3.634   6.276  12.921  0.2960 -0.1442 -1.1643
 4966TIP3   OH236388   4.981   5.365  12.098 -0.0329  0.5980  0.1789
 4966TIP3    H136389   4.931   5.446  12.086 -0.7951  0.2623  0.9580
 4966TIP3    H236390   4.982   5.352  12.193  3.0752  1.5444  0.4202
 4967TIP3   OH236391   0.707   6.086  14.583 -0.7605 -0.4541 -0.1009
 4967TIP3    H136392   0.651   6.057  14.511 -1.4820 -0.2438  0.3607
 4967TIP3    H236393   0.748   6.006  14.615  0.1380 -0.4600 -1.2030
 4968TIP3   OH236394   4.613   2.082  11.124 -0.1295 -0.2552 -0.1717
 4968TIP3    H136395   4.586   2.165  11.086  1.1199  1.0651  1.6579
 4968TIP3    H236396   4.694   2.059  11.077 -0.7795 -0.7717 -1.0711
 4969TIP3   OH236397   6.829   1.247  16.830 -0.5976 -0.2991 -0.8888
 4969TIP3    H136398   6.767   1.297  16.777 -1.2064 -0.7939 -0.6400
 4969TIP3    H236399   6.898   1.221  16.768 -0.2947  0.7976 -1.0321
 4970TIP3   OH236400   1.366   4.148   0.896  0.5807 -0.1557  0.3188
 4970TIP3    H136401   1.432   4.134   0.828  0.2726  0.2888 -0.0764
 4970TIP3    H236402   1.409   4.205   0.960  0.6403 -0.0157  0.1539
 4971TIP3   OH236403   4.122   3.893   3.904 -0.2936  0.0566 -0.3004
 4971TIP3    H136404   4.145   3.803   3.928  1.0272  0.3421 -0.3792
 4971TIP3    H236405   4.172   3.909   3.824  1.2950  1.5663  0.9143
 4972TIP3   OH236406   4.476   2.740   3.543 -0.0066  0.1515  0.7601
 4972TIP3    H136407   4.492   2.655   3.584  0.3988 -1.0803 -1.7391
 4972TIP3    H236408   4.562   2.781   3.537 -0.2905  1.1350  2.6117
 4973TIP3   OH236409   0.952   4.395   4.592 -0.2407  0.0821  0.8004
 4973TIP3    H136410   0.914   4.370   4.508 -0.9258  2.6595  0.2624
 4973TIP3    H236411   1.036   4.348   4.595  0.3584  0.8183 -1.8907
 4974TIP3   OH236412   4.513   2.552  13.529  0.0998 -0.1791 -0.1524
 4974TIP3    H136413   4.457   2.479  13.503 -1.6797  1.5197 -1.4137
 4974TIP3    H236414   4.487   2.572  13.619  1.4149 -1.7558  0.6239
 4975TIP3   OH236415   1.448   1.905  17.053  0.3019 -0.3266 -0.0129
 4975TIP3    H136416   1.484   1.861  17.130  0.2929  0.4550  0.4423
 4975TIP3    H236417   1.387   1.840  17.016  1.3123 -1.2283 -0.1591
 4976TIP3   OH236418   0.979   4.420  11.869 -0.1008 -0.8646 -0.0785
 4976TIP3    H136419   1.049   4.471  11.828 -1.7288  1.8856  0.3533
 4976TIP3    H236420   0.965   4.346  11.810  1.1826  0.1206 -1.6782
 4977TIP3   OH236421   4.223   5.976  15.004 -0.1316  0.4868 -0.2852
 4977TIP3    H136422   4.306   5.959  14.960  0.0429  1.8345 -0.5131
 4977TIP3    H236423   4.157   5.965  14.935 -0.0156  0.7935 -0.4477
 4978TIP3   OH236424   5.420   4.519  13.408 -0.1317  0.2719 -0.0003
 4978TIP3    H136425   5.478   4.450  13.376 -1.1165 -0.2929 -0.6189
 4978TIP3    H236426   5.403   4.574  13.331 -0.8742  0.0943  0.0294
 4979TIP3   OH236427   1.735   3.909   0.844 -0.3677  0.3646  0.0623
 4979TIP3    H136428   1.806   3.973   0.847 -0.5549  0.5540  0.5049
 4979TIP3    H236429   1.776   3.826   0.870 -0.4555  0.6097  0.9909
 4980TIP3   OH236430   5.234   1.937  11.970 -0.2907 -0.4578 -0.5693
 4980TIP3    H136431   5.295   1.897  11.909  1.9063 -0.0434  1.2172
 4980TIP3    H236432   5.168   1.870  11.985  0.8481 -1.7257 -1.0475
 4981TIP3   OH236433   4.889   4.165   1.680 -1.0301 -0.4819  0.4897
 4981TIP3    H136434   4.967   4.219   1.663 -3.2628  2.2886 -2.1094
 4981TIP3    H236435   4.885   4.157   1.775  0.9063  1.7109  0.8349
 4982TIP3   OH236436   0.427   4.790   3.467 -0.0039 -0.1878  0.2821
 4982TIP3    H136437   0.520   4.797   3.488 -0.1285  2.0841  0.2863
 4982TIP3    H236438   0.386   4.862   3.515 -1.6949 -0.7764 -0.2002
 4983TIP3   OH236439   2.412   6.611  15.926  0.1901  0.2381 -0.2605
 4983TIP3    H136440   2.407   6.663  15.846  0.5255 -0.5797 -0.8214
 4983TIP3    H236441   2.445   6.526  15.898  0.9767  0.1544  0.8465
 4984TIP3   OH236442   4.943   3.108   5.278  0.0757 -0.4443 -0.5123
 4984TIP3    H136443   4.950   3.091   5.372  0.4423 -1.4376 -0.7074
 4984TIP3    H236444   4.911   3.026   5.241  0.6205 -0.2966 -1.3415
 4985TIP3   OH236445   3.617   0.825   5.390  0.0119  0.2018 -0.7532
 4985TIP3    H136446   3.632   0.920   5.391 -0.0973  0.2316 -1.2835
 4985TIP3    H236447   3.524   0.816   5.370  0.0182 -0.0162 -0.6846
 4986TIP3   OH236448   6.061   0.681   5.634 -0.2393  1.0018 -0.1987
 4986TIP3    H136449   5.984   0.630   5.607 -0.5619  1.5685 -0.3692
 4986TIP3    H236450   6.039   0.712   5.722 -0.3447  1.4371 -0.3776
 4987TIP3   OH236451   1.709   3.955   2.470  0.1912 -0.8233  0.1687
 4987TIP3    H136452   1.804   3.960   2.459  0.3814 -1.4613  1.3816
 4987TIP3    H236453   1.690   3.861   2.466 -0.3984 -0.6946 -0.1114
 4988TIP3   OH236454   3.637   0.077  15.782  0.0796 -0.1472 -0.2707
 4988TIP3    H136455   3.712   0.039  15.736  0.1378 -1.5841  0.9426
 4988TIP3    H236456   3.665   0.083  15.873 -1.1925 -0.4692  0.1611
 4989TIP3   OH236457   4.726   2.855   3.198 -0.4991  0.0766  0.1157
 4989TIP3    H136458   4.668   2.788   3.235  0.4545 -0.1348  1.3102
 4989TIP3    H236459   4.813   2.829   3.226  0.3117 -0.0569 -2.3174
 4990TIP3   OH236460   1.881   3.655   3.710 -0.5321  0.2094 -0.0643
 4990TIP3    H136461   1.913   3.704   3.635 -0.0473  0.3617  0.2370
 4990TIP3    H236462   1.877   3.564   3.680  1.4407 -0.0255  0.2631
 4991TIP3   OH236463   0.408   1.200   2.612  0.1992 -0.1990 -0.1896
 4991TIP3    H136464   0.484   1.242   2.652  0.9919 -1.2015 -0.6018
 4991TIP3    H236465   0.341   1.268   2.611  0.9275  0.5558  0.6377
 4992TIP3   OH236466   5.758   6.838   0.321  0.1046  0.1633  0.0825
 4992TIP3    H136467   5.747   6.769   0.385 -1.6049  0.8580  0.6071
 4992TIP3    H236468   5.841   6.818   0.277  0.4535 -1.2693  1.3236
 4993TIP3   OH236469   2.931   1.793   5.288  0.2799  0.2480 -0.2316
 4993TIP3    H136470   2.914   1.700   5.301 -1.3539  0.2739 -1.7331
 4993TIP3    H236471   3.023   1.805   5.311 -0.3291 -0.9956  3.5208
 4994TIP3   OH236472   6.678   5.676   4.291  0.0299 -0.1490  0.2361
 4994TIP3    H136473   6.693   5.583   4.310  0.8805  0.2393  1.6334
 4994TIP3    H236474   6.692   5.683   4.197  1.0547 -1.2575  0.2653
 4995TIP3   OH236475   4.416   3.116  11.826  0.1389  0.6708 -0.0576
 4995TIP3    H136476   4.390   3.086  11.739  1.6314  1.6781 -0.8796
 4995TIP3    H236477   4.455   3.202  11.812  0.6364  0.7490  1.5732
 4996TIP3   OH236478   5.221   6.287   5.050  0.6699 -0.2222  0.1731
 4996TIP3    H136479   5.190   6.225   5.116 -1.5528 -0.8598 -1.3505
 4996TIP3    H236480   5.147   6.345   5.035  1.5234  0.6325 -0.9361
 4997TIP3   OH236481   2.414   2.029   6.335 -0.0477  0.1509  0.0476
 4997TIP3    H136482   2.466   2.071   6.267  0.9778 -0.0043  0.7226
 4997TIP3    H236483   2.399   2.098   6.400 -1.2647  0.3771 -0.4377
 4998TIP3   OH236484   6.688   3.239   4.900  0.4291  0.0470  0.7379
 4998TIP3    H136485   6.623   3.176   4.869 -0.1702  1.1311 -0.2923
 4998TIP3    H236486   6.750   3.187   4.951  0.2084 -1.4576 -0.4568
 4999TIP3   OH236487   1.885   4.899  10.300  0.0218  0.5839 -0.3946
 4999TIP3    H136488   1.927   4.865  10.221 -1.9709  1.4562 -1.9056
 4999TIP3    H236489   1.842   4.824  10.339  0.5591  0.2571 -0.4131
 5000TIP3   OH236490   3.910   6.534  14.553  0.0782  0.5090 -0.2690
 5000TIP3    H136491   3.845   6.600  14.529  0.3626  0.7896 -0.2748
 5000TIP3    H236492   3.983   6.549  14.492  0.5093  0.7666  0.3009
 5001TIP3   OH236493   5.245   3.719  16.662 -0.0566  0.2885 -0.2630
 5001TIP3    H136494   5.174   3.662  16.691  0.0233  0.7146  0.8012
 5001TIP3    H236495   5.220   3.744  16.573 -0.7926 -0.2820 -0.2230
 5002TIP3   OH236496   4.447   3.714   5.467  1.2949  0.2324 -0.1868
 5002TIP3    H136497   4.467   3.622   5.486 -1.3367 -0.2114  0.8575
 5002TIP3    H236498   4.478   3.762   5.544  1.2340  0.0059 -0.0214
 5003TIP3   OH236499   2.724   2.370  16.760 -0.2411  0.6763 -0.3999
 5003TIP3    H136500   2.792   2.426  16.796  2.1041 -0.9874 -1.9342
 5003TIP3    H236501   2.729   2.289  16.811  0.0823 -0.0536 -1.5427
 5004TIP3   OH236502   4.598   0.078   3.270  0.0477 -0.0746 -0.2311
 5004TIP3    H136503   4.597  -0.015   3.291  0.3983  0.4732  2.5550
 5004TIP3    H236504   4.507   0.106   3.280  0.2520  0.2341  0.8529
 5005TIP3   OH236505   6.245   2.911   2.788  0.7282  0.2459 -0.2029
 5005TIP3    H136506   6.230   2.981   2.724 -1.8033 -0.5960 -0.6407
 5005TIP3    H236507   6.158   2.877   2.807  1.8843 -3.1715 -0.4249
 5006TIP3   OH236508   3.009   5.665  12.989 -0.0926  0.7612 -0.3913
 5006TIP3    H136509   3.045   5.752  12.972 -0.8132  1.5085  1.5892
 5006TIP3    H236510   3.076   5.621  13.040 -0.4175  0.7756  0.0510
 5007TIP3   OH236511   3.056   0.302  11.325  0.1466 -0.4046 -0.0556
 5007TIP3    H136512   3.091   0.222  11.287 -0.2778 -0.5206 -0.2178
 5007TIP3    H236513   3.020   0.275  11.410 -0.2851 -0.4581 -0.2495
 5008TIP3   OH236514   5.226   6.468  12.730 -0.1278 -0.4714  0.1436
 5008TIP3    H136515   5.195   6.515  12.652  0.3632  0.2718  0.3832
 5008TIP3    H236516   5.157   6.480  12.795 -0.4622 -0.9502 -0.1164
 5009TIP3   OH236517   6.021   2.259  12.678 -0.3137 -0.6779  0.3523
 5009TIP3    H136518   6.047   2.313  12.753 -0.7410 -0.1091  0.0971
 5009TIP3    H236519   6.003   2.173  12.715 -1.2224 -0.2145  1.0154
 5010TIP3   OH236520   2.294   0.587   0.549  0.0252 -0.0075  0.1148
 5010TIP3    H136521   2.305   0.571   0.455 -0.2235 -0.2822  0.1316
 5010TIP3    H236522   2.245   0.669   0.554  0.5697  0.3288  0.0159
 5011TIP3   OH236523   3.778   5.431  11.792 -0.0389  0.1706 -0.1084
 5011TIP3    H136524   3.784   5.509  11.737 -0.8775 -0.2981 -0.8809
 5011TIP3    H236525   3.684   5.416  11.802  0.1177 -0.6850  0.1220
 5012TIP3   OH236526   0.492   2.114  11.693 -0.3698 -0.0715  0.0253
 5012TIP3    H136527   0.473   2.045  11.628  0.0997 -1.1463  0.9964
 5012TIP3    H236528   0.488   2.069  11.777 -0.5788  1.2232  0.7331
 5013TIP3   OH236529   4.385   6.155  15.912  0.4249 -0.3798 -0.6343
 5013TIP3    H136530   4.477   6.170  15.933  0.6671 -1.0846 -1.1521
 5013TIP3    H236531   4.369   6.064  15.935 -0.2115 -0.2034 -0.3350
 5014TIP3   OH236532   6.737   4.388   1.433  0.3197  0.0113  0.7110
 5014TIP3    H136533   6.813   4.333   1.450  1.1476  1.3415  1.4745
 5014TIP3    H236534   6.666   4.347   1.481  0.2759 -1.8054 -0.8112
 5015TIP3   OH236535   6.242   3.549  15.093  0.4737 -0.1203 -0.5432
 5015TIP3    H136536   6.181   3.524  15.162  0.3793  0.3170 -0.4625
 5015TIP3    H236537   6.199   3.525  15.011 -0.7427  2.0220 -0.6155
 5016TIP3   OH236538   4.284   3.310  16.004 -0.3889 -0.0677  0.1161
 5016TIP3    H136539   4.264   3.392  15.958 -0.9033 -0.1753  0.1415
 5016TIP3    H236540   4.379   3.302  15.998 -0.2422  0.9955  0.9185
 5017TIP3   OH236541   0.039   4.654   6.025 -0.3540 -0.1427  0.2693
 5017TIP3    H136542   0.026   4.563   5.998 -1.6866 -0.1186  0.7704
 5017TIP3    H236543  -0.021   4.704   5.970 -1.2461  0.1756  1.4826
 5018TIP3   OH236544   3.462   2.376   0.525 -0.0737  0.6392 -0.4787
 5018TIP3    H136545   3.402   2.412   0.459 -0.8073 -1.2939 -0.9491
 5018TIP3    H236546   3.421   2.293   0.552  2.0198 -0.4064 -0.2840
 5019TIP3   OH236547   6.139   4.230   5.917  0.1580  0.1389 -0.0470
 5019TIP3    H136548   6.188   4.149   5.922 -0.9487 -0.4795  1.2176
 5019TIP3    H236549   6.206   4.299   5.921  0.9178 -0.6517  2.6623
 5020TIP3   OH236550   3.939   6.007  11.437 -0.4434 -0.5228  0.2965
 5020TIP3    H136551   3.923   6.046  11.523 -0.0179  0.7138 -0.1561
 5020TIP3    H236552   4.029   6.032  11.416 -1.1938  0.9799 -1.3790
 5021TIP3   OH236553   6.282   5.866   3.560  0.0338 -0.1088 -0.1049
 5021TIP3    H136554   6.230   5.888   3.638 -0.6287 -1.2976 -0.1817
 5021TIP3    H236555   6.370   5.896   3.581 -0.2071 -0.0900  0.9572
 5022TIP3   OH236556   5.683   6.310   2.559  0.3107  0.1319 -0.3161
 5022TIP3    H136557   5.704   6.218   2.574 -1.3853 -0.2172  0.1718
 5022TIP3    H236558   5.639   6.338   2.640 -0.7866  0.8492 -1.1357
 5023TIP3   OH236559   4.967   0.825   4.409  0.0341 -1.0494 -0.0063
 5023TIP3    H136560   4.928   0.738   4.395 -1.8341 -0.3860  0.7138
 5023TIP3    H236561   4.911   0.865   4.475 -0.0405  1.2582 -1.3808
 5024TIP3   OH236562   0.371   4.113   0.890  0.2875  0.4413  0.3519
 5024TIP3    H136563   0.432   4.159   0.947  0.9003  0.3777 -0.2316
 5024TIP3    H236564   0.427   4.065   0.829 -0.3460 -0.3565  0.3840
 5025TIP3   OH236565   5.544   5.360   1.511  0.0502 -0.7385  0.1018
 5025TIP3    H136566   5.512   5.289   1.566 -1.3046  0.8097  1.4289
 5025TIP3    H236567   5.520   5.335   1.422 -1.1943 -1.5471  0.6354
 5026TIP3   OH236568   2.045   0.511  14.901 -0.0571 -0.3854 -0.1170
 5026TIP3    H136569   2.068   0.446  14.835  0.4669 -1.2353  0.8845
 5026TIP3    H236570   2.122   0.519  14.957 -0.4068  0.4883  0.2731
 5027TIP3   OH236571   0.610   0.148  10.778  0.6091  0.6588  0.1766
 5027TIP3    H136572   0.560   0.199  10.714  0.1509  2.1230  1.6261
 5027TIP3    H236573   0.682   0.206  10.803  1.2816 -0.2350  0.3462
 5028TIP3   OH236574   0.844   2.703   4.446 -0.3683  0.4642  0.0835
 5028TIP3    H136575   0.838   2.614   4.479 -0.3457 -0.3333 -1.9600
 5028TIP3    H236576   0.795   2.703   4.364  0.9492  1.8945 -0.7754
 5029TIP3   OH236577   6.675   4.822   4.328  0.4895  0.2296  0.1566
 5029TIP3    H136578   6.715   4.758   4.270  0.8709  0.6492 -0.0501
 5029TIP3    H236579   6.748   4.854   4.382  0.5702  1.4281 -0.6216
 5030TIP3   OH236580   0.020   2.295  16.131 -0.6579  0.3224  0.2026
 5030TIP3    H136581   0.085   2.259  16.191  1.3192 -1.3208 -2.6996
 5030TIP3    H236582   0.046   2.263  16.045 -3.4960  2.2980 -1.5612
 5031TIP3   OH236583   3.752   1.044  12.168  0.3200  0.1188 -0.0591
 5031TIP3    H136584   3.726   0.998  12.088 -0.3871  0.2267  0.1017
 5031TIP3    H236585   3.846   1.028  12.175  0.8048  1.6511 -1.9341
 5032TIP3   OH236586   4.889   0.813  12.534 -0.4639 -0.1425 -0.4517
 5032TIP3    H136587   4.836   0.783  12.460 -0.4146 -0.1006 -0.5036
 5032TIP3    H236588   4.869   0.751  12.604 -1.4104  0.5103 -0.1321
 5033TIP3   OH236589   1.353   1.595  14.787  1.1360 -0.7009 -0.0049
 5033TIP3    H136590   1.329   1.665  14.726  0.5831 -1.1187 -0.2838
 5033TIP3    H236591   1.331   1.515  14.740 -0.6601 -1.0119  1.2557
 5034TIP3   OH236592   1.742   5.277  13.764  0.1459 -0.1100 -0.0726
 5034TIP3    H136593   1.671   5.249  13.822  0.4545 -0.6280  0.0627
 5034TIP3    H236594   1.807   5.206  13.770  1.7409  1.4001  1.5708
 5035TIP3   OH236595   3.558   4.277   4.199 -0.0129 -0.0996 -0.4064
 5035TIP3    H136596   3.540   4.258   4.107  0.4833 -0.9807 -0.3292
 5035TIP3    H236597   3.648   4.308   4.200 -0.1259  0.2303 -0.2532
 5036TIP3   OH236598   2.996   5.250   5.722 -0.0553  0.0790 -0.4366
 5036TIP3    H136599   2.931   5.307   5.763  0.7518  1.0101 -0.4179
 5036TIP3    H236600   2.965   5.239   5.632 -0.5573  0.0186 -0.2572
 5037TIP3   OH236601   5.150   0.270   4.728  0.0419 -0.1996 -0.2553
 5037TIP3    H136602   5.163   0.350   4.678  0.7766 -0.5918 -0.7186
 5037TIP3    H236603   5.055   0.257   4.729 -0.0170  0.0898 -1.1070
 5038TIP3   OH236604   5.546   5.679   0.993  0.0270 -0.5209  0.2599
 5038TIP3    H136605   5.614   5.617   0.968 -0.9760 -1.7172  0.4007
 5038TIP3    H236606   5.472   5.624   1.019 -0.0195  0.6614  2.9759
 5039TIP3   OH236607   2.942   4.233  14.950  0.3711  0.0290 -0.6987
 5039TIP3    H136608   2.996   4.296  14.998 -0.8495  0.5914 -0.0160
 5039TIP3    H236609   2.872   4.286  14.911 -0.5712 -0.8722 -0.2749
 5040TIP3   OH236610   0.595   4.160  12.258  0.8743  0.4128 -0.0075
 5040TIP3    H136611   0.565   4.082  12.210  2.2773  0.6401 -1.3059
 5040TIP3    H236612   0.674   4.188  12.212 -0.1301  3.2119 -0.1911
 5041TIP3   OH236613   5.913   3.773   3.585  0.2122 -0.0931  0.2275
 5041TIP3    H136614   5.946   3.820   3.508  0.8241 -0.1790  0.4355
 5041TIP3    H236615   5.972   3.699   3.596  0.0965 -0.1132  0.7489
 5042TIP3   OH236616   1.170   6.108   1.451  0.4724 -0.2996 -0.3992
 5042TIP3    H136617   1.252   6.128   1.405  1.3887  0.4971  1.4622
 5042TIP3    H236618   1.178   6.016   1.476  0.4892 -0.4090 -0.8010
 5043TIP3   OH236619   4.045   0.632   4.133 -0.2687 -0.2728 -0.4399
 5043TIP3    H136620   4.065   0.591   4.218 -0.9452 -2.3457 -1.1962
 5043TIP3    H236621   4.001   0.713   4.156 -1.2619 -1.2140  1.2482
 5044TIP3   OH236622   2.935   4.128  13.967 -0.8694 -0.0705  0.2725
 5044TIP3    H136623   2.920   4.218  13.939 -0.0459 -0.1138 -0.3711
 5044TIP3    H236624   2.946   4.079  13.885  0.6075 -0.3879  0.6306
 5045TIP3   OH236625   1.675   6.249   4.608 -0.3482  0.3026 -0.4554
 5045TIP3    H136626   1.673   6.331   4.656 -0.9921 -0.1917  0.3958
 5045TIP3    H236627   1.737   6.194   4.657  0.1654  0.3038 -1.0806
 5046TIP3   OH236628   6.104   2.465   6.380  0.0499  0.0962  0.4191
 5046TIP3    H136629   6.117   2.485   6.472 -1.5076 -0.4765  0.8049
 5046TIP3    H236630   6.030   2.521   6.354 -0.2007 -0.4986 -0.1794
 5047TIP3   OH236631   2.308   3.284  13.092  0.4756  0.3249 -0.0907
 5047TIP3    H136632   2.295   3.203  13.041 -2.0303  1.7896 -2.0546
 5047TIP3    H236633   2.385   3.325  13.053  2.2125 -1.3291  1.3883
 5048TIP3   OH236634   3.615   2.328   1.599  0.2156 -0.9535 -0.4289
 5048TIP3    H136635   3.604   2.365   1.511  0.6934  1.4971  0.4509
 5048TIP3    H236636   3.527   2.328   1.636  0.1365 -1.1999 -0.6144
 5049TIP3   OH236637   1.215   3.025   2.915  0.0683 -0.6649  0.0267
 5049TIP3    H136638   1.273   2.950   2.927  0.6984  0.0639  1.8557
 5049TIP3    H236639   1.167   3.032   2.997 -0.3134  0.6500 -0.2851
 5050TIP3   OH236640   0.338   2.804  11.799  0.2401  0.3376  0.1148
 5050TIP3    H136641   0.368   2.863  11.729  0.7336  0.1724  0.1789
 5050TIP3    H236642   0.317   2.863  11.872 -1.1812  0.5892 -0.4658
 5051TIP3   OH236643   5.912   5.286  11.729  1.0109 -0.1020 -0.1007
 5051TIP3    H136644   5.846   5.355  11.729  0.2495 -0.7984 -1.0202
 5051TIP3    H236645   5.975   5.313  11.795 -0.8668 -0.0382  1.8047
 5052TIP3   OH236646   5.736   0.823  12.061 -0.4834  0.1916  0.6595
 5052TIP3    H136647   5.734   0.736  12.101 -1.1237  0.5984  1.5412
 5052TIP3    H236648   5.654   0.830  12.014 -0.2150  0.1344  0.1812
 5053TIP3   OH236649   1.707   6.158  14.496 -0.4150 -0.0053 -0.2013
 5053TIP3    H136650   1.733   6.135  14.406 -1.0057 -1.5758 -0.0033
 5053TIP3    H236651   1.782   6.205  14.531 -0.3873  1.1460 -1.6915
 5054TIP3   OH236652   3.325   2.211  15.109 -0.2745  0.2524 -0.1584
 5054TIP3    H136653   3.359   2.123  15.096  0.0470  0.4182 -0.4305
 5054TIP3    H236654   3.271   2.204  15.188 -1.1462 -0.4392 -0.7924
 5055TIP3   OH236655   6.585   2.416   4.795 -0.1138 -0.2592 -0.1751
 5055TIP3    H136656   6.529   2.403   4.719 -0.5171 -2.1129  0.3770
 5055TIP3    H236657   6.566   2.505   4.824  1.3939  1.2005 -3.2533
 5056TIP3   OH236658   6.434   2.745  16.187 -0.4726  0.3392 -0.3956
 5056TIP3    H136659   6.529   2.759  16.194 -0.0991 -0.8383 -2.2551
 5056TIP3    H236660   6.414   2.684  16.258  0.5119 -0.6719 -0.9339
 5057TIP3   OH236661   4.957   2.693  13.108  0.0269  0.1161  0.3461
 5057TIP3    H136662   4.949   2.622  13.172  0.3694 -0.5498 -0.3309
 5057TIP3    H236663   5.045   2.727  13.120  0.7720 -1.2070 -0.9396
 5058TIP3   OH236664   6.411   0.655   1.936  0.0139 -0.6040  0.1393
 5058TIP3    H136665   6.360   0.581   1.967 -1.6568 -0.0168 -1.0378
 5058TIP3    H236666   6.390   0.726   1.996  0.5451 -0.7103  0.4592
 5059TIP3   OH236667   0.339   6.501   0.317  0.3042 -0.7482 -0.0777
 5059TIP3    H136668   0.401   6.545   0.376 -0.8055 -0.0196  0.5859
 5059TIP3    H236669   0.374   6.518   0.230  0.4337  0.6570  0.2160
 5060TIP3   OH236670   2.475   2.965   1.542 -0.0052  0.5661  0.4980
 5060TIP3    H136671   2.412   3.036   1.532 -0.5875  0.0846  0.6958
 5060TIP3    H236672   2.475   2.946   1.636 -0.0149  0.1554  0.4168
 5061TIP3   OH236673   6.681   5.751  14.643 -0.1901 -0.2264  0.1390
 5061TIP3    H136674   6.678   5.662  14.678  0.4283 -0.4777 -0.4280
 5061TIP3    H236675   6.771   5.779  14.657  0.8438 -1.2611 -3.4319
 5062TIP3   OH236676   3.380   6.244   5.664 -0.1926  0.1445 -0.5398
 5062TIP3    H136677   3.288   6.244   5.641 -1.0913 -1.8501  2.4143
 5062TIP3    H236678   3.391   6.165   5.718  3.0342  0.7898 -0.0484
 5063TIP3   OH236679   1.681   2.525   3.405  0.1505  0.0523 -0.1614
 5063TIP3    H136680   1.690   2.436   3.373  1.3204  0.2993 -0.5796
 5063TIP3    H236681   1.713   2.580   3.334 -0.0297  0.7727  0.3011
 5064TIP3   OH236682   5.591   1.060   6.673  0.2462  0.0949 -0.3019
 5064TIP3    H136683   5.678   1.100   6.666  0.3053  0.1578  0.6513
 5064TIP3    H236684   5.605   0.979   6.722 -0.2820  0.3099  0.2202
 5065TIP3   OH236685   0.748   0.094   0.571 -0.3278 -0.2413 -0.3401
 5065TIP3    H136686   0.686   0.030   0.607  2.1357 -2.8881 -0.5272
 5065TIP3    H236687   0.789   0.134   0.648 -0.1535 -0.6607 -0.2147
 5066TIP3   OH236688   1.130   5.706   5.365  0.1573  0.0424  0.2341
 5066TIP3    H136689   1.181   5.741   5.292  1.5978 -1.0263  0.6824
 5066TIP3    H236690   1.138   5.772   5.434 -0.9959  0.9346 -0.4508
 5067TIP3   OH236691   3.356   2.897   4.837 -0.0592  0.1136  0.6228
 5067TIP3    H136692   3.295   2.837   4.794 -0.5621  1.0488 -0.0120
 5067TIP3    H236693   3.317   2.984   4.824  1.8278  0.8488 -0.5630
 5068TIP3   OH236694   4.446   6.362   2.200 -0.2517 -0.1631  0.4978
 5068TIP3    H136695   4.465   6.272   2.174 -2.0463 -0.0016 -1.7647
 5068TIP3    H236696   4.406   6.354   2.287 -0.1232 -1.5184  0.4549
 5069TIP3   OH236697   4.402   1.087   6.106 -0.1947 -0.4860  0.4058
 5069TIP3    H136698   4.488   1.090   6.149  0.3451 -2.0860 -0.4562
 5069TIP3    H236699   4.373   0.997   6.119 -1.5174 -0.0982  0.2219
 5070TIP3   OH236700   4.189   3.486  14.089  0.1628  0.1197  0.2169
 5070TIP3    H136701   4.162   3.572  14.058 -2.0113 -0.1887  1.1019
 5070TIP3    H236702   4.285   3.492  14.096  0.1478  2.1053 -0.6909
 5071TIP3   OH236703   3.298   5.322   5.787 -0.7763 -0.0576  0.0457
 5071TIP3    H136704   3.213   5.284   5.807 -0.8101  0.5160  1.0533
 5071TIP3    H236705   3.316   5.380   5.860  0.5717 -0.3067 -0.0643
 5072TIP3   OH236706   0.690   4.132  14.624  0.1607  0.0974  0.0516
 5072TIP3    H136707   0.604   4.171  14.639 -0.0950 -0.2642 -0.4351
 5072TIP3    H236708   0.677   4.071  14.551  0.6300 -0.6170  0.5403
 5073TIP3   OH236709   2.933   6.520   5.569  0.1026 -0.1129 -0.8127
 5073TIP3    H136710   2.971   6.565   5.644  1.6005  0.0851 -1.6507
 5073TIP3    H236711   2.839   6.539   5.574 -0.1626 -1.6589  2.0581
 5074TIP3   OH236712   5.321   4.748  13.935  0.1732 -0.1548  0.0986
 5074TIP3    H136713   5.376   4.695  13.878  0.2325 -0.8520  0.7869
 5074TIP3    H236714   5.231   4.724  13.910  0.2032 -0.8824  0.6837
 5075TIP3   OH236715   1.525   2.375  14.406 -0.1492 -0.4713 -0.3189
 5075TIP3    H136716   1.570   2.290  14.402  0.3858 -0.3640  1.9652
 5075TIP3    H236717   1.596   2.439  14.406 -0.5557  0.0412 -2.1590
 5076TIP3   OH236718   5.233   1.564  13.777 -0.0203 -0.2676 -0.2578
 5076TIP3    H136719   5.169   1.634  13.770  1.7809  1.3692 -1.2027
 5076TIP3    H236720   5.226   1.516  13.694  0.6713  0.5530 -0.7993
 5077TIP3   OH236721   0.271   1.935  12.665 -0.4397 -0.0239 -0.3049
 5077TIP3    H136722   0.316   1.976  12.738 -0.8408 -1.4416  0.7961
 5077TIP3    H236723   0.196   1.992  12.647  0.0745  0.7207 -0.1115
 5078TIP3   OH236724   6.230   6.840   2.124 -0.5899  0.4869  0.3042
 5078TIP3    H136725   6.227   6.844   2.029 -0.1238 -0.6313  0.2247
 5078TIP3    H236726   6.276   6.757   2.143  0.3434  1.2399  1.4810
 5079TIP3   OH236727   1.361   1.417   1.725  0.1740 -0.5572 -0.1259
 5079TIP3    H136728   1.271   1.409   1.691 -0.1840 -3.2500  1.1862
 5079TIP3    H236729   1.358   1.492   1.784 -0.2499  1.5589 -2.6431
 5080TIP3   OH236730   5.640   5.731  13.728  0.2084  0.1502 -0.2991
 5080TIP3    H136731   5.718   5.688  13.693  1.2171  1.8233 -0.1822
 5080TIP3    H236732   5.663   5.751  13.819 -0.4989  0.3318 -0.1553
 5081TIP3   OH236733   1.269   2.135   5.806  0.6497 -0.6487  0.3383
 5081TIP3    H136734   1.229   2.158   5.890 -1.3643  1.9832 -1.2009
 5081TIP3    H236735   1.215   2.065   5.771 -1.4448  1.3760 -0.7186
 5082TIP3   OH236736   3.956   4.304  14.342  0.0123 -0.5851  0.6457
 5082TIP3    H136737   3.878   4.358  14.353  0.5379  0.1564  0.7661
 5082TIP3    H236738   3.933   4.221  14.384 -1.0239 -0.6854 -0.0670
 5083TIP3   OH236739   4.007   4.504   5.270 -0.3788 -0.0009 -0.2230
 5083TIP3    H136740   4.036   4.555   5.194  0.7083  1.0989  0.8828
 5083TIP3    H236741   3.938   4.557   5.310 -0.9195 -0.5550 -0.4177
 5084TIP3   OH236742   2.452   1.193   1.120 -0.3779  0.3781  0.4707
 5084TIP3    H136743   2.400   1.125   1.163 -0.4747  1.0656  1.4708
 5084TIP3    H236744   2.542   1.176   1.146 -0.1861 -0.3260 -0.6030
 5085TIP3   OH236745   5.980   0.330   5.706 -0.4911 -0.3462 -0.4111
 5085TIP3    H136746   5.963   0.337   5.612  0.8802  1.8044 -0.5611
 5085TIP3    H236747   5.922   0.395   5.746  0.7632  0.5845 -0.0583
 5086TIP3   OH236748   5.439   0.367   0.038 -0.8218  0.0516  0.0657
 5086TIP3    H136749   5.473   0.282   0.066  2.4300  0.9894 -0.5890
 5086TIP3    H236750   5.431   0.360  -0.057 -1.5334  0.1742  0.1108
 5087TIP3   OH236751   6.803   1.635  13.360  0.2935  0.1860  0.2429
 5087TIP3    H136752   6.729   1.583  13.391  0.7601 -0.9657 -0.5086
 5087TIP3    H236753   6.792   1.720  13.403 -1.1259 -0.1497  0.6022
 5088TIP3   OH236754   1.239   2.441  13.506 -0.1880 -0.4269  0.3062
 5088TIP3    H136755   1.182   2.414  13.434  1.7805  1.0688 -1.9913
 5088TIP3    H236756   1.305   2.496  13.464  3.1703 -2.3116  2.6963
 5089TIP3   OH236757   0.836   2.839  12.092  0.1107 -0.0189 -0.7786
 5089TIP3    H136758   0.744   2.862  12.101  0.5703  1.1326  2.1625
 5089TIP3    H236759   0.868   2.830  12.182  3.0883  0.6035 -1.6540
 5090TIP3   OH236760   2.441   3.829   1.307 -0.4145 -0.9258 -0.6624
 5090TIP3    H136761   2.487   3.893   1.362  0.9673 -0.4445 -2.3018
 5090TIP3    H236762   2.386   3.780   1.369 -1.0712  1.4162  0.7290
 5091TIP3   OH236763   6.108   5.124   4.243  0.7301  0.5310  0.2330
 5091TIP3    H136764   6.149   5.106   4.327  0.3411 -1.8866 -0.0258
 5091TIP3    H236765   6.164   5.079   4.179  0.8772  2.1128 -0.8048
 5092TIP3   OH236766   4.653   6.344  16.865  0.4343  0.3677  0.1710
 5092TIP3    H136767   4.595   6.403  16.913 -1.7712 -2.3266  1.1056
 5092TIP3    H236768   4.703   6.299  16.933 -1.9685 -2.7341  0.1305
 5093TIP3   OH236769   4.585   3.926   5.668  0.2573  0.4184  0.4891
 5093TIP3    H136770   4.523   3.965   5.607  0.6607  0.7861  0.3178
 5093TIP3    H236771   4.669   3.964   5.646  0.2899  1.1807  1.7885
 5094TIP3   OH236772   0.608   4.833   6.869 -0.2868 -0.2382  0.1765
 5094TIP3    H136773   0.524   4.788   6.880 -0.5619 -0.0720 -1.1244
 5094TIP3    H236774   0.590   4.904   6.808  0.4395  0.8562  1.1804
 5095TIP3   OH236775   4.595   2.128  11.683 -0.2451 -0.0116  0.0143
 5095TIP3    H136776   4.671   2.146  11.629  0.1815 -2.6033 -0.3946
 5095TIP3    H236777   4.622   2.151  11.772  1.4662 -1.7990  0.0392
 5096TIP3   OH236778   0.902   0.744  12.487 -0.6648 -0.4237 -0.4876
 5096TIP3    H136779   0.909   0.764  12.580 -1.0020 -1.9816 -0.0938
 5096TIP3    H236780   0.869   0.824  12.447 -1.8492 -0.1561  0.9439
 5097TIP3   OH236781   0.910   0.239   4.365  0.1902  0.0718  0.1027
 5097TIP3    H136782   0.894   0.185   4.442 -1.1688  0.7389  0.3136
 5097TIP3    H236783   0.947   0.178   4.301 -1.1739 -1.1041  0.3800
 5098TIP3   OH236784   2.543   3.795  12.256 -0.2150 -0.2018 -0.2890
 5098TIP3    H136785   2.615   3.805  12.194  0.4268 -1.6585  0.1722
 5098TIP3    H236786   2.567   3.719  12.309 -1.6436 -0.1432  0.5102
 5099TIP3   OH236787   3.043   2.824  15.302 -0.1815 -0.0445 -0.7487
 5099TIP3    H136788   2.968   2.803  15.247  1.5959 -2.7363 -2.3822
 5099TIP3    H236789   3.097   2.745  15.301  2.0229  1.2697  1.4916
 5100TIP3   OH236790   1.932   2.755  12.388 -0.1584  0.8581 -0.1429
 5100TIP3    H136791   1.860   2.714  12.338 -0.8320  1.6663  0.1435
 5100TIP3    H236792   2.001   2.769  12.323 -0.9302  1.6715 -0.8120
 5101TIP3   OH236793   0.833   4.086  16.559  0.6747 -0.1490  1.0331
 5101TIP3    H136794   0.796   4.058  16.643 -1.5486  1.4532  0.6792
 5101TIP3    H236795   0.784   4.037  16.493 -1.6318  2.5587  0.5240
 5102TIP3   OH236796   5.967   6.465   0.247  0.5560 -0.6101 -0.6825
 5102TIP3    H136797   6.004   6.492   0.332 -0.9430  0.6273 -0.3904
 5102TIP3    H236798   6.044   6.454   0.191  1.4306  3.0343 -0.4549
 5103TIP3   OH236799   2.358   4.382   3.465 -0.0287 -0.2695  0.3036
 5103TIP3    H136800   2.421   4.426   3.523  0.5278 -0.3160 -0.2508
 5103TIP3    H236801   2.388   4.292   3.460 -1.4794 -0.8890  1.8636
 5104TIP3   OH236802   4.577   4.129   2.814  0.1592 -0.0594  0.6599
 5104TIP3    H136803   4.528   4.049   2.830  0.3445 -0.8809 -2.2918
 5104TIP3    H236804   4.615   4.118   2.726  3.2001  1.7722  1.5713
 5105TIP3   OH236805   3.845   2.733  11.709 -0.2540 -0.5011  0.6738
 5105TIP3    H136806   3.925   2.715  11.759  0.2060  0.6518  0.3927
 5105TIP3    H236807   3.781   2.758  11.776  0.1322  0.2760  0.7601
 5106TIP3   OH236808   5.758   3.913  12.421  0.0776  0.3870 -0.1465
 5106TIP3    H136809   5.663   3.921  12.417 -0.0800  0.2488  2.1904
 5106TIP3    H236810   5.791   3.997  12.389 -0.8882  1.1900  0.9151
 5107TIP3   OH236811   4.455   3.672   1.743 -0.5607 -0.1394  0.3904
 5107TIP3    H136812   4.526   3.611   1.765  0.2024  0.2482 -0.9131
 5107TIP3    H236813   4.497   3.741   1.692 -1.6250  0.8878  0.8530
 5108TIP3   OH236814   2.220   0.377  14.614 -0.7114  0.0058  0.4521
 5108TIP3    H136815   2.248   0.438  14.683 -1.2467 -0.8318  1.4395
 5108TIP3    H236816   2.214   0.431  14.535  0.1120  0.9489  1.0057
 5109TIP3   OH236817   2.739   6.425  14.795  0.2011 -0.2435  0.3080
 5109TIP3    H136818   2.759   6.514  14.768 -1.8169  0.1555 -0.0491
 5109TIP3    H236819   2.778   6.417  14.882  0.1243  1.1166  0.4885
 5110TIP3   OH236820   3.157   0.526  16.598 -0.3025 -0.5631 -0.2969
 5110TIP3    H136821   3.153   0.463  16.669  0.7604  0.1500  0.4193
 5110TIP3    H236822   3.095   0.493  16.533 -0.8722 -1.5270  0.7086
 5111TIP3   OH236823   0.585   5.262  16.220  0.4844 -0.7089  0.7796
 5111TIP3    H136824   0.658   5.257  16.158  0.7577 -1.5166  1.1534
 5111TIP3    H236825   0.512   5.295  16.167  0.7900 -1.0821  0.1042
 5112TIP3   OH236826   5.311   2.542   5.794  0.4262  0.1407 -0.1778
 5112TIP3    H136827   5.234   2.486   5.791  0.7629 -0.4422  1.2180
 5112TIP3    H236828   5.277   2.630   5.782 -0.2920 -0.2173 -0.8729
 5113TIP3   OH236829   3.098   4.652   5.959 -0.3881 -0.4685 -0.0628
 5113TIP3    H136830   3.127   4.643   6.050 -1.1220  1.2566  0.3785
 5113TIP3    H236831   3.172   4.694   5.915 -0.8819  0.8453  0.3033
 5114TIP3   OH236832   3.522   2.291   5.777  0.1012 -0.2062 -0.5761
 5114TIP3    H136833   3.439   2.328   5.806 -0.6951 -2.2470 -0.0595
 5114TIP3    H236834   3.499   2.205   5.741  2.0553 -1.1412  0.2347
 5115TIP3   OH236835   0.546   1.134  14.942 -0.0048 -0.0977 -0.6030
 5115TIP3    H136836   0.632   1.176  14.932  0.3293 -1.0265 -1.8716
 5115TIP3    H236837   0.485   1.197  14.904  0.3807 -0.3276 -1.6327
 5116TIP3   OH236838   0.701   1.256   1.244 -0.6903  0.1600 -0.0193
 5116TIP3    H136839   0.765   1.314   1.202  0.0517  0.2685  1.2080
 5116TIP3    H236840   0.634   1.242   1.177  0.4240  0.3380 -1.2225
 5117TIP3   OH236841   5.468   0.350   3.806 -0.4442  0.1762  0.1325
 5117TIP3    H136842   5.433   0.262   3.819  1.1939 -0.3318  1.5230
 5117TIP3    H236843   5.553   0.335   3.765 -0.3133  1.1359  0.0492
 5118TIP3   OH236844   2.025   4.476  14.994  0.8098  0.1105  0.2745
 5118TIP3    H136845   1.949   4.417  14.987  1.1078 -0.4364  1.3847
 5118TIP3    H236846   2.099   4.424  14.964  0.5142  1.3292 -2.9590
 5119TIP3   OH236847   3.085   3.672   4.865  0.0472  0.2275  1.1334
 5119TIP3    H136848   3.130   3.745   4.906 -2.1619  0.7065  2.9214
 5119TIP3    H236849   3.125   3.594   4.902  1.9518  0.4760 -0.2648
 5120TIP3   OH236850   0.683   6.087  12.825 -0.1046  0.5810  0.2968
 5120TIP3    H136851   0.748   6.049  12.767 -1.3275 -0.4327 -0.4693
 5120TIP3    H236852   0.728   6.161  12.867  1.0088  0.9627 -1.4599
 5121TIP3   OH236853   1.003   6.347   2.321  0.3101  0.7315 -0.0434
 5121TIP3    H136854   1.098   6.348   2.307  0.2208  1.3554 -0.6494
 5121TIP3    H236855   0.969   6.291   2.252  0.5511 -2.9693  2.5627
 5122TIP3   OH236856   3.992   0.296   1.051 -0.1259  0.0198  0.0943
 5122TIP3    H136857   4.016   0.285   1.143 -0.9986  0.4719  0.3911
 5122TIP3    H236858   3.952   0.383   1.048 -1.5005 -0.6195 -0.4135
 5123TIP3   OH236859   6.510   6.027  16.895  0.0071  0.4973 -0.7129
 5123TIP3    H136860   6.464   5.995  16.972 -1.3062 -0.7574 -1.9449
 5123TIP3    H236861   6.557   5.950  16.862 -0.7951  0.5695 -2.0855
 5124TIP3   OH236862   4.287   6.246  12.265  0.2412  0.0220 -0.2208
 5124TIP3    H136863   4.367   6.284  12.301  0.5509  1.5699 -2.4250
 5124TIP3    H236864   4.314   6.161  12.231  0.5396 -0.2298  0.6196
 5125TIP3   OH236865   2.135   0.442   4.689 -0.6546 -0.0380 -0.1185
 5125TIP3    H136866   2.191   0.483   4.754 -0.5544 -0.7318  0.2452
 5125TIP3    H236867   2.171   0.354   4.679 -1.9112 -0.6415  0.4338
 5126TIP3   OH236868   6.032   1.553  13.838  0.4491 -0.3414 -0.7895
 5126TIP3    H136869   6.111   1.544  13.891 -0.3476 -0.9642  0.3194
 5126TIP3    H236870   6.000   1.463  13.826 -0.3431 -0.0625 -0.8450
 5127TIP3   OH236871   3.664   3.234   4.029  0.1112  0.4710  0.3212
 5127TIP3    H136872   3.650   3.318   4.073 -1.8625 -0.2112  1.0977
 5127TIP3    H236873   3.722   3.186   4.088  0.4832  0.9358  0.3371
 5128TIP3   OH236874   0.249   2.339   0.336 -0.1302  0.2450 -0.1154
 5128TIP3    H136875   0.267   2.330   0.430  0.7944 -0.9877 -0.3936
 5128TIP3    H236876   0.162   2.380   0.333 -0.6191 -0.6144  1.2804
 5129TIP3   OH236877   6.429   0.565  11.432  1.1649 -0.4924 -0.4855
 5129TIP3    H136878   6.410   0.523  11.348 -1.4191 -0.6047  0.0568
 5129TIP3    H236879   6.445   0.656  11.410  0.8620 -0.5916 -1.1582
 5130TIP3   OH236880   0.270   6.024  13.245 -0.3006 -0.0268  0.2146
 5130TIP3    H136881   0.211   5.949  13.241  0.0727 -0.4224  1.5610
 5130TIP3    H236882   0.275   6.056  13.154 -0.8649 -1.3085 -0.2884
 5131TIP3   OH236883   1.002   4.224   0.318  0.2638 -0.6704 -0.0536
 5131TIP3    H136884   0.916   4.185   0.335  0.6181 -1.3277  0.2679
 5131TIP3    H236885   1.056   4.198   0.393  0.2216  1.3839  0.7622
 5132TIP3   OH236886   1.376   4.087  15.193 -0.3014  0.2486  0.3515
 5132TIP3    H136887   1.423   4.122  15.268 -0.6763 -1.3466  1.3741
 5132TIP3    H236888   1.429   4.013  15.164 -0.9098 -0.0421 -0.0497
 5133TIP3   OH236889   2.375   6.796   6.040  0.5638 -0.0244  0.2140
 5133TIP3    H136890   2.448   6.780   5.981  0.7214 -1.0159  0.6481
 5133TIP3    H236891   2.416   6.816   6.124  0.4130 -2.7855  1.0423
 5134TIP3   OH236892   1.658   1.809   0.203  0.7723 -0.4161  0.0077
 5134TIP3    H136893   1.583   1.868   0.212  1.3257  0.0166  2.3586
 5134TIP3    H236894   1.623   1.722   0.225  0.5551 -0.5392 -0.7975
 5135TIP3   OH236895   1.564   5.796  13.908  0.2196 -0.3283  0.1393
 5135TIP3    H136896   1.544   5.830  13.995 -1.2808 -2.4378  0.6990
 5135TIP3    H236897   1.514   5.851  13.849  1.0485  0.9610  0.6015
 5136TIP3   OH236898   0.368   4.363   2.038  0.5283 -0.0418  0.2706
 5136TIP3    H136899   0.387   4.370   2.132 -0.2425  0.7687  0.3883
 5136TIP3    H236900   0.296   4.424   2.025  0.1585 -0.6829 -0.7278
 5137TIP3   OH236901   2.441   3.499  13.449  0.0468  0.1804  0.5024
 5137TIP3    H136902   2.468   3.568  13.509  2.5662 -0.2873  0.0046
 5137TIP3    H236903   2.522   3.454  13.426 -1.2998 -1.8769 -0.5225
 5138TIP3   OH236904   1.215   3.605   1.918 -0.5146 -0.4200  0.0461
 5138TIP3    H136905   1.242   3.584   2.008 -0.3503 -3.0782 -0.5564
 5138TIP3    H236906   1.297   3.627   1.873 -0.5393  0.4408  0.3982
 5139TIP3   OH236907   3.006   3.050   4.083 -0.2425  0.3123  0.4332
 5139TIP3    H136908   2.941   3.050   4.154 -0.3797 -1.6670  0.3602
 5139TIP3    H236909   3.089   3.032   4.128 -0.5658 -2.7321 -0.0048
 5140TIP3   OH236910   2.021   5.312  12.351  0.1432  0.3915 -0.3651
 5140TIP3    H136911   2.069   5.274  12.424  0.9099 -2.1354 -2.0539
 5140TIP3    H236912   1.929   5.294  12.369  0.0937  1.8753  1.0492
 5141TIP3   OH236913   6.737   2.426  14.886 -0.2071  0.0452  0.1325
 5141TIP3    H136914   6.706   2.364  14.951  1.3069  0.2907  1.1596
 5141TIP3    H236915   6.832   2.409  14.881 -0.2389  0.2507 -1.7847
 5142TIP3   OH236916   0.634   1.904   4.516  0.7150 -0.0235  0.3025
 5142TIP3    H136917   0.728   1.904   4.495  0.9498 -0.2792  1.3092
 5142TIP3    H236918   0.601   1.823   4.477  1.3792 -1.0831  1.8320
 5143TIP3   OH236919   2.219   0.712  12.810 -0.2137  0.7465  0.4364
 5143TIP3    H136920   2.150   0.765  12.771 -0.1379  0.3101 -0.3168
 5143TIP3    H236921   2.175   0.630  12.835  0.1473  0.1764 -0.7049
 5144TIP3   OH236922   5.483   0.261  12.539 -0.9757  0.0059  0.1890
 5144TIP3    H136923   5.395   0.227  12.523 -1.0805 -0.1735  1.0507
 5144TIP3    H236924   5.501   0.237  12.630 -0.9635  2.0709  0.7710
 5145TIP3   OH236925   0.292   5.082   1.475  0.7028  0.0098  0.2719
 5145TIP3    H136926   0.260   5.142   1.408  1.0640  0.1562  0.2315
 5145TIP3    H236927   0.270   4.995   1.442  1.7989  0.0183 -0.5309
 5146TIP3   OH236928   1.154   1.682   0.254  0.7101 -0.9777  0.0922
 5146TIP3    H136929   1.110   1.644   0.330  0.6533 -1.2554 -0.0750
 5146TIP3    H236930   1.148   1.613   0.187  0.2298 -0.5058 -0.3517
 5147TIP3   OH236931   3.989   4.447  10.941 -0.4738  0.1655  0.4256
 5147TIP3    H136932   4.030   4.405  10.866  0.3633  0.0852  0.9177
 5147TIP3    H236933   3.928   4.511  10.903  0.6057  0.7725 -0.3240
 5148TIP3   OH236934   2.247   6.756  11.077 -0.0279  0.2632  0.4566
 5148TIP3    H136935   2.332   6.800  11.079 -0.9042  2.0274  0.4645
 5148TIP3    H236936   2.263   6.674  11.030  1.0274  1.9952 -2.4173
 5149TIP3   OH236937   3.502   2.098  15.530  0.0304  0.0949  0.3615
 5149TIP3    H136938   3.588   2.140  15.525 -0.3590  0.7785 -1.5268
 5149TIP3    H236939   3.442   2.161  15.490 -1.2045 -0.7540  0.8172
 5150TIP3   OH236940   3.297   2.205   3.611  0.0311  0.3245  0.0705
 5150TIP3    H136941   3.258   2.119   3.595 -0.3397  0.4952  0.0464
 5150TIP3    H236942   3.232   2.251   3.664 -0.9049  1.4678 -1.9508
 5151TIP3   OH236943   1.073   2.936  14.020  0.1946 -0.2726  0.6363
 5151TIP3    H136944   1.088   2.845  14.046  0.5877 -1.0303 -1.9758
 5151TIP3    H236945   1.150   2.983  14.052  0.4238 -1.0259  1.2346
 5152TIP3   OH236946   6.245   6.432  13.267  0.2577 -0.1880  0.0927
 5152TIP3    H136947   6.257   6.489  13.342 -2.3641 -0.1796  0.5928
 5152TIP3    H236948   6.224   6.346  13.305 -1.9690  0.0151 -0.5305
 5153TIP3   OH236949   5.299   2.085  14.364 -0.6720 -0.2941 -0.7425
 5153TIP3    H136950   5.238   2.141  14.316  0.7565  1.6724 -0.4013
 5153TIP3    H236951   5.284   2.106  14.456  0.7790  0.6093 -0.6670
 5154TIP3   OH236952   6.790   4.862  16.306  0.0277 -0.5721  0.0354
 5154TIP3    H136953   6.719   4.923  16.285  0.4641 -0.7398 -2.2022
 5154TIP3    H236954   6.869   4.916  16.304  0.3199 -0.9957 -1.1224
 5155TIP3   OH236955   0.142   5.148  13.304 -0.1199  0.8814  0.4781
 5155TIP3    H136956   0.157   5.242  13.318 -0.8033  0.8823  1.2889
 5155TIP3    H236957   0.046   5.140  13.302 -0.0647  0.2152  0.2824
 5156TIP3   OH236958   5.352   4.330   5.446 -0.1945  0.6316  0.6723
 5156TIP3    H136959   5.320   4.358   5.360  0.0154  0.8017  0.6487
 5156TIP3    H236960   5.382   4.240   5.431 -0.6002  0.4880  0.6805
 5157TIP3   OH236961   2.997   2.609   4.593  0.3723 -0.1797  0.7658
 5157TIP3    H136962   2.910   2.647   4.579 -0.0826 -0.9538  1.3412
 5157TIP3    H236963   2.990   2.521   4.555  1.4390  0.3149 -0.6589
 5158TIP3   OH236964   0.679   1.797  13.248 -0.3947  0.1654  0.1709
 5158TIP3    H136965   0.612   1.764  13.187  0.5863 -1.0018 -0.3307
 5158TIP3    H236966   0.698   1.885  13.217 -1.6016  0.4768  0.2556
 5159TIP3   OH236967   5.015   0.372  13.646  0.4094  0.0068  0.1398
 5159TIP3    H136968   5.076   0.422  13.700  0.7224 -0.2408  0.0164
 5159TIP3    H236969   5.040   0.392  13.556  0.4841 -0.3129  0.0897
 5160TIP3   OH236970   4.700   1.312  11.652 -0.1356 -0.4830  0.2279
 5160TIP3    H136971   4.781   1.360  11.670 -0.4145  0.4320 -0.9011
 5160TIP3    H236972   4.661   1.297  11.739 -0.9759  2.9721  0.5707
 5161TIP3   OH236973   6.635   0.464   5.447 -0.0082  0.4768  0.1072
 5161TIP3    H136974   6.724   0.487   5.423 -0.0993  1.7201  0.8941
 5161TIP3    H236975   6.619   0.510   5.529 -1.4935  0.5534 -0.1911
 5162TIP3   OH236976   1.439   1.032   2.543  0.1113 -0.2838  0.2216
 5162TIP3    H136977   1.409   1.123   2.547 -0.0257 -0.2109 -1.5656
 5162TIP3    H236978   1.531   1.036   2.567  0.3369  0.4710 -0.7092
 5163TIP3   OH236979   3.016   2.844   1.472  0.0965  0.2050  0.4779
 5163TIP3    H136980   3.027   2.939   1.476  0.9517  0.1255  0.2833
 5163TIP3    H236981   2.923   2.831   1.455  0.0449  1.0274  0.0802
 5164TIP3   OH236982   0.994   0.335  15.452  0.1792 -0.3974  0.1473
 5164TIP3    H136983   1.052   0.374  15.387  0.0242 -0.8445 -0.2598
 5164TIP3    H236984   0.996   0.397  15.525  0.4984  0.0149 -0.2037
 5165TIP3   OH236985   3.263   2.176   1.990  0.5820  0.3938  0.1432
 5165TIP3    H136986   3.333   2.218   2.040 -0.0858  0.5190  1.0138
 5165TIP3    H236987   3.183   2.208   2.031 -0.0369  1.2530 -1.6395
 5166TIP3   OH236988   1.352   5.759  16.657  0.0016  0.1059 -0.1245
 5166TIP3    H136989   1.319   5.672  16.636 -1.2255  0.4734  0.2010
 5166TIP3    H236990   1.360   5.760  16.753  1.2886 -0.0655 -0.2016
 5167TIP3   OH236991   5.740   1.822   2.213  0.3317 -0.1373  0.1851
 5167TIP3    H136992   5.773   1.763   2.281  0.2616  0.2712  0.5834
 5167TIP3    H236993   5.753   1.909   2.250 -0.1020  0.0715 -0.1504
 5168TIP3   OH236994   3.255   3.474   5.712 -0.0073 -0.1400  0.3971
 5168TIP3    H136995   3.322   3.500   5.775  0.5293  1.3667 -0.7099
 5168TIP3    H236996   3.205   3.406   5.756  1.6875 -0.6720  1.5988
 5169TIP3   OH236997   3.747   2.037   5.209 -0.1213 -0.3752 -0.1581
 5169TIP3    H136998   3.774   2.097   5.140  1.8427 -1.6508 -0.5734
 5169TIP3    H236999   3.754   1.950   5.170 -2.9361 -0.9716  0.4182
 5170TIP3   OH237000   1.744   0.537   5.420 -0.3005 -0.1812  0.0657
 5170TIP3    H137001   1.780   0.475   5.483 -2.3856 -1.8215 -0.2591
 5170TIP3    H237002   1.789   0.518   5.338 -1.2511 -1.6675 -0.1479
 5171TIP3   OH237003   6.424   1.580   0.874 -0.5471  0.7408 -0.2850
 5171TIP3    H137004   6.457   1.658   0.919  0.4944  0.1301  0.0382
 5171TIP3    H237005   6.449   1.593   0.783  0.2616  0.4733 -0.1123
 5172TIP3   OH237006   0.904   2.753  14.830  0.3407 -0.1640 -0.6249
 5172TIP3    H137007   0.817   2.727  14.797  0.7455 -0.0257 -1.8433
 5172TIP3    H237008   0.902   2.727  14.922 -0.5859 -1.2238 -0.9041
 5173TIP3   OH237009   2.842   6.085  16.640  0.7937  0.4877  0.3367
 5173TIP3    H137010   2.757   6.061  16.605  2.1919 -2.4397 -1.4376
 5173TIP3    H237011   2.855   6.026  16.715  0.9838  1.4343  1.0735
 5174TIP3   OH237012   0.328   3.509   2.408  0.0551 -0.3024  0.2899
 5174TIP3    H137013   0.268   3.580   2.386  0.9651  0.2493 -0.5459
 5174TIP3    H237014   0.380   3.496   2.328  1.3492 -0.4267  1.1101
 5175TIP3   OH237015   3.466   1.569  14.424 -0.5781  0.2957 -0.2688
 5175TIP3    H137016   3.435   1.493  14.374 -0.5310  0.4520 -0.5339
 5175TIP3    H237017   3.448   1.644  14.369  1.7960  0.2633 -1.2063
 5176TIP3   OH237018   0.236   1.872  13.497 -0.1379  0.5813 -0.0349
 5176TIP3    H137019   0.168   1.804  13.503  0.0289  0.5043  1.2979
 5176TIP3    H237020   0.211   1.924  13.421 -0.3015 -0.9382 -1.0741
 5177TIP3   OH237021   4.374   1.294   5.609  0.6555 -0.4909 -0.1373
 5177TIP3    H137022   4.403   1.284   5.699  1.4175 -0.6348 -0.3923
 5177TIP3    H237023   4.405   1.381   5.583  0.9789 -0.7010 -0.4577
 5178TIP3   OH237024   3.451   3.385   0.122  0.0876 -0.2638 -0.3188
 5178TIP3    H137025   3.433   3.475   0.095  1.5754 -0.1100 -0.9128
 5178TIP3    H237026   3.469   3.391   0.216  0.0187  0.0384 -0.3246
 5179TIP3   OH237027   5.295   1.905   0.601  0.2463 -0.0276 -0.1464
 5179TIP3    H137028   5.345   1.829   0.631  0.7994  0.9512  1.6273
 5179TIP3    H237029   5.290   1.895   0.506  1.7394 -1.4188 -0.1314
 5180TIP3   OH237030   2.641   2.884  15.838  0.0588  0.4254 -0.4392
 5180TIP3    H137031   2.704   2.831  15.789 -1.5848 -2.1014  0.0195
 5180TIP3    H237032   2.627   2.961  15.783  0.5631 -0.8447 -2.4577
 5181TIP3   OH237033   0.627   1.378  15.148  0.3526 -0.1117 -0.4096
 5181TIP3    H137034   0.637   1.314  15.219  0.0187 -1.1173 -1.2422
 5181TIP3    H237035   0.715   1.412  15.135  0.6899 -0.9784 -0.4711
 5182TIP3   OH237036   2.857   2.413  13.938  0.0910 -0.5349 -0.2764
 5182TIP3    H137037   2.888   2.322  13.938  0.2025 -0.6126 -3.3381
 5182TIP3    H237038   2.934   2.465  13.915 -0.1717  0.2555  0.5697
 5183TIP3   OH237039   3.157   6.829   0.521  0.1731  0.0265  0.4131
 5183TIP3    H137040   3.162   6.924   0.527 -2.1887  0.1764  1.4156
 5183TIP3    H237041   3.246   6.799   0.537  1.1976  2.0786 -1.0492
 5184TIP3   OH237042   1.664   3.727  13.639 -0.0573 -0.5597  0.1240
 5184TIP3    H137043   1.756   3.736  13.612 -0.7445  0.5468 -2.0857
 5184TIP3    H237044   1.640   3.639  13.610  0.2946 -0.8747  0.7588
 5185TIP3   OH237045   2.279   1.273   5.094 -0.0585 -0.6450 -0.4116
 5185TIP3    H137046   2.219   1.213   5.051  0.4839 -1.2870 -0.2797
 5185TIP3    H237047   2.364   1.231   5.088  0.3701  0.2276 -0.5388
 5186TIP3   OH237048   5.682   1.857  15.105  0.6761 -0.3118  0.2320
 5186TIP3    H137049   5.675   1.763  15.115 -0.5301 -0.1683  0.9932
 5186TIP3    H237050   5.749   1.870  15.038  0.2020 -1.7368 -0.5465
 5187TIP3   OH237051   5.532   6.540   3.311  0.1732 -0.4236  0.2607
 5187TIP3    H137052   5.621   6.516   3.335  0.5087 -0.1672 -0.6792
 5187TIP3    H237053   5.490   6.562   3.394  0.8951 -0.8248  0.7456
 5188TIP3   OH237054   2.566   6.729   5.859 -0.1144 -0.3054  0.5756
 5188TIP3    H137055   2.620   6.807   5.865 -1.1294  0.5918 -1.1215
 5188TIP3    H237056   2.580   6.696   5.771 -1.3255 -0.7874  0.5339
 5189TIP3   OH237057   6.795   6.324  12.183  0.1162 -0.5727  0.0823
 5189TIP3    H137058   6.783   6.374  12.103  0.9239 -0.3560  0.0854
 5189TIP3    H237059   6.736   6.249  12.174 -0.8939  0.2091 -0.0486
 5190TIP3   OH237060   2.049   4.639   1.308 -0.3657 -0.2084 -0.5542
 5190TIP3    H137061   2.116   4.661   1.243  0.0916  0.1377  0.0225
 5190TIP3    H237062   1.981   4.706   1.296  0.7317  1.2295  0.7708
 5191TIP3   OH237063   2.152   1.765   6.119 -0.0184  0.1419 -0.0725
 5191TIP3    H137064   2.196   1.769   6.204  1.0023  1.7600 -0.6335
 5191TIP3    H237065   2.145   1.856   6.092  0.5050 -0.3942 -2.1389
 5192TIP3   OH237066   4.790   5.308  17.129  0.2580 -0.1852  0.4291
 5192TIP3    H137067   4.833   5.223  17.133  2.2320  0.6594 -1.1146
 5192TIP3    H237068   4.843   5.365  17.185 -0.5209  0.2572  0.7417
 5193TIP3   OH237069   4.042   2.933   1.960  0.1089 -0.1014 -1.0015
 5193TIP3    H137070   3.962   2.929   1.907  0.3682 -1.8642 -1.3103
 5193TIP3    H237071   4.010   2.941   2.050 -0.3820  0.3320 -1.2071
 5194TIP3   OH237072   4.774   3.625   4.629  0.2517 -0.5132  0.2561
 5194TIP3    H137073   4.793   3.614   4.722 -2.7522  0.6493  1.1235
 5194TIP3    H237074   4.720   3.705   4.625  1.3865  0.2353 -2.6665
 5195TIP3   OH237075   4.701   2.599   1.529  0.2693 -0.1579  0.1807
 5195TIP3    H137076   4.779   2.547   1.549  1.4074 -0.1722 -3.5538
 5195TIP3    H237077   4.630   2.553   1.573  2.3202  0.6076  4.9187
 5196TIP3   OH237078   5.767   4.158  15.316 -0.4768  0.1219  0.0022
 5196TIP3    H137079   5.694   4.187  15.261  0.3454  1.2515 -0.5276
 5196TIP3    H237080   5.840   4.146  15.256  0.2733  0.7913  0.7510
 5197TIP3   OH237081   5.449   0.976  15.521 -0.1048  0.1715 -0.3730
 5197TIP3    H137082   5.383   0.984  15.590  0.4517 -2.8433  0.6434
 5197TIP3    H237083   5.532   0.973  15.567  0.4100 -0.2972 -1.3068
 5198TIP3   OH237084   5.277   3.428   3.764  0.1783  0.5401 -0.0984
 5198TIP3    H137085   5.335   3.406   3.837  0.1423  2.1229  0.4587
 5198TIP3    H237086   5.193   3.448   3.806 -1.1113 -2.5808 -0.9598
 5199TIP3   OH237087   6.769   3.032  10.592  0.1772 -0.7018 -0.3313
 5199TIP3    H137088   6.730   2.944  10.597  1.1232 -1.1003  0.4086
 5199TIP3    H237089   6.860   3.016  10.566  0.0106  0.1726 -1.5297
 5200TIP3   OH237090   4.160   5.177   3.790 -0.1459  0.1258  0.1928
 5200TIP3    H137091   4.189   5.093   3.824  0.1068 -0.2777 -0.9846
 5200TIP3    H237092   4.065   5.174   3.794 -0.1301 -0.1157  0.3681
 5201TIP3   OH237093   3.047   4.212  16.335  0.3856 -0.3689  0.2209
 5201TIP3    H137094   3.096   4.131  16.321 -0.0677 -0.5253 -0.5505
 5201TIP3    H237095   2.968   4.184  16.381  0.7017 -0.2101  0.8744
 5202TIP3   OH237096   4.350   4.337  16.740 -0.2141  0.4296 -0.2302
 5202TIP3    H137097   4.348   4.427  16.708 -0.4273  0.7621  0.6790
 5202TIP3    H237098   4.258   4.317  16.761 -0.0868  0.2166  0.1382
 5203TIP3   OH237099   4.792   4.114  12.768 -0.0031 -0.0576  0.4849
 5203TIP3    H137100   4.844   4.036  12.788 -1.4978 -0.8882  1.2757
 5203TIP3    H237101   4.744   4.132  12.849  1.2855  2.5138  0.7823
 5204TIP3   OH237102   1.081   0.772  15.511 -0.2908  0.2693  0.1696
 5204TIP3    H137103   1.090   0.850  15.457 -0.9979  1.2182  1.3792
 5204TIP3    H237104   1.154   0.716  15.485 -0.1481  1.0359 -1.1787
 5205TIP3   OH237105   1.321   5.853  11.080  0.2657  0.0610  0.1299
 5205TIP3    H137106   1.318   5.949  11.082  0.2405  0.1727 -2.3434
 5205TIP3    H237107   1.388   5.833  11.015  0.2927 -1.6389  0.6369
 5206TIP3   OH237108   5.337   4.043  15.825 -0.0003 -0.2414  0.0510
 5206TIP3    H137109   5.301   3.977  15.884 -1.8182  1.5590  1.0791
 5206TIP3    H237110   5.422   4.008  15.799 -0.1211 -2.1538  1.9469
 5207TIP3   OH237111   2.126   0.886  13.058  0.0587 -0.4288  0.0416
 5207TIP3    H137112   2.180   0.827  13.006  1.0998  2.2276 -2.1832
 5207TIP3    H237113   2.037   0.855  13.046  0.6071 -1.8492 -0.5775
 5208TIP3   OH237114   0.629   2.153   5.017  0.5556  0.1367 -0.2090
 5208TIP3    H137115   0.680   2.140   4.937  1.3618  2.9968 -0.2563
 5208TIP3    H237116   0.546   2.190   4.987 -0.5466 -1.9326  0.0959
 5209TIP3   OH237117   6.447   5.399   2.438  0.1710  0.2173 -0.3106
 5209TIP3    H137118   6.481   5.454   2.367 -0.3837  1.9460  0.7012
 5209TIP3    H237119   6.461   5.451   2.517  0.2304 -1.4139  0.7990
 5210TIP3   OH237120   5.718   3.070  16.969  0.1421  0.1921 -0.1004
 5210TIP3    H137121   5.813   3.068  16.980  0.2847  2.5885 -0.3925
 5210TIP3    H237122   5.706   3.094  16.877 -0.8233 -2.2393 -0.6822
 5211TIP3   OH237123   1.978   6.217  14.505 -0.1578  0.2004  0.1653
 5211TIP3    H137124   2.005   6.231  14.414  1.1747  0.1276  0.5249
 5211TIP3    H237125   2.036   6.274  14.556  1.2898 -2.0284  1.1879
 5212TIP3   OH237126   2.653   6.585  16.721 -0.0590  0.4474  0.2153
 5212TIP3    H137127   2.610   6.670  16.732 -1.5708 -0.0512 -1.4860
 5212TIP3    H237128   2.690   6.588  16.633  0.1292 -0.5395  0.2497
 5213TIP3   OH237129   3.036   6.612  11.038  0.4601  0.0074  0.3937
 5213TIP3    H137130   2.992   6.593  11.120  1.0999 -1.2101  0.4776
 5213TIP3    H237131   3.079   6.529  11.013 -0.4192  0.0814 -1.5964
 5214TIP3   OH237132   1.252   5.661   0.892 -0.5014 -0.4470  0.1926
 5214TIP3    H137133   1.173   5.608   0.904 -0.5867 -0.4688 -0.3922
 5214TIP3    H237134   1.298   5.655   0.975 -0.2140 -1.9495 -0.0494
 5215TIP3   OH237135   5.844   1.123  14.800  0.2580  0.8877  0.5787
 5215TIP3    H137136   5.791   1.099  14.876 -1.8530 -0.8180 -1.2772
 5215TIP3    H237137   5.784   1.114  14.725  2.6264  0.9514 -1.4633
 5216TIP3   OH237138   0.485   1.708   4.370 -0.4632  0.1551 -0.1342
 5216TIP3    H137139   0.400   1.700   4.327 -0.8879  0.5160  0.6061
 5216TIP3    H237140   0.537   1.763   4.311  0.2953 -2.4502 -2.0490
 5217TIP3   OH237141   5.682   5.100  16.167 -0.3603 -0.4620  0.0429
 5217TIP3    H137142   5.613   5.140  16.219 -1.3380  0.0353 -1.5574
 5217TIP3    H237143   5.660   5.122  16.076  2.8526  1.2443 -0.4631
 5218TIP3   OH237144   0.717   6.319  11.012  0.7517  0.3484 -0.6477
 5218TIP3    H137145   0.774   6.254  10.970 -0.1462 -1.2498  0.4798
 5218TIP3    H237146   0.654   6.343  10.944  0.1476 -1.1872 -0.6880
 5219TIP3   OH237147   2.474   3.132   0.434  0.1787  0.1523 -0.3147
 5219TIP3    H137148   2.435   3.103   0.352 -0.0237  0.4747 -0.3306
 5219TIP3    H237149   2.419   3.091   0.502 -1.6744  2.4855 -0.2974
 5220TIP3   OH237150   3.929   0.410   5.022  0.5454  0.0177  0.5239
 5220TIP3    H137151   3.988   0.415   5.098  1.9360  1.4405 -0.6053
 5220TIP3    H237152   3.986   0.392   4.948 -0.8116 -1.4750 -0.2310
 5221TIP3   OH237153   3.213   2.983   4.286  0.3464 -0.3439 -0.3406
 5221TIP3    H137154   3.271   2.907   4.282  0.0621 -0.7581  2.2363
 5221TIP3    H237155   3.139   2.954   4.340 -0.5730  1.2634 -0.6803
 5222TIP3   OH237156   0.797   0.756  15.593  0.6088 -0.2440  0.1178
 5222TIP3    H137157   0.810   0.757  15.687 -0.0432  0.2145  0.2112
 5222TIP3    H237158   0.885   0.745  15.556  0.7977 -1.0389  0.7797
 5223TIP3   OH237159   2.240   6.165   3.476  0.2591  0.4138 -0.0746
 5223TIP3    H137160   2.206   6.226   3.541  0.3974 -0.3397  0.7399
 5223TIP3    H237161   2.269   6.089   3.528 -0.7616 -0.7317 -1.1137
 5224TIP3   OH237162   2.666   4.808   4.731  0.9016  0.0613  0.3572
 5224TIP3    H137163   2.679   4.894   4.690  0.8616  0.1226  0.4722
 5224TIP3    H237164   2.695   4.745   4.665 -1.7980  0.0169 -0.8768
 5225TIP3   OH237165   5.431   2.342   5.297  0.0680  0.0009 -0.6328
 5225TIP3    H137166   5.419   2.420   5.351  1.3634  1.9679 -3.0169
 5225TIP3    H237167   5.494   2.289   5.347 -1.0496  0.2672  1.1647
 5226TIP3   OH237168   0.214   2.754   0.297 -0.1533 -0.1358  0.1275
 5226TIP3    H137169   0.233   2.688   0.231  0.9591  1.1656 -0.9182
 5226TIP3    H237170   0.211   2.836   0.248 -3.6457  0.4280  1.0096
 5227TIP3   OH237171   6.518   1.534  13.138 -0.0468  0.2448 -0.5422
 5227TIP3    H137172   6.588   1.476  13.170 -0.1135  0.0335 -0.7795
 5227TIP3    H237173   6.447   1.523  13.202 -0.5024 -0.8142 -1.1981
 5228TIP3   OH237174   3.649   5.931   3.215  0.5276 -0.0979  0.0877
 5228TIP3    H137175   3.602   5.870   3.272  1.5733 -0.4691  0.5739
 5228TIP3    H237176   3.664   6.008   3.269 -0.7717  0.6132 -0.5201
 5229TIP3   OH237177   0.073   1.252  16.139  0.2003 -0.1683 -0.5597
 5229TIP3    H137178   0.080   1.345  16.161 -0.1476 -0.5765  1.3883
 5229TIP3    H237179   0.082   1.206  16.222 -2.7902 -1.7517 -0.9776
 5230TIP3   OH237180   5.147   4.088   4.222 -0.2608  0.3489  0.6331
 5230TIP3    H137181   5.132   4.010   4.169  0.8551  0.1143  0.6413
 5230TIP3    H237182   5.183   4.152   4.161  0.7570  0.1725  1.0277
 5231TIP3   OH237183   1.174   3.748  11.591  0.0442 -0.2937  0.2048
 5231TIP3    H137184   1.106   3.814  11.602  0.2730 -0.0350  0.0811
 5231TIP3    H237185   1.250   3.784  11.637  0.9270  0.6633 -1.8501
 5232TIP3   OH237186   5.192   4.248   3.847  0.0087 -0.2581 -0.1539
 5232TIP3    H137187   5.187   4.255   3.943 -1.3425 -0.6689 -0.1744
 5232TIP3    H237188   5.194   4.338   3.816  1.6740 -0.1027  0.2830
 5233TIP3   OH237189   1.581   4.298  16.047 -0.4612  0.0378 -0.1036
 5233TIP3    H137190   1.518   4.233  16.079  0.2614 -0.9621 -0.6239
 5233TIP3    H237191   1.641   4.247  15.992  1.0067  0.8784  0.6602
 5234TIP3   OH237192   6.223   5.023   3.303 -0.1202 -0.0141  0.1942
 5234TIP3    H137193   6.212   4.949   3.243 -1.1619  0.8022 -0.6501
 5234TIP3    H237194   6.163   5.004   3.375  1.4492 -1.2145  1.2594
 5235TIP3   OH237195   2.977   4.067   5.290  0.4440 -0.3769 -0.0355
 5235TIP3    H137196   3.066   4.052   5.258  0.0786 -0.0014 -1.2826
 5235TIP3    H237197   2.923   4.003   5.245  0.1503 -1.0387  1.2026
 5236TIP3   OH237198   5.631   4.385  10.153  0.4125 -0.2442  0.3253
 5236TIP3    H137199   5.681   4.311  10.117 -0.6114  0.8845 -3.8707
 5236TIP3    H237200   5.697   4.450  10.176  1.1618  0.1494 -2.5712
 5237TIP3   OH237201   3.937   6.373  12.398 -0.2593  0.0711  0.6989
 5237TIP3    H137202   3.901   6.368  12.487  0.5274 -1.3685  0.9680
 5237TIP3    H237203   3.880   6.317  12.346  1.4492 -2.1725  1.1129
 5238TIP3   OH237204   3.732   1.890   3.764  0.2068 -0.1441  0.2610
 5238TIP3    H137205   3.657   1.868   3.709  0.8500 -0.7407 -0.4099
 5238TIP3    H237206   3.751   1.982   3.745 -0.3143 -0.0100  0.3906
 5239TIP3   OH237207   1.741   1.761  13.871  0.4571 -0.0383  0.3476
 5239TIP3    H137208   1.663   1.720  13.832  0.5448 -0.7644  0.9022
 5239TIP3    H237209   1.710   1.847  13.900  0.4619  0.6301 -1.5185
 5240TIP3   OH237210   5.612   1.452  13.066  0.1721  0.2103 -0.4372
 5240TIP3    H137211   5.706   1.448  13.047  0.3706 -0.3625  0.6148
 5240TIP3    H237212   5.605   1.514  13.139  0.0674 -1.8014  1.3364
 5241TIP3   OH237213   6.747   4.502   3.147 -0.9992  0.2388  0.7493
 5241TIP3    H137214   6.842   4.508   3.157 -1.0058  1.3573  0.3204
 5241TIP3    H237215   6.729   4.408   3.140  0.1247  0.0395  0.4087
 5242TIP3   OH237216   2.580   4.457  12.880 -0.3185 -0.3144 -0.2251
 5242TIP3    H137217   2.486   4.460  12.860 -0.5274 -0.7004  0.6596
 5242TIP3    H237218   2.591   4.375  12.929  0.2321  0.3961  0.8764
 5243TIP3   OH237219   2.070   4.283   2.562 -0.1618 -0.2530  0.1441
 5243TIP3    H137220   1.983   4.304   2.527  0.8520  1.8689 -1.2871
 5243TIP3    H237221   2.054   4.261   2.654 -2.3045 -0.9608 -0.3345
 5244TIP3   OH237222   4.152   2.708   2.248  0.7061 -0.1688  0.1108
 5244TIP3    H137223   4.122   2.787   2.203 -1.0864 -0.9116 -0.0826
 5244TIP3    H237224   4.093   2.699   2.323  0.3099 -1.7751 -0.3537
 5245TIP3   OH237225   3.204   0.890   1.190  0.0654 -0.1843 -0.1695
 5245TIP3    H137226   3.289   0.933   1.191 -0.3176  0.6394 -0.9442
 5245TIP3    H237227   3.146   0.953   1.146 -1.4523  0.1987  2.2053
 5246TIP3   OH237228   5.685   0.384  15.670 -0.4101 -0.3680 -0.3449
 5246TIP3    H137229   5.666   0.315  15.606  1.2652 -0.3162 -0.9327
 5246TIP3    H237230   5.755   0.436  15.630  0.3233 -0.0261  1.3009
 5247TIP3   OH237231   3.167   1.614   0.541  0.1951 -0.5003  0.0867
 5247TIP3    H137232   3.193   1.612   0.449  0.0497  0.2422  0.0273
 5247TIP3    H237233   3.216   1.688   0.579 -1.1133  0.3391  0.1856
 5248TIP3   OH237234   0.873   0.911  17.171 -0.5343  0.1711  0.0720
 5248TIP3    H137235   0.844   0.898  17.261 -0.8447  1.6276  0.2215
 5248TIP3    H237236   0.796   0.949  17.126  0.3870  1.9568 -0.0992
 5249TIP3   OH237237   4.901   4.053   5.288  0.0692 -0.5699  0.5331
 5249TIP3    H137238   4.863   4.121   5.233  0.4842 -0.4390  0.4056
 5249TIP3    H237239   4.955   4.000   5.229  0.4506 -0.4768  0.7941
 5250TIP3   OH237240   2.432   0.078  14.855 -0.3899  0.0586 -0.2905
 5250TIP3    H137241   2.376   0.051  14.928  0.7645 -1.7570 -0.0031
 5250TIP3    H237242   2.459   0.168  14.877 -0.9274 -0.0678  0.9728
 5251TIP3   OH237243   5.573   2.833  12.762 -0.3099  0.2876  0.2046
 5251TIP3    H137244   5.628   2.773  12.812  1.6838  2.1301  0.4025
 5251TIP3    H237245   5.559   2.907  12.820 -1.0360  0.8855 -0.7028
 5252TIP3   OH237246   5.875   6.225  11.290  0.2220 -0.2449 -0.3777
 5252TIP3    H137247   5.817   6.161  11.250  0.2539  1.2498 -3.1101
 5252TIP3    H237248   5.963   6.191  11.274  0.2198  0.1506 -1.3183
 5253TIP3   OH237249   2.926   5.617   1.272  0.3318 -0.1681 -0.2180
 5253TIP3    H137250   2.834   5.592   1.274 -0.2113  1.5733 -1.1231
 5253TIP3    H237251   2.939   5.653   1.184  1.5407  0.7188  0.2885
 5254TIP3   OH237252   3.328   5.777   2.582  0.0318 -0.0438  0.1186
 5254TIP3    H137253   3.296   5.866   2.595 -2.2022 -0.8455  0.4758
 5254TIP3    H237254   3.362   5.777   2.493 -0.7421  0.9452 -0.1970
 5255TIP3   OH237255   6.694   2.257   4.324  0.1424  0.0877 -0.1479
 5255TIP3    H137256   6.635   2.187   4.296  2.0621 -0.2160 -4.2616
 5255TIP3    H237257   6.768   2.211   4.363 -0.1237  0.1117  0.3945
 5256TIP3   OH237258   3.218   2.140   5.903  1.0203  0.6384  0.2640
 5256TIP3    H137259   3.270   2.220   5.897 -0.3973  1.5185 -0.9573
 5256TIP3    H237260   3.132   2.164   5.869  0.8751 -1.6781 -1.2932
 5257TIP3   OH237261   4.696   4.919   4.272 -0.2834  0.0943  0.1146
 5257TIP3    H137262   4.716   5.012   4.284 -0.0793 -0.0216  0.6868
 5257TIP3    H237263   4.687   4.885   4.361  0.9216 -0.7010 -0.0447
 5258TIP3   OH237264   5.709   4.324  12.553 -0.1538 -0.4214 -0.3805
 5258TIP3    H137265   5.696   4.346  12.646  1.9084  0.4307 -0.2232
 5258TIP3    H237266   5.683   4.232  12.547 -0.7554 -0.3692  0.9499
 5259TIP3   OH237267   1.317   5.616  14.556  0.2350  0.2176  0.5521
 5259TIP3    H137268   1.406   5.648  14.538 -0.8447  3.1727  0.0647
 5259TIP3    H237269   1.271   5.623  14.472 -1.0267  0.7293  1.2620
 5260TIP3   OH237270   1.902   0.722  12.724  0.0579  0.0068 -0.5486
 5260TIP3    H137271   1.857   0.780  12.787 -0.5673 -1.6105  0.5694
 5260TIP3    H237272   1.875   0.755  12.638  0.0640  1.6148  0.0250
 5261TIP3   OH237273   4.951   3.292  14.970  0.3731 -0.6192 -0.5299
 5261TIP3    H137274   4.861   3.318  14.948  0.4436 -0.8271 -1.0783
 5261TIP3    H237275   5.001   3.308  14.889  0.8355 -0.4795 -0.2175
 5262TIP3   OH237276   1.978   4.002   3.080  0.0706 -0.2619  0.3067
 5262TIP3    H137277   2.063   3.978   3.116  0.8455  1.0860 -0.5307
 5262TIP3    H237278   1.948   4.074   3.134 -0.2708 -0.3613  0.2504
 5263TIP3   OH237279   2.771   6.319  14.523  0.0197 -0.4073 -0.5244
 5263TIP3    H137280   2.756   6.346  14.614 -0.1862 -0.2166 -0.6154
 5263TIP3    H237281   2.717   6.379  14.471  1.2905  0.4815 -0.8782
 5264TIP3   OH237282   4.578   5.221  12.986  0.1252 -0.0483 -0.1249
 5264TIP3    H137283   4.631   5.143  12.998  0.7921  0.5241  0.7702
 5264TIP3    H237284   4.528   5.229  13.067  1.2530  1.3156  0.4920
 5265TIP3   OH237285   2.405   4.919   0.166 -0.3073  0.6347  0.0309
 5265TIP3    H137286   2.459   4.840   0.169 -0.6034  0.4253 -0.1247
 5265TIP3    H237287   2.371   4.921   0.077  0.1561  1.2484 -0.1373
 5266TIP3   OH237288   0.119   0.361  15.275 -0.5260 -0.2939  0.7349
 5266TIP3    H137289   0.126   0.456  15.278  0.7548 -0.3119 -0.6114
 5266TIP3    H237290   0.153   0.332  15.360  1.0848  0.3975  0.3705
 5267TIP3   OH237291   5.884   4.233   1.383  0.4063 -0.2730  0.0034
 5267TIP3    H137292   5.795   4.214   1.413  0.9361  0.1075  2.0001
 5267TIP3    H237293   5.892   4.188   1.299 -0.8851 -2.4118  0.9547
 5268TIP3   OH237294   0.958   3.868  11.051  0.2677 -0.3006  0.5118
 5268TIP3    H137295   0.879   3.822  11.023  1.1652 -2.3156  1.1052
 5268TIP3    H237296   1.002   3.892  10.969 -0.0848 -0.7807  0.1771
 5269TIP3   OH237297   4.326   4.728  11.776 -0.3193  0.4178 -0.4915
 5269TIP3    H137298   4.369   4.665  11.833 -1.1526 -0.9060 -1.2830
 5269TIP3    H237299   4.377   4.726  11.695 -0.6249  0.4038 -0.6855
 5270TIP3   OH237300   3.681   2.035  16.126  0.3528  0.1264 -0.1094
 5270TIP3    H137301   3.763   2.045  16.078  0.8537 -0.4235  0.6052
 5270TIP3    H237302   3.659   2.124  16.155  2.8356 -0.0923  3.0827
 5271TIP3   OH237303   6.815   6.086   0.273  0.4149 -0.4107  0.0319
 5271TIP3    H137304   6.877   6.031   0.321  0.7375 -0.3323 -0.2906
 5271TIP3    H237305   6.864   6.166   0.253 -0.1063  0.0798  0.6595
 5272TIP3   OH237306   1.245   3.360  14.808  0.3731 -0.1833  0.2399
 5272TIP3    H137307   1.241   3.267  14.830 -2.0225  0.0026  0.9354
 5272TIP3    H237308   1.164   3.376  14.759  1.5611  1.2050 -1.3797
 5273TIP3   OH237309   6.799   1.881  13.938 -0.0743 -0.2290  0.0677
 5273TIP3    H137310   6.842   1.934  14.005 -1.8445  3.3275 -1.3732
 5273TIP3    H237311   6.862   1.877  13.866  0.2995 -0.6112  0.4145
 5274TIP3   OH237312   4.220   6.532   4.280  0.5254 -0.0557 -0.2106
 5274TIP3    H137313   4.301   6.570   4.314  0.9680 -0.9581 -0.2213
 5274TIP3    H237314   4.241   6.507   4.190  0.1008  0.1005 -0.3549
 5275TIP3   OH237315   3.305   5.642   4.802  0.5557 -0.3860  0.2634
 5275TIP3    H137316   3.298   5.565   4.746 -1.7925 -1.2158  1.5441
 5275TIP3    H237317   3.266   5.713   4.749 -0.3308 -0.8440  0.2757
 5276TIP3   OH237318   6.243   3.189   5.075 -0.5287  0.6284 -0.1992
 5276TIP3    H137319   6.268   3.126   5.007 -0.8893 -0.4848  0.6749
 5276TIP3    H237320   6.148   3.187   5.076 -0.5456  1.3011 -0.2625
 5277TIP3   OH237321   5.831   1.941   3.510  0.0876  0.1165 -0.5248
 5277TIP3    H137322   5.877   1.868   3.551 -1.2397 -1.0936 -1.0983
 5277TIP3    H237323   5.756   1.901   3.466 -1.3677  1.9677  0.1285
 5278TIP3   OH237324   4.036   4.363   3.767  0.0614 -0.1683 -0.0413
 5278TIP3    H137325   4.122   4.349   3.807  0.8725 -0.4420 -1.8106
 5278TIP3    H237326   4.015   4.280   3.725 -0.2337  0.4652 -1.1680
 5279TIP3   OH237327   4.952   4.510  15.652  0.2298 -0.8790 -0.4690
 5279TIP3    H137328   4.972   4.464  15.733  1.1914 -1.4320 -1.0006
 5279TIP3    H237329   4.930   4.599  15.679  1.6249 -0.7532  0.3189
 5280TIP3   OH237330   1.155   2.581   4.219  0.1115 -0.0875  1.1764
 5280TIP3    H137331   1.130   2.669   4.248 -2.2741 -1.1021  2.5979
 5280TIP3    H237332   1.085   2.525   4.253  0.5420 -2.2998 -1.2985
 5281TIP3   OH237333   0.692   6.566   1.248 -0.2647  0.0851 -0.4298
 5281TIP3    H137334   0.631   6.616   1.301 -0.6653 -0.2751 -0.5501
 5281TIP3    H237335   0.659   6.574   1.159 -1.7454 -2.3764 -0.1799
 5282TIP3   OH237336   4.709   1.428  16.759 -0.2300  0.3503 -0.0545
 5282TIP3    H137337   4.653   1.374  16.704 -1.7066  0.0390  1.6396
 5282TIP3    H237338   4.647   1.481  16.810  1.0455  0.5555  1.3452
 5283TIP3   OH237339   6.333   0.608   2.475  0.3725 -0.0222  0.2005
 5283TIP3    H137340   6.414   0.634   2.431  0.9299 -0.6248  0.8405
 5283TIP3    H237341   6.346   0.515   2.496 -0.6385 -0.2172 -0.0084
 5284TIP3   OH237342   2.169   3.050  14.047 -0.0642  0.2381  0.0890
 5284TIP3    H137343   2.200   3.123  13.994 -0.7909 -0.2988 -1.1243
 5284TIP3    H237344   2.149   2.981  13.984 -2.1812  0.0115  0.9096
 5285TIP3   OH237345   4.644   0.519   1.087  0.5292  0.3471  0.0856
 5285TIP3    H137346   4.661   0.595   1.141 -0.4760  0.9259 -0.3800
 5285TIP3    H237347   4.716   0.517   1.024  1.5658 -0.1896  1.2683
 5286TIP3   OH237348   1.700   1.816  12.629  0.5847 -0.1598 -0.6448
 5286TIP3    H137349   1.690   1.814  12.724  2.2972 -0.3253 -0.4335
 5286TIP3    H237350   1.724   1.906  12.609 -0.6609  0.0926 -1.0370
 5287TIP3   OH237351   2.622   1.858  14.891 -0.2754 -0.0890  0.5478
 5287TIP3    H137352   2.661   1.808  14.963  1.0637 -0.9408 -0.7250
 5287TIP3    H237353   2.652   1.814  14.812 -3.3863 -0.4586 -0.5859
 5288TIP3   OH237354   3.345   2.617   5.644 -0.2642  0.1660  0.1598
 5288TIP3    H137355   3.407   2.609   5.717  0.9227 -0.8708 -0.9276
 5288TIP3    H237356   3.325   2.710   5.639  0.6482  0.4162  0.9731
 5289TIP3   OH237357   6.444   3.018  13.053  0.2363 -0.1643 -0.0352
 5289TIP3    H137358   6.435   3.113  13.058 -0.1078 -0.2606  2.1394
 5289TIP3    H237359   6.532   3.001  13.087 -0.0599 -0.6639  0.5024
 5290TIP3   OH237360   1.596   1.533  16.963 -0.3534 -0.0148 -0.2937
 5290TIP3    H137361   1.587   1.612  16.909  0.6125 -0.7918 -1.6731
 5290TIP3    H237362   1.567   1.560  17.050  0.8265  2.1343 -0.4801
 5291TIP3   OH237363   0.147   2.022  13.726 -0.1040 -0.8270 -0.3924
 5291TIP3    H137364   0.182   2.111  13.727 -1.9126 -0.0262 -2.5844
 5291TIP3    H237365   0.178   1.985  13.644 -0.3212 -1.8362 -0.0320
 5292TIP3   OH237366   0.561   3.944  16.488 -0.4036 -0.1688 -0.0749
 5292TIP3    H137367   0.630   3.877  16.488  0.5354  0.7680 -0.9394
 5292TIP3    H237368   0.479   3.894  16.484  0.1503 -1.3318  1.9140
 5293TIP3   OH237369   1.988   3.120   3.241  0.0257  0.7239  0.0062
 5293TIP3    H137370   1.898   3.089   3.235  0.6830 -1.6041  0.9459
 5293TIP3    H237371   2.039   3.057   3.190  0.9180  3.5974 -3.0021
 5294TIP3   OH237372   1.542   5.829   3.484 -0.7088 -0.0655 -1.0770
 5294TIP3    H137373   1.607   5.874   3.430  1.9384 -0.8111  1.1821
 5294TIP3    H237374   1.520   5.893   3.552  0.0747 -0.8044 -0.0923
 5295TIP3   OH237375   1.588   6.470  12.035  0.4004 -0.3873 -0.5390
 5295TIP3    H137376   1.524   6.532  12.069  0.5038 -0.2870 -0.5256
 5295TIP3    H237377   1.544   6.385  12.040  0.2956 -0.3292 -0.4614
 5296TIP3   OH237378   1.787   2.045  16.159 -0.0476  0.0937  0.7320
 5296TIP3    H137379   1.820   1.977  16.218  0.5387  0.3488  0.7086
 5296TIP3    H237380   1.703   2.012  16.127  0.5038 -0.8813  0.2661
 5297TIP3   OH237381   4.856   1.764   3.242 -0.5151 -0.2348 -0.1240
 5297TIP3    H137382   4.920   1.825   3.204 -0.0611 -0.8817 -0.4077
 5297TIP3    H237383   4.820   1.718   3.167  0.5284 -1.6621  0.2105
 5298TIP3   OH237384   5.618   3.548   5.885  0.0943  0.3327  0.4133
 5298TIP3    H137385   5.548   3.501   5.929 -0.9897  1.3467 -0.1708
 5298TIP3    H237386   5.660   3.599   5.954 -2.4970  3.0187  0.2008
 5299TIP3   OH237387   3.937   5.657  13.769  0.1223  0.2454  0.4813
 5299TIP3    H137388   3.872   5.695  13.828 -0.4440  0.7934 -0.4698
 5299TIP3    H237389   4.020   5.665  13.816 -0.7331 -2.6069  2.7666
 5300TIP3   OH237390   6.566   6.292   4.149 -0.1661 -0.4224  0.1343
 5300TIP3    H137391   6.596   6.261   4.234 -0.3589  1.7967  1.0951
 5300TIP3    H237392   6.640   6.341   4.114 -1.5550  2.9022  1.3692
 5301TIP3   OH237393   6.189   0.779   0.225 -0.0523  0.0999 -0.0191
 5301TIP3    H137394   6.209   0.689   0.197 -0.0978 -0.5649  1.9221
 5301TIP3    H237395   6.107   0.771   0.273 -0.2534  1.2745 -0.1351
 5302TIP3   OH237396   5.784   2.528   3.857 -0.2379 -0.0639  0.3381
 5302TIP3    H137397   5.802   2.519   3.951  2.6378  2.1267  0.1338
 5302TIP3    H237398   5.849   2.471   3.815 -0.0160  0.6729 -0.3330
 5303TIP3   OH237399   5.847   6.131   1.431  0.2940  0.4087  0.3105
 5303TIP3    H137400   5.865   6.115   1.339  0.5435 -1.3131  0.6122
 5303TIP3    H237401   5.775   6.193   1.432  0.2785  0.4284 -1.0443
 5304TIP3   OH237402   3.323   0.649   0.127 -0.0991  0.2862 -0.0269
 5304TIP3    H137403   3.287   0.726   0.169  0.1611  0.5780 -0.3348
 5304TIP3    H237404   3.297   0.576   0.184 -1.0645  0.5016 -0.1808
 5305TIP3   OH237405   0.872   4.642  14.294  0.2344 -0.0456  0.2355
 5305TIP3    H137406   0.875   4.547  14.300 -1.6975 -0.0719  1.5307
 5305TIP3    H237407   0.822   4.670  14.370  0.6331  2.0161 -0.1877
 5306TIP3   OH237408   0.302   1.459   5.465  0.4138 -0.0008 -0.5193
 5306TIP3    H137409   0.361   1.403   5.414 -0.5244 -1.0278 -0.4931
 5306TIP3    H237410   0.361   1.518   5.513  1.4697 -1.4755  0.0625
 5307TIP3   OH237411   4.837   4.260   2.447  0.7586 -0.2289  0.6216
 5307TIP3    H137412   4.754   4.222   2.418  0.7040 -0.1150  0.6302
 5307TIP3    H237413   4.837   4.348   2.410 -0.4365  0.8499  3.0029
 5308TIP3   OH237414   1.406   4.760  13.490 -0.1578 -0.0847 -0.4866
 5308TIP3    H137415   1.425   4.854  13.493  0.4404 -0.2284  1.2828
 5308TIP3    H237416   1.315   4.756  13.459  0.3395  0.9473 -2.2716
 5309TIP3   OH237417   1.420   5.810   4.506 -0.5651 -0.4631 -0.1340
 5309TIP3    H137418   1.461   5.891   4.474 -1.5532  0.2520  0.3626
 5309TIP3    H237419   1.480   5.741   4.479  1.4240  0.5947  1.2982
 5310TIP3   OH237420   2.410   5.528  10.619 -0.4602  0.2645 -0.7337
 5310TIP3    H137421   2.373   5.613  10.643  0.2792  0.6905 -1.0828
 5310TIP3    H237422   2.504   5.538  10.629 -0.4581 -1.2380  1.5131
 5311TIP3   OH237423   3.931   3.776  12.387  0.4196  0.3041  0.4129
 5311TIP3    H137424   3.870   3.811  12.322 -0.8119  0.1761  1.4384
 5311TIP3    H237425   3.994   3.724  12.337  1.1144  2.3496 -0.9294
 5312TIP3   OH237426   6.270   5.242   3.018 -0.3132 -0.2660 -0.5252
 5312TIP3    H137427   6.187   5.274   3.052 -0.1259  0.0908 -0.4047
 5312TIP3    H237428   6.324   5.225   3.095  0.3264  1.1109 -0.6292
 5313TIP3   OH237429   0.806   4.734  14.553 -0.3115  0.7776 -0.2905
 5313TIP3    H137430   0.878   4.796  14.558  0.1039  0.3659 -1.0323
 5313TIP3    H237431   0.805   4.691  14.638 -0.8650  2.0778  0.3832
 5314TIP3   OH237432   6.216   6.428   0.157 -0.4118  0.4427  0.1850
 5314TIP3    H137433   6.217   6.377   0.076  0.0690 -0.8861  0.9858
 5314TIP3    H237434   6.291   6.487   0.150  0.4811 -0.6569  0.2491
 5315TIP3   OH237435   0.234   3.867  10.906  0.1832 -0.0015 -0.0123
 5315TIP3    H137436   0.168   3.849  10.839 -2.7213 -0.9828  2.8518
 5315TIP3    H237437   0.237   3.963  10.911  0.2585  0.0859 -1.2594
 5316TIP3   OH237438   4.799   0.397  14.456 -0.2592  0.1817  0.3891
 5316TIP3    H137439   4.732   0.393  14.524 -0.2289 -0.1033  0.4013
 5316TIP3    H237440   4.758   0.448  14.386 -1.1036 -1.3639 -0.2852
 5317TIP3   OH237441   3.356   0.871   5.319 -0.4417  0.1913  0.0507
 5317TIP3    H137442   3.361   0.899   5.227 -0.2019 -0.6650 -0.2016
 5317TIP3    H237443   3.280   0.917   5.354 -1.0955 -0.1925 -0.8334
 5318TIP3   OH237444   4.595   3.173  15.757  0.1000 -0.0670  0.0867
 5318TIP3    H137445   4.547   3.237  15.811 -0.1753  0.5034 -0.8150
 5318TIP3    H237446   4.639   3.117  15.821  1.7121  2.0372  0.9253
 5319TIP3   OH237447   0.433   6.123  15.293  0.9181  0.3470 -0.8270
 5319TIP3    H137448   0.487   6.047  15.313  0.9103  0.4984 -0.2058
 5319TIP3    H237449   0.343   6.092  15.301  0.9145  0.3795 -0.7399
 5320TIP3   OH237450   0.269   3.051  16.932  0.6864 -0.0765  0.0564
 5320TIP3    H137451   0.354   3.010  16.941  2.0220  2.7057  1.3400
 5320TIP3    H237452   0.208   2.991  16.974  1.9518 -2.1344 -0.9189
 5321TIP3   OH237453   5.268   3.794   6.285 -0.3636  0.0817 -0.0704
 5321TIP3    H137454   5.178   3.789   6.252  0.2584 -1.5683 -1.6645
 5321TIP3    H237455   5.309   3.713   6.254  1.5479  0.5903  1.0226
 5322TIP3   OH237456   2.975   4.961   4.151  0.1652 -0.3191 -0.2022
 5322TIP3    H137457   3.054   4.954   4.205 -0.2944  0.5621  0.5959
 5322TIP3    H237458   2.905   4.983   4.212 -0.9170 -2.0163 -0.7500
 5323TIP3   OH237459   4.922   1.113   6.123 -0.1702 -0.3437 -0.1312
 5323TIP3    H137460   4.904   1.161   6.203 -0.8353 -0.4981 -0.1813
 5323TIP3    H237461   5.002   1.064   6.141  0.7567  1.0843 -0.2216
 5324TIP3   OH237462   4.611   6.515  16.389 -0.0951  0.5626  0.3348
 5324TIP3    H137463   4.593   6.509  16.295  0.0192  0.2524  0.3340
 5324TIP3    H237464   4.608   6.424  16.420  3.2017  0.2449  0.0362
 5325TIP3   OH237465   2.409   1.586  17.087  0.1963  0.5035 -0.0533
 5325TIP3    H137466   2.326   1.619  17.051 -0.2873  0.7398  1.2420
 5325TIP3    H237467   2.384   1.533  17.162  1.1461 -0.7404 -0.5828
 5326TIP3   OH237468   5.980   4.170   2.501 -0.3483 -0.3644 -0.0684
 5326TIP3    H137469   5.990   4.264   2.486 -1.5197  0.1173  1.8004
 5326TIP3    H237470   5.913   4.143   2.438  0.1108 -0.0075 -0.7289
 5327TIP3   OH237471   0.530   1.261  11.300  0.1694 -0.3578  0.8966
 5327TIP3    H137472   0.498   1.210  11.226 -0.4862  0.6669  0.4531
 5327TIP3    H237473   0.461   1.254  11.366 -0.7979  1.4550  0.1252
 5328TIP3   OH237474   2.144   6.416   2.592 -0.5035 -0.2997  0.1830
 5328TIP3    H137475   2.083   6.343   2.603  1.7041 -2.4891 -0.9622
 5328TIP3    H237476   2.121   6.453   2.506 -0.0612 -1.3561 -0.4177
 5329TIP3   OH237477   4.633   5.848  12.040  0.6080 -0.0644  0.1448
 5329TIP3    H137478   4.683   5.855  12.122  1.3109  0.0751 -0.2836
 5329TIP3    H237479   4.564   5.785  12.059  0.9975 -0.3213  0.7403
 5330TIP3   OH237480   5.766   2.235   2.269  0.0793  0.0348  0.3207
 5330TIP3    H137481   5.778   2.275   2.182 -1.2583  0.2488  0.2164
 5330TIP3    H237482   5.841   2.176   2.278  1.6738  1.9014  0.1261
 5331TIP3   OH237483   1.863   2.390   1.716  0.4858 -0.4813 -0.2405
 5331TIP3    H137484   1.845   2.297   1.733  2.0809 -1.1656 -2.0258
 5331TIP3    H237485   1.905   2.421   1.796  0.1335 -1.3449  0.2991
 5332TIP3   OH237486   2.493   1.067  12.576 -0.2909  0.1136 -0.2366
 5332TIP3    H137487   2.439   0.998  12.614 -2.2936  0.9452 -1.4150
 5332TIP3    H237488   2.442   1.147  12.587  1.4209  1.2349 -0.0256
 5333TIP3   OH237489   4.245   6.261  11.425  0.0559 -0.0342  0.0776
 5333TIP3    H137490   4.337   6.265  11.448  0.0201  0.1740  0.1865
 5333TIP3    H237491   4.239   6.313  11.344 -0.0140  0.1920  0.2271
 5334TIP3   OH237492   6.081   0.800  11.475 -0.5714 -0.5991 -0.2132
 5334TIP3    H137493   6.043   0.713  11.487 -0.8585 -0.5859 -0.9652
 5334TIP3    H237494   6.098   0.831  11.564 -0.7363 -1.3048  0.0720
 5335TIP3   OH237495   5.267   5.867  15.473 -0.4222  0.2084  0.2720
 5335TIP3    H137496   5.329   5.906  15.534  0.0477  1.4732 -0.9602
 5335TIP3    H237497   5.286   5.909  15.389 -1.0903 -1.4239 -0.7495
 5336TIP3   OH237498   1.162   5.799  13.238  0.1291  0.4146  0.2681
 5336TIP3    H137499   1.145   5.893  13.249 -1.3339  0.3986 -1.4444
 5336TIP3    H237500   1.175   5.767  13.328  1.3138  2.3322  0.8390
 5337TIP3   OH237501   6.009   0.041   6.268 -0.2195  0.7359 -0.1344
 5337TIP3    H137502   6.030  -0.040   6.220 -1.6514  0.0682  0.2959
 5337TIP3    H237503   5.915   0.035   6.284  0.0824  1.2538  2.1796
 5338TIP3   OH237504   6.685   1.488   2.866  0.3229 -0.1614  0.3801
 5338TIP3    H137505   6.696   1.461   2.957  0.6467 -1.5480 -0.0539
 5338TIP3    H237506   6.661   1.408   2.820  0.9627  0.3660 -0.8986
 5339TIP3   OH237507   1.059   2.468   6.124  0.2133 -0.3207  0.2744
 5339TIP3    H137508   1.076   2.555   6.089 -0.2439 -0.1705  0.4121
 5339TIP3    H237509   1.042   2.482   6.217 -2.9376 -0.1036 -0.2073
 5340TIP3   OH237510   3.015   2.032  11.662  0.2588  1.0092 -0.0491
 5340TIP3    H137511   3.093   2.082  11.687 -0.0419  2.6647 -2.0851
 5340TIP3    H237512   2.950   2.054  11.729  0.9006  1.3125  0.4838
 5341TIP3   OH237513   5.207   5.542   2.074  0.3396 -0.1432  0.5105
 5341TIP3    H137514   5.252   5.619   2.040  0.6106 -0.1500  0.8380
 5341TIP3    H237515   5.277   5.478   2.089  0.2010 -0.2231  0.8438
 5342TIP3   OH237516   3.320   5.558   5.063 -0.4319  0.1834  0.1741
 5342TIP3    H137517   3.284   5.471   5.046  2.7344 -1.4647  1.0946
 5342TIP3    H237518   3.330   5.598   4.976 -1.4945 -0.5601 -0.3016
 5343TIP3   OH237519   0.775   1.308   3.511 -0.6627 -0.9214 -0.1365
 5343TIP3    H137520   0.816   1.356   3.583 -0.0803  0.0857 -1.1046
 5343TIP3    H237521   0.682   1.329   3.519 -0.6427 -1.0183  0.4524
 5344TIP3   OH237522   4.900   6.117  12.014  0.1537  0.0083 -0.3098
 5344TIP3    H137523   4.831   6.141  12.076 -0.3407  0.5787 -1.0599
 5344TIP3    H237524   4.855   6.116  11.929  0.1038 -3.5207 -0.3884
 5345TIP3   OH237525   3.737   4.342  10.786  0.6448 -0.5613 -0.1048
 5345TIP3    H137526   3.811   4.289  10.758 -0.0820 -0.7348 -1.7892
 5345TIP3    H237527   3.661   4.300  10.746 -0.6211 -1.2911  2.7753
 5346TIP3   OH237528   2.822   4.565   5.793  0.9487  0.6705  0.2318
 5346TIP3    H137529   2.830   4.629   5.721  2.9437 -0.2389 -0.4490
 5346TIP3    H237530   2.748   4.511   5.769  0.1563  1.7952  0.0541
 5347TIP3   OH237531   2.494   0.447  12.447 -1.0440  0.0760 -0.9915
 5347TIP3    H137532   2.539   0.387  12.386 -0.3023 -1.5725  1.0418
 5347TIP3    H237533   2.502   0.533  12.406  0.2293 -0.8106 -2.7673
 5348TIP3   OH237534   1.817   6.214   5.356  0.1507 -0.9472 -0.6914
 5348TIP3    H137535   1.865   6.140   5.392  2.4512  1.1256  0.8059
 5348TIP3    H237536   1.742   6.225   5.413  1.3456 -0.4454  0.8420
 5349TIP3   OH237537   1.692   6.519  14.452  0.0041 -1.0805 -0.0482
 5349TIP3    H137538   1.665   6.433  14.420  0.0218 -1.7474  1.6074
 5349TIP3    H237539   1.748   6.500  14.527 -0.7760  0.3865  0.9568
 5350TIP3   OH237540   0.243   6.788   0.578 -0.3691 -0.7914  0.0309
 5350TIP3    H137541   0.209   6.806   0.491  1.9214  0.0112 -0.7675
 5350TIP3    H237542   0.165   6.778   0.633 -1.9376  2.2380 -1.3737
 5351TIP3   OH237543   5.563   6.454   2.767 -0.1746  0.2461  0.3305
 5351TIP3    H137544   5.574   6.498   2.851  2.1348  3.1642 -1.3200
 5351TIP3    H237545   5.483   6.493   2.731  0.6771  1.5794 -0.1945
 5352TIP3   OH237546   4.927   0.636   2.851  0.2207  0.3534  0.1809
 5352TIP3    H137547   4.861   0.669   2.789 -0.2079  1.0783  0.9927
 5352TIP3    H237548   4.941   0.709   2.911  0.6583 -0.3236  0.9120
 5353TIP3   OH237549   1.145   2.973   5.509 -0.5240 -0.3242  0.2057
 5353TIP3    H137550   1.169   3.059   5.542 -2.2667  0.4989 -0.5220
 5353TIP3    H237551   1.051   2.966   5.526 -0.6228 -1.6452 -0.6904
 5354TIP3   OH237552   4.072   3.249   5.769  0.1513 -0.6350  0.1576
 5354TIP3    H137553   4.010   3.309   5.810 -1.9681 -3.1557  0.8951
 5354TIP3    H237554   4.050   3.251   5.676  1.5675  1.2292 -0.2222
 5355TIP3   OH237555   5.223   6.189   5.644  0.6724 -0.3106 -0.4550
 5355TIP3    H137556   5.285   6.256   5.672  0.3765 -1.0433  2.2306
 5355TIP3    H237557   5.221   6.126   5.715 -0.2324 -2.4001 -2.2027
 5356TIP3   OH237558   2.280   2.095   1.037 -0.4035  0.2220  0.7461
 5356TIP3    H137559   2.293   2.190   1.045  0.3141  0.0628  1.5897
 5356TIP3    H237560   2.357   2.064   0.989 -0.1254 -0.0577  1.3576
 5357TIP3   OH237561   0.888   5.731   0.646 -0.0015  0.1717  0.1010
 5357TIP3    H137562   0.838   5.756   0.723 -0.5352  2.8391 -0.9781
 5357TIP3    H237563   0.830   5.674   0.596 -0.3023 -0.1781  0.8395
 5358TIP3   OH237564   1.556   2.339  17.016 -0.1873  0.0757  0.5440
 5358TIP3    H137565   1.468   2.357  16.983  0.2702  1.0473 -0.2057
 5358TIP3    H237566   1.595   2.283  16.949  0.2168  0.7762  0.1825
 5359TIP3   OH237567   6.702   3.251   5.560  0.1804  0.3191 -0.5469
 5359TIP3    H137568   6.776   3.191   5.563 -0.6539 -0.6910  1.1495
 5359TIP3    H237569   6.643   3.213   5.495  1.1357  1.2013 -2.0084
 5360TIP3   OH237570   0.005   0.337  14.881 -0.3381  0.3565 -0.6436
 5360TIP3    H137571  -0.016   0.256  14.835 -0.5117  0.7536 -1.2782
 5360TIP3    H237572  -0.020   0.320  14.972  0.1507 -0.4906 -0.6593
 5361TIP3   OH237573   2.485   3.185   5.782  0.1990  0.0395  0.3676
 5361TIP3    H137574   2.421   3.157   5.848 -2.0983  1.4481 -1.1173
 5361TIP3    H237575   2.469   3.128   5.707 -0.1513  1.1312 -0.4205
 5362TIP3   OH237576   6.791   3.729   0.113  1.0619 -0.0110 -0.1671
 5362TIP3    H137577   6.746   3.794   0.059  2.2434 -0.0251 -1.2070
 5362TIP3    H237578   6.746   3.647   0.095  0.1481  0.3334  0.4557
 5363TIP3   OH237579   5.375   5.939   1.155  0.0039 -0.3362 -0.3910
 5363TIP3    H137580   5.424   5.888   1.219 -2.3997 -1.0353  1.0160
 5363TIP3    H237581   5.329   6.005   1.207 -0.3111  0.4991 -1.6783
 5364TIP3   OH237582   6.282   2.126   6.660 -0.1094  0.4265  0.4683
 5364TIP3    H137583   6.203   2.151   6.612  0.2357 -0.2854 -0.4891
 5364TIP3    H237584   6.311   2.045   6.619  2.7225  2.0832 -1.1743
 5365TIP3   OH237585   2.443   1.395  14.591 -0.1363 -0.1129 -0.4298
 5365TIP3    H137586   2.516   1.337  14.570  0.1226  0.4268 -1.0623
 5365TIP3    H237587   2.365   1.341  14.580  0.1705 -0.7952  0.6078
 5366TIP3   OH237588   5.541   2.598  14.356  0.1359  0.1130  0.0170
 5366TIP3    H137589   5.492   2.520  14.384 -0.0281  0.0618 -0.3990
 5366TIP3    H237590   5.495   2.671  14.397 -0.7187  0.1231 -0.9232
 5367TIP3   OH237591   0.461   0.839  15.891 -0.3756  0.0631 -0.4200
 5367TIP3    H137592   0.429   0.781  15.960  0.5149  0.6712  0.5370
 5367TIP3    H237593   0.401   0.913  15.891 -1.0848 -0.4931 -1.1453
 5368TIP3   OH237594   2.903   6.380  17.105 -0.0054  0.6319  0.2066
 5368TIP3    H137595   2.861   6.294  17.097 -0.6685  0.9714 -0.1076
 5368TIP3    H237596   2.881   6.424  17.023  1.0722  0.7867 -0.0044
 5369TIP3   OH237597   6.626   2.248   5.544 -0.0651 -0.4522 -0.2557
 5369TIP3    H137598   6.534   2.252   5.569  0.3015 -1.8360  1.5597
 5369TIP3    H237599   6.626   2.232   5.450 -1.6762 -1.0364 -0.1720
 5370TIP3   OH237600   1.327   4.861   4.808  0.3094 -0.1124  0.0529
 5370TIP3    H137601   1.345   4.955   4.800 -0.5185 -0.0608 -1.7556
 5370TIP3    H237602   1.391   4.829   4.871  0.7010  1.6420  0.5929
 5371TIP3   OH237603   2.385   4.808  16.660 -0.0564 -0.2543  0.4427
 5371TIP3    H137604   2.386   4.752  16.583  0.1729  0.2600  0.0641
 5371TIP3    H237605   2.315   4.871  16.643  1.4111  1.2334 -0.3684
 5372TIP3   OH237606   3.927   0.162  17.111  0.8983  0.3219  0.3492
 5372TIP3    H137607   3.894   0.111  17.184 -0.3979  0.6477  0.0192
 5372TIP3    H237608   3.888   0.249  17.122  1.1528  0.5449 -0.4084
 5373TIP3   OH237609   4.277   3.215   0.450 -0.0701  0.5133 -0.5880
 5373TIP3    H137610   4.243   3.289   0.399 -2.6029 -0.3389 -0.2954
 5373TIP3    H237611   4.231   3.222   0.534 -2.0258 -2.4785 -1.2656
 5374TIP3   OH237612   1.254   5.158   1.851 -0.5503  0.1349  0.1201
 5374TIP3    H137613   1.223   5.236   1.898  0.3211  1.2297 -1.0505
 5374TIP3    H237614   1.344   5.179   1.826 -0.8735 -0.5184 -1.7720
 5375TIP3   OH237615   3.035   2.810  14.109 -0.6703 -0.7243 -0.2777
 5375TIP3    H137616   3.117   2.855  14.129 -1.3106  0.6200 -0.5847
 5375TIP3    H237617   3.056   2.717  14.117  0.5689 -0.3731  0.8527
 5376TIP3   OH237618   4.135   0.174   6.114 -0.2012 -0.2583  0.0668
 5376TIP3    H137619   4.054   0.136   6.079 -0.2208  0.3616 -0.5746
 5376TIP3    H237620   4.204   0.115   6.083 -0.5088 -1.7108  1.9458
 5377TIP3   OH237621   5.157   2.668   6.674  0.1637  0.1669 -0.0672
 5377TIP3    H137622   5.196   2.744   6.631  0.5573 -0.0130 -0.0325
 5377TIP3    H237623   5.071   2.699   6.705 -0.4614  0.0935 -1.6362
 5378TIP3   OH237624   4.662   6.289  14.513  0.1788  0.1498  0.2342
 5378TIP3    H137625   4.592   6.323  14.457 -0.3418  1.5677  1.6582
 5378TIP3    H237626   4.740   6.337  14.485  0.5698 -1.2777 -1.2111
 5379TIP3   OH237627   4.251   3.705  16.898 -0.1178  0.3869  0.2342
 5379TIP3    H137628   4.245   3.677  16.990 -1.1005 -2.0999 -0.5144
 5379TIP3    H237629   4.161   3.712  16.869 -0.0723 -4.1717 -1.8985
 5380TIP3   OH237630   1.717   1.118  13.181  0.5780  0.0289 -0.0508
 5380TIP3    H137631   1.789   1.172  13.213  0.6332  0.5385 -0.9913
 5380TIP3    H237632   1.646   1.180  13.164  0.3714 -0.2905 -0.3789
 5381TIP3   OH237633   5.311   4.449  15.753  0.0167 -0.3972  0.2344
 5381TIP3    H137634   5.238   4.388  15.743 -0.8561  0.6189  0.2884
 5381TIP3    H237635   5.388   4.393  15.761 -0.7716 -1.4893  0.3329
 5382TIP3   OH237636   5.889   1.527   4.529 -0.3482 -0.4740  0.1757
 5382TIP3    H137637   5.809   1.487   4.494 -1.3282  0.0956  1.7004
 5382TIP3    H237638   5.919   1.585   4.459 -1.4467 -0.4527 -0.3015
 5383TIP3   OH237639   2.868   5.714  10.613 -0.0987 -0.3891 -1.0139
 5383TIP3    H137640   2.961   5.692  10.620  0.3665  1.7749  0.2562
 5383TIP3    H237641   2.854   5.730  10.519  1.1253  0.4616 -1.0720
 5384TIP3   OH237642   3.741   5.812   4.554  0.1591  0.5041  0.3433
 5384TIP3    H137643   3.708   5.777   4.637 -0.2615 -0.7883 -0.3401
 5384TIP3    H237644   3.696   5.896   4.544 -0.9561 -0.0287  0.6985
 5385TIP3   OH237645   2.829   3.938  11.298 -0.5220  0.1105 -0.0501
 5385TIP3    H137646   2.834   4.033  11.308 -1.3192 -0.0282  2.3790
 5385TIP3    H237647   2.829   3.905  11.388  2.1704 -2.3532 -0.7971
 5386TIP3   OH237648   2.763   5.127   5.953 -0.2126  0.4451  0.3133
 5386TIP3    H137649   2.736   5.209   5.912 -0.2596  0.1862 -0.1822
 5386TIP3    H237650   2.831   5.152   6.015 -1.0820  1.0212  1.0629
 5387TIP3   OH237651   5.361   3.185  12.912 -0.1054 -0.1371 -0.2196
 5387TIP3    H137652   5.335   3.131  12.987  1.8057  1.1153  1.4390
 5387TIP3    H237653   5.447   3.152  12.886  0.6207  1.3781  0.1503
 5388TIP3   OH237654   2.468   6.340  15.844 -0.0193  0.5895 -0.0999
 5388TIP3    H137655   2.377   6.367  15.860 -0.0221  1.2482 -1.1448
 5388TIP3    H237656   2.466   6.298  15.758  0.7010  0.7825 -0.2194
 5389TIP3   OH237657   2.095   4.642  15.182  0.3361  0.3178  0.3616
 5389TIP3    H137658   2.151   4.714  15.153  1.0798 -0.2184  0.4445
 5389TIP3    H237659   2.082   4.589  15.103 -0.2018  0.5311  0.3034
 5390TIP3   OH237660   1.250   2.084  14.419  0.2187  0.1885  0.2197
 5390TIP3    H137661   1.187   2.060  14.350 -0.1621 -0.2728  0.7162
 5390TIP3    H237662   1.315   2.015  14.417  1.8731  1.6813 -1.6446
 5391TIP3   OH237663   0.955   0.787   1.797  0.1010 -0.2401 -0.5233
 5391TIP3    H137664   0.993   0.839   1.726 -0.8628 -0.8900 -1.5391
 5391TIP3    H237665   1.027   0.732   1.827  1.1303  1.5701  0.5307
 5392TIP3   OH237666   1.649   5.071   2.306  0.1446 -0.3554 -0.1844
 5392TIP3    H137667   1.570   5.126   2.301 -0.3956 -1.1981 -1.3753
 5392TIP3    H237668   1.721   5.133   2.300 -0.4295  0.3799  0.2942
 5393TIP3   OH237669   3.237   6.714   0.943  0.3771  0.0398 -0.1199
 5393TIP3    H137670   3.297   6.788   0.941 -0.5795  0.8449 -0.1975
 5393TIP3    H237671   3.153   6.752   0.970 -0.0415 -1.0911  0.2422
 5394TIP3   OH237672   5.526   5.182   1.737 -0.1423  0.4492  1.1384
 5394TIP3    H137673   5.621   5.182   1.728 -0.1543 -1.3823  0.4522
 5394TIP3    H237674   5.502   5.089   1.738 -1.9525  0.8690  1.0328
 5395TIP3   OH237675   1.843   2.315  15.462 -0.2622  0.1201 -0.4469
 5395TIP3    H137676   1.898   2.386  15.427 -0.7951 -0.3228 -2.3093
 5395TIP3    H237677   1.786   2.359  15.526  3.2087  0.3343  2.8865
 5396TIP3   OH237678   4.783   1.356  12.918  1.5524  0.6168 -0.0490
 5396TIP3    H137679   4.763   1.278  12.971  1.2603  0.1842 -0.7834
 5396TIP3    H237680   4.878   1.359  12.916  1.5706  0.0243 -0.3771
 5397TIP3   OH237681   1.576   4.431   1.429 -0.4642  0.3477 -0.0478
 5397TIP3    H137682   1.593   4.373   1.503  1.6086  3.1098  1.8432
 5397TIP3    H237683   1.483   4.418   1.409 -0.7265 -1.5917  2.0543
 5398TIP3   OH237684   2.005   4.830   3.463  0.4314  0.2810 -0.3711
 5398TIP3    H137685   1.969   4.888   3.396 -1.3217 -1.4855 -1.0515
 5398TIP3    H237686   2.089   4.801   3.427 -0.1363 -0.0355 -1.4825
 5399TIP3   OH237687   1.608   5.367  10.703 -0.4494  0.2164  0.3650
 5399TIP3    H137688   1.666   5.407  10.638  0.0422 -0.0570  0.6227
 5399TIP3    H237689   1.520   5.380  10.669 -0.2191  0.4376 -0.1522
 5400TIP3   OH237690   6.176   0.001   5.664  0.1575  0.0444  0.8004
 5400TIP3    H137691   6.170   0.041   5.578  2.2194  0.1813  0.6792
 5400TIP3    H237692   6.211   0.070   5.721  1.5871 -0.8704  1.0796
 5401TIP3   OH237693   2.541   5.844  11.204 -0.2072  0.3943  0.7609
 5401TIP3    H137694   2.591   5.920  11.174  0.5094  0.9451  3.0957
 5401TIP3    H237695   2.596   5.769  11.180  1.3071  0.9332  2.3478
 5402TIP3   OH237696   1.806   4.144  13.473  0.7900 -0.1516  0.2623
 5402TIP3    H137697   1.712   4.128  13.466  0.5262 -0.3060  3.1965
 5402TIP3    H237698   1.814   4.239  13.483  1.2474  0.2139 -2.6332
 5403TIP3   OH237699   4.919   5.484   5.634 -0.1677 -0.4980  0.2110
 5403TIP3    H137700   5.008   5.463   5.606  0.1962  0.4408  0.6336
 5403TIP3    H237701   4.866   5.412   5.601  0.4966 -0.2515 -1.4606
 5404TIP3   OH237702   1.715   5.303   5.363 -0.2124  0.4558 -0.7669
 5404TIP3    H137703   1.779   5.323   5.295  0.8573  2.3591  0.6830
 5404TIP3    H237704   1.642   5.363   5.346  0.0611  0.9409 -0.2515
 5405TIP3   OH237705   3.526   3.764  13.761 -0.1132  0.5684  0.0165
 5405TIP3    H137706   3.607   3.717  13.742 -1.3768 -1.1603 -1.4713
 5405TIP3    H237707   3.477   3.762  13.678 -2.1468  0.5434  1.1465
 5406TIP3   OH237708   1.185   3.800  12.245 -0.1238 -0.0776  0.4883
 5406TIP3    H137709   1.198   3.774  12.154  0.8760  1.7362  0.0795
 5406TIP3    H237710   1.095   3.832  12.249  0.2421  1.0795 -0.2025
 5407TIP3   OH237711   1.524   4.640   3.026  0.3911  0.0819 -0.3321
 5407TIP3    H137712   1.463   4.582   2.980  1.0890 -0.4734 -0.5659
 5407TIP3    H237713   1.574   4.582   3.083  0.6633  0.5446 -0.0972
 5408TIP3   OH237714   2.487   2.540   3.959  0.3116  0.0148  0.3827
 5408TIP3    H137715   2.478   2.445   3.955  0.1729  0.0570 -0.5580
 5408TIP3    H237716   2.430   2.573   3.889 -0.5418  0.8524  1.4414
 5409TIP3   OH237717   6.152   4.172  15.734  0.2374  0.1267 -0.2689
 5409TIP3    H137718   6.169   4.128  15.651 -0.3033  0.6597 -0.6792
 5409TIP3    H237719   6.191   4.259  15.723  1.1810 -0.1850  0.4787
 5410TIP3   OH237720   2.257   1.952  14.347  0.0308  0.3358 -0.2662
 5410TIP3    H137721   2.234   1.859  14.340  0.2888  0.3633 -2.3307
 5410TIP3    H237722   2.209   1.983  14.424  0.2304 -1.5657  0.6855
 5411TIP3   OH237723   2.647   6.352   0.875 -0.2349 -0.1577  0.2516
 5411TIP3    H137724   2.603   6.430   0.907 -1.1155 -0.3314 -0.4945
 5411TIP3    H237725   2.726   6.385   0.832 -1.5420  0.5408 -1.7408
 5412TIP3   OH237726   3.334   5.389  14.861 -0.1090  0.3734  0.1573
 5412TIP3    H137727   3.249   5.430  14.875 -0.1018 -0.0710  1.6550
 5412TIP3    H237728   3.315   5.310  14.810 -0.3319  1.2383 -1.1627
 5413TIP3   OH237729   6.070   3.756   6.687 -0.6504  0.1862 -0.6015
 5413TIP3    H137730   6.037   3.708   6.610 -1.9579 -0.5631  0.3704
 5413TIP3    H237731   6.071   3.690   6.757  0.8371  0.7701 -0.0363
 5414TIP3   OH237732   1.205   3.637  16.448 -0.4346  0.1094  0.2885
 5414TIP3    H137733   1.269   3.686  16.396 -0.1093  1.0979  1.5532
 5414TIP3    H237734   1.179   3.564  16.392  1.2709  0.0887 -0.5467
 5415TIP3   OH237735   1.858   0.441  12.350  0.1433  0.2453 -0.7536
 5415TIP3    H137736   1.921   0.372  12.327 -0.3889 -1.1036  1.4700
 5415TIP3    H237737   1.772   0.399  12.339 -0.1643 -0.3614  2.7316
 5416TIP3   OH237738   4.297   6.062   0.004 -0.5782  0.1715 -0.1474
 5416TIP3    H137739   4.363   6.012  -0.045 -1.7901 -0.7733 -0.8810
 5416TIP3    H237740   4.321   6.153  -0.011 -0.6719 -0.0872 -2.2493
 5417TIP3   OH237741   2.911   5.968  14.498  0.0180  0.0889 -0.4321
 5417TIP3    H137742   2.956   5.887  14.476 -0.0110  0.3313 -1.4268
 5417TIP3    H237743   2.862   5.947  14.578  0.0550 -0.8575 -0.6396
 5418TIP3   OH237744   6.057   1.028   3.416 -0.0230  0.4877  0.1715
 5418TIP3    H137745   5.967   1.003   3.400 -0.1003  0.4322  0.6787
 5418TIP3    H237746   6.068   1.021   3.511  0.5605  0.3348  0.0997
 5419TIP3   OH237747   2.064   4.695   1.016  0.0713  0.7032  0.4726
 5419TIP3    H137748   1.973   4.725   1.016 -0.2783 -0.3179  0.2987
 5419TIP3    H237749   2.059   4.602   0.997  1.1498  0.5918  0.6436
 5420TIP3   OH237750   4.236   4.641  14.787 -0.2813 -0.2261 -0.3147
 5420TIP3    H137751   4.325   4.670  14.806 -0.5558  0.9910 -0.8138
 5420TIP3    H237752   4.246   4.576  14.718  0.4623 -2.4115  1.7070
 5421TIP3   OH237753   0.719   3.860   3.304 -0.3501 -0.2158 -0.1147
 5421TIP3    H137754   0.705   3.955   3.307 -2.1438 -0.4600  0.1693
 5421TIP3    H237755   0.730   3.835   3.396  0.8434 -0.2076 -0.2410
 5422TIP3   OH237756   0.723   6.373   0.847  0.6164 -0.4567 -0.0342
 5422TIP3    H137757   0.689   6.429   0.777  0.6450  0.8593  0.9628
 5422TIP3    H237758   0.801   6.418   0.878 -0.0744 -0.3401  1.6682
 5423TIP3   OH237759   3.909   2.541  16.446  0.1378 -0.1463 -0.0561
 5423TIP3    H137760   3.876   2.463  16.399 -1.2791  1.3838 -1.7889
 5423TIP3    H237761   3.995   2.557  16.408  0.2170 -0.5959 -0.0666
 5424TIP3   OH237762   1.657   6.074   2.797  0.6883 -1.0015  0.5900
 5424TIP3    H137763   1.726   6.102   2.737 -0.3884  1.2660  0.3388
 5424TIP3    H237764   1.581   6.060   2.742  0.1507 -0.5946  1.2216
 5425TIP3   OH237765   3.709   1.262   2.832  0.5343  0.2690  0.1739
 5425TIP3    H137766   3.628   1.236   2.788 -0.5007  1.2446  1.3989
 5425TIP3    H237767   3.773   1.196   2.806 -0.0975  0.5757 -2.4289
 5426TIP3   OH237768   5.757   1.023  12.640  0.6735  0.1918  0.0984
 5426TIP3    H137769   5.773   0.935  12.675  0.6189 -0.5101 -1.5616
 5426TIP3    H237770   5.843   1.053  12.609  0.9560  1.2925  1.8120
 5427TIP3   OH237771   5.974   2.031   4.960 -0.1950 -0.1307 -0.1188
 5427TIP3    H137772   5.996   2.050   5.052  0.0662 -1.6314  0.1739
 5427TIP3    H237773   6.059   2.021   4.917 -0.3039  1.6983 -0.8180
 5428TIP3   OH237774   2.967   4.826   1.790  0.0267  0.9608  0.3179
 5428TIP3    H137775   2.881   4.865   1.809 -1.4611 -2.3998  1.3075
 5428TIP3    H237776   2.978   4.759   1.857  4.2507  2.2137  1.1490
 5429TIP3   OH237777   5.828   6.471  12.861 -0.3324  0.0794 -0.3058
 5429TIP3    H137778   5.761   6.405  12.877  0.9306 -1.0423  0.6634
 5429TIP3    H237779   5.803   6.511  12.778 -2.0126 -0.4997 -0.1227
 5430TIP3   OH237780   1.360   6.235   1.993 -0.3264 -0.0105 -0.1656
 5430TIP3    H137781   1.345   6.171   1.924 -1.9103  0.1695 -0.0376
 5430TIP3    H237782   1.437   6.284   1.964  0.7870 -1.8003 -0.3619
 5431TIP3   OH237783   0.920   2.279  16.841 -0.1932  0.2648 -0.0000
 5431TIP3    H137784   0.852   2.320  16.896  0.0593  0.3457  0.2574
 5431TIP3    H237785   0.947   2.348  16.781  1.2812  0.9875  1.3909
 5432TIP3   OH237786   5.202   5.528  13.477  0.4649  0.2428 -0.3192
 5432TIP3    H137787   5.256   5.541  13.399 -2.2483 -1.4429 -2.6573
 5432TIP3    H237788   5.159   5.443  13.463 -1.2161  0.5287  2.3756
 5433TIP3   OH237789   0.986   1.383  15.900 -0.3827 -0.1816 -0.4162
 5433TIP3    H137790   0.893   1.362  15.889 -0.1511 -1.9961  0.6907
 5433TIP3    H237791   0.987   1.468  15.944 -1.6115 -1.0376  1.3979
 5434TIP3   OH237792   5.265   3.197  14.440  0.2039  0.0814  0.3295
 5434TIP3    H137793   5.217   3.128  14.393  2.0076 -1.1279  0.1689
 5434TIP3    H237794   5.303   3.151  14.515  0.5374  1.1695  0.8340
 5435TIP3   OH237795   4.980   4.509  13.491 -0.0716  0.2124  0.5234
 5435TIP3    H137796   5.055   4.514  13.432 -0.0546 -0.8420  0.4539
 5435TIP3    H237797   4.925   4.583  13.466 -0.1773 -0.3418 -0.9606
 5436TIP3   OH237798   0.251   5.505   2.587  0.1052  0.5014  0.4222
 5436TIP3    H137799   0.297   5.457   2.656 -0.5392  1.1542  1.3242
 5436TIP3    H237800   0.296   5.589   2.582 -1.1713  1.2830  1.5594
 5437TIP3   OH237801   5.983   3.366   1.695 -0.6443  0.2415 -0.7387
 5437TIP3    H137802   5.979   3.423   1.618 -1.0706  0.9595 -0.1986
 5437TIP3    H237803   5.997   3.426   1.768 -2.0173 -0.2354 -0.0447
 5438TIP3   OH237804   5.740   5.883  16.844  0.3799  0.8235  0.7249
 5438TIP3    H137805   5.703   5.934  16.916 -1.3983 -1.1916  1.3323
 5438TIP3    H237806   5.708   5.926  16.765 -0.1751  1.2920  1.1979
 5439TIP3   OH237807   3.607   1.234  11.945 -0.3540  0.7040 -0.2337
 5439TIP3    H137808   3.604   1.289  11.867 -0.9758 -0.4582 -1.0569
 5439TIP3    H237809   3.527   1.181  11.941 -0.1698  0.2907  0.9490
 5440TIP3   OH237810   5.054   1.723   5.196 -0.0484  0.3159 -0.2142
 5440TIP3    H137811   4.980   1.685   5.150  1.4918 -1.5689 -1.2809
 5440TIP3    H237812   5.042   1.698   5.288  0.0143 -1.2771 -0.6249
 5441TIP3   OH237813   5.049   6.655   0.952  0.1551 -0.1003  0.8651
 5441TIP3    H137814   5.032   6.641   1.046  0.3333 -0.2021  0.8814
 5441TIP3    H237815   4.971   6.620   0.909  1.0137 -2.1124  0.8385
 5442TIP3   OH237816   2.828   5.794   4.964 -0.0438  1.0540  0.5654
 5442TIP3    H137817   2.811   5.861   4.898 -0.5205  1.7075  1.3380
 5442TIP3    H237818   2.753   5.800   5.023 -0.0072 -0.0502  0.7397
 5443TIP3   OH237819   2.092   2.915   1.297 -0.1403  0.2777  0.1002
 5443TIP3    H137820   2.033   2.949   1.230  0.1260 -0.2409 -0.4001
 5443TIP3    H237821   2.166   2.975   1.297 -0.9659  1.3544  1.2299
 5444TIP3   OH237822   0.303   4.213   6.810 -0.0929 -0.0737  0.2649
 5444TIP3    H137823   0.331   4.305   6.814  1.9151 -0.6431  0.6614
 5444TIP3    H237824   0.221   4.215   6.761 -0.5306  2.0116  0.9598
 5445TIP3   OH237825   4.845   2.002  14.796  0.0387 -0.0796  0.0462
 5445TIP3    H137826   4.799   1.919  14.810  0.3454 -0.1411  0.7328
 5445TIP3    H237827   4.865   2.003  14.703 -1.6352  0.0960 -0.3551
 5446TIP3   OH237828   4.464   6.686  14.886  0.0344  0.3154  0.1217
 5446TIP3    H137829   4.489   6.614  14.828  0.5799 -1.8476  2.7705
 5446TIP3    H237830   4.386   6.655  14.931  0.1688  1.4392  1.2074
 5447TIP3   OH237831   3.304   4.621  13.628 -0.1582 -0.0030 -0.2231
 5447TIP3    H137832   3.373   4.655  13.685 -0.7099  0.7184  0.0372
 5447TIP3    H237833   3.263   4.551  13.679  0.2626 -0.3205 -0.3119
 5448TIP3   OH237834   0.757   6.793  14.465  0.2474  0.1445 -0.5175
 5448TIP3    H137835   0.826   6.740  14.425  0.0261 -0.7053  0.1915
 5448TIP3    H237836   0.795   6.880  14.472  0.5374  0.1706 -1.9396
 5449TIP3   OH237837   3.371   3.918  14.719 -0.0176  0.2072  0.2915
 5449TIP3    H137838   3.330   3.833  14.702 -0.5114  0.0248  2.1172
 5449TIP3    H237839   3.297   3.976  14.739  0.3039  1.1299 -1.0767
 5450TIP3   OH237840   1.330   1.285  13.496 -0.4262 -0.0120 -0.3399
 5450TIP3    H137841   1.279   1.288  13.415  2.8603  1.5285 -2.6203
 5450TIP3    H237842   1.370   1.198  13.497  0.5512  0.4049 -1.1640
 5451TIP3   OH237843   4.666   0.404   2.844 -0.3539  0.0108 -0.5304
 5451TIP3    H137844   4.616   0.329   2.812 -1.2654  0.4721 -0.2463
 5451TIP3    H237845   4.757   0.380   2.831 -0.6682 -0.2867 -2.4029
 5452TIP3   OH237846   6.154   5.404   2.365  0.2093  0.3196 -0.1556
 5452TIP3    H137847   6.235   5.356   2.385  0.3211  0.2438 -0.7711
 5452TIP3    H237848   6.183   5.494   2.348  0.2393  0.1727 -0.9256
 5453TIP3   OH237849   3.338   1.001  13.239  0.0059  0.5156 -0.3482
 5453TIP3    H137850   3.419   1.040  13.207  0.2814  0.4538  0.2735
 5453TIP3    H237851   3.362   0.912  13.262  0.3761  1.2011  2.2003
 5454TIP3   OH237852   1.599   4.974  17.068 -0.5565  0.2709  0.0716
 5454TIP3    H137853   1.529   4.982  17.132 -1.8122  0.8549 -1.3218
 5454TIP3    H237854   1.633   5.063  17.057  1.1240 -0.1425  1.4529
 5455TIP3   OH237855   0.144   2.881   5.329 -0.2998  0.0378  0.0468
 5455TIP3    H137856   0.152   2.965   5.374 -0.4404 -0.4502  1.0220
 5455TIP3    H237857   0.063   2.844   5.364  0.0402 -0.7326  0.0329
 5456TIP3   OH237858   4.551   3.217  14.357  0.3534 -0.2062  0.3729
 5456TIP3    H137859   4.485   3.281  14.383 -0.5156 -1.1876  0.6721
 5456TIP3    H237860   4.512   3.171  14.282  0.8914 -0.5010  0.2661
 5457TIP3   OH237861   5.992   3.883  15.413  0.3079  0.2129 -0.0619
 5457TIP3    H137862   6.057   3.900  15.480 -0.6373 -0.9088  1.1865
 5457TIP3    H237863   6.005   3.953  15.348  0.5433  1.9867  1.8126
 5458TIP3   OH237864   5.806   3.735  12.965  0.8839 -0.5648  0.7140
 5458TIP3    H137865   5.734   3.680  12.933 -0.8505  1.1445  1.5030
 5458TIP3    H237866   5.810   3.716  13.059 -0.4812  1.3760  1.2160
 5459TIP3   OH237867   4.501   5.604   5.785 -0.8879 -0.2960  0.1180
 5459TIP3    H137868   4.550   5.632   5.708  1.1005 -1.4529  0.8762
 5459TIP3    H237869   4.520   5.670   5.851  1.2543 -1.6546  0.9622
 5460TIP3   OH237870   5.025   6.093  13.555  0.2167  0.2876 -0.5190
 5460TIP3    H137871   5.046   6.130  13.469  0.9558 -0.6425 -0.7662
 5460TIP3    H237872   5.000   6.003  13.536 -0.4267  0.3175  0.1686
 5461TIP3   OH237873   4.562   2.529  16.894  0.2676 -0.4248 -0.4476
 5461TIP3    H137874   4.526   2.490  16.973  2.1390  1.3456  1.3754
 5461TIP3    H237875   4.619   2.599  16.924 -1.9280  3.0440 -3.4608
 5462TIP3   OH237876   6.267   0.394  10.370  0.6334  0.9286 -0.3950
 5462TIP3    H137877   6.323   0.464  10.336  1.7943 -0.2543 -0.9982
 5462TIP3    H237878   6.260   0.331  10.298  1.7567 -0.8244  0.9423
 5463TIP3   OH237879   5.712   4.812  16.007  0.0569  0.3463 -0.7410
 5463TIP3    H137880   5.713   4.907  16.001 -1.2235  0.5126  1.1018
 5463TIP3    H237881   5.798   4.789  16.042 -0.2253  0.9650  0.3800
 5464TIP3   OH237882   2.095   5.051  13.598 -0.0071  0.1644  0.6088
 5464TIP3    H137883   2.033   5.061  13.525  0.6631 -0.2883 -0.0383
 5464TIP3    H237884   2.180   5.041  13.556  0.6671  1.7802  1.5251
 5465TIP3   OH237885   4.688   5.765   3.818  0.5586 -0.2293  0.4175
 5465TIP3    H137886   4.713   5.675   3.796  0.1006 -0.0260 -1.0574
 5465TIP3    H237887   4.599   5.774   3.785  1.1786  1.2540 -0.9954
 5466TIP3   OH237888   4.299   5.860   1.113  0.1299  0.1113  0.4954
 5466TIP3    H137889   4.383   5.877   1.069 -0.3743  0.2042 -0.4614
 5466TIP3    H237890   4.306   5.905   1.197  1.0939 -0.0117  0.4936
 5467TIP3   OH237891   0.253   6.023   0.082 -0.0716 -0.6584  0.1488
 5467TIP3    H137892   0.197   6.096   0.057  1.4779  0.3789 -0.4649
 5467TIP3    H237893   0.283   6.044   0.170 -0.1065 -0.8583  0.2087
 5468TIP3   OH237894   2.598   0.648   0.397 -0.5594  0.0629 -0.0907
 5468TIP3    H137895   2.519   0.600   0.372 -0.1848 -1.3218  1.2404
 5468TIP3    H237896   2.669   0.599   0.356 -0.3262  0.9507 -0.7739
 5469TIP3   OH237897   4.836   2.864   1.780  0.0257  0.3125  0.0320
 5469TIP3    H137898   4.822   2.772   1.801  0.1821  0.2937  0.0537
 5469TIP3    H237899   4.900   2.894   1.844 -1.2138  0.8593  1.0726
 5470TIP3   OH237900   6.120   3.638  12.179 -0.3861  0.0116  0.1402
 5470TIP3    H137901   6.133   3.546  12.158 -0.0334 -0.2007  1.2169
 5470TIP3    H237902   6.138   3.684  12.097 -0.3054 -0.8499 -0.3391
 5471TIP3   OH237903   2.407   5.526  16.966  0.4048 -0.2659  0.7319
 5471TIP3    H137904   2.487   5.517  16.913 -0.5219 -2.0849 -0.4756
 5471TIP3    H237905   2.414   5.456  17.031  0.3315  0.3325  1.3936
 5472TIP3   OH237906   2.138   1.064  15.687 -0.0239 -0.5807  0.1059
 5472TIP3    H137907   2.059   1.010  15.679  1.1483 -2.3721  0.0851
 5472TIP3    H237908   2.178   1.060  15.600  0.1677  0.2036  0.1516
 5473TIP3   OH237909   1.123   3.557   4.345 -0.6855  0.0680 -0.0181
 5473TIP3    H137910   1.166   3.536   4.263 -1.8248  0.3735 -0.7128
 5473TIP3    H237911   1.181   3.620   4.388 -0.2182  0.1092 -0.7097
 5474TIP3   OH237912   1.518   1.091  17.077  0.2203  0.0888  0.6101
 5474TIP3    H137913   1.587   1.146  17.040  0.4737 -0.3889  0.3618
 5474TIP3    H237914   1.498   1.131  17.162 -1.1826  1.8903 -0.4937
 5475TIP3   OH237915   6.789   6.462  10.546  0.1512  0.4761 -0.3271
 5475TIP3    H137916   6.843   6.540  10.557  1.8908 -0.7284  0.0082
 5475TIP3    H237917   6.715   6.476  10.606  2.3792  0.2195  2.6759
 5476TIP3   OH237918   6.598   4.371  13.439 -0.0886 -0.1289 -0.4980
 5476TIP3    H137919   6.541   4.424  13.382  0.1017 -1.2462 -1.7828
 5476TIP3    H237920   6.577   4.280  13.415  2.3028 -0.5828 -1.1037
 5477TIP3   OH237921   3.351   6.545   1.126  0.4971 -0.0723 -0.1231
 5477TIP3    H137922   3.306   6.590   1.055  1.9415 -0.0077 -1.0455
 5477TIP3    H237923   3.433   6.515   1.087  2.3713  1.8499  2.0387
 5478TIP3   OH237924   1.101   4.583  13.338 -0.0307  0.6851 -0.2351
 5478TIP3    H137925   1.077   4.672  13.366 -1.8257  0.6455 -1.4636
 5478TIP3    H237926   1.043   4.565  13.264  1.6023 -0.8094 -1.2395
 5479TIP3   OH237927   2.754   4.501  14.349  0.0431  0.2446 -0.1446
 5479TIP3    H137928   2.768   4.438  14.278  0.9334 -4.6822  3.8751
 5479TIP3    H237929   2.842   4.532  14.372 -0.3285  2.6491 -1.6092
 5480TIP3   OH237930   0.012   1.470  12.774 -0.6285 -0.4083  0.1400
 5480TIP3    H137931   0.058   1.485  12.857  0.5445 -1.3431 -0.2999
 5480TIP3    H237932  -0.076   1.442  12.800 -0.4415 -0.1902  1.0534
 5481TIP3   OH237933   6.613   5.056   0.382 -0.3002  0.4717 -0.1426
 5481TIP3    H137934   6.670   5.015   0.446 -0.8993 -0.3439 -0.1260
 5481TIP3    H237935   6.673   5.102   0.323  0.4374 -0.9955 -0.5705
 5482TIP3   OH237936   1.727   6.501   1.408 -0.3633 -0.0704 -0.5557
 5482TIP3    H137937   1.785   6.487   1.483 -1.1202 -1.2924 -0.1611
 5482TIP3    H237938   1.786   6.520   1.335  0.4522 -0.0101  0.1028
 5483TIP3   OH237939   5.914   3.283  14.155  0.0929 -0.8829 -0.2916
 5483TIP3    H137940   5.857   3.282  14.231 -1.6271  0.6582 -1.4685
 5483TIP3    H237941   5.973   3.357  14.169  1.5109 -2.1355  0.6623
 5484TIP3   OH237942   2.804   0.456   1.198 -0.7420  0.1027 -0.2516
 5484TIP3    H137943   2.845   0.373   1.221  0.7818  0.6848 -0.7549
 5484TIP3    H237944   2.841   0.519   1.259 -0.1696  0.8016 -1.2871
 5485TIP3   OH237945   0.235   5.027  12.230  0.3728 -0.0138 -0.0067
 5485TIP3    H137946   0.207   5.048  12.140  1.7731  0.9392 -0.2577
 5485TIP3    H237947   0.157   4.992  12.272 -1.0433  1.9723 -0.8298
 5486TIP3   OH237948   0.257   2.123  17.105  0.0031  0.7342 -0.1005
 5486TIP3    H137949   0.338   2.133  17.055 -0.0551  1.2637 -0.0962
 5486TIP3    H237950   0.249   2.204  17.155  1.0098 -0.4581  2.1732
 5487TIP3   OH237951   1.521   3.442   5.113 -0.3966 -0.0323 -0.3479
 5487TIP3    H137952   1.467   3.459   5.190 -0.7910 -0.9359 -0.4062
 5487TIP3    H237953   1.522   3.525   5.065 -0.2172  0.5073  0.5795
 5488TIP3   OH237954   2.174   2.760  16.547 -0.0651  0.7988  0.1141
 5488TIP3    H137955   2.171   2.666  16.565  0.7861  0.7870  0.2048
 5488TIP3    H237956   2.085   2.781  16.518 -0.5215  0.1458  0.9897
 5489TIP3   OH237957   2.407   5.081  12.332 -0.3869  0.1001 -0.1123
 5489TIP3    H137958   2.406   4.992  12.366  1.1839 -0.7517 -2.0851
 5489TIP3    H237959   2.325   5.120  12.362 -1.1386 -2.0356  0.7250
 5490TIP3   OH237960   1.988   1.328   2.575  0.2635  0.1823  0.3253
 5490TIP3    H137961   2.009   1.254   2.518  0.9648  0.2444  0.4859
 5490TIP3    H237962   2.065   1.337   2.631  0.0196  0.7842  0.5731
 5491TIP3   OH237963   0.186   6.198  14.250  0.3502 -0.5305  0.4683
 5491TIP3    H137964   0.280   6.194  14.234  0.2722 -1.1105  0.1180
 5491TIP3    H237965   0.163   6.290  14.238  1.0771 -0.1488  1.8081
 5492TIP3   OH237966   2.935   2.255   0.242 -0.0594  0.0536  0.7083
 5492TIP3    H137967   2.884   2.180   0.274  0.9693 -1.9252 -1.8618
 5492TIP3    H237968   2.870   2.314   0.205 -0.7433 -1.0453  0.0813
 5493TIP3   OH237969   0.415   1.053  17.096 -0.2853  0.6788 -0.2758
 5493TIP3    H137970   0.430   1.000  17.018 -0.2461 -0.3306  0.3985
 5493TIP3    H237971   0.341   1.109  17.073 -0.2076  0.4780 -1.0636
 5494TIP3   OH237972   1.779   6.045  10.900  0.8519 -0.0891 -0.7425
 5494TIP3    H137973   1.809   6.116  10.844  0.1991 -0.2080 -1.2577
 5494TIP3    H237974   1.795   5.966  10.850 -2.3873 -0.0349 -2.0819
 5495TIP3   OH237975   0.402   0.170   5.993  0.4118 -0.1394  0.5369
 5495TIP3    H137976   0.472   0.105   5.991  0.0048 -0.5962  1.1567
 5495TIP3    H237977   0.431   0.234   6.058  1.2610  0.8280 -0.7396
 5496TIP3   OH237978   2.068   6.288  12.199 -0.7273 -0.2311 -0.3669
 5496TIP3    H137979   2.146   6.314  12.149 -1.2565  2.5114  0.0665
 5496TIP3    H237980   1.994   6.315  12.144 -1.3534 -0.5651  0.2962
 5497TIP3   OH237981   1.665   0.996  15.875 -0.2730 -0.1969 -0.1372
 5497TIP3    H137982   1.759   1.010  15.870 -0.2230 -0.4688  0.0256
 5497TIP3    H237983   1.639   1.036  15.958 -0.0760 -1.3350  0.4974
 5498TIP3   OH237984   4.206   0.087  14.130 -0.3419 -0.6730  0.2073
 5498TIP3    H137985   4.193   0.146  14.205  1.0386  0.6859 -0.5610
 5498TIP3    H237986   4.121   0.086  14.086 -0.6144  0.1104  0.6788
 5499TIP3   OH237987   0.588   0.766   0.410  0.5154  0.2856 -0.3278
 5499TIP3    H137988   0.537   0.821   0.470 -0.2145  0.3919 -1.0304
 5499TIP3    H237989   0.543   0.681   0.413  1.3943 -0.1709  0.4407
 5500TIP3   OH237990   0.664   2.066  14.660  0.5712 -0.4544  0.3439
 5500TIP3    H137991   0.745   2.106  14.627  0.1186 -1.6029 -2.4885
 5500TIP3    H237992   0.594   2.109  14.610 -0.4185 -0.6833  1.4995
 5501TIP3   OH237993   5.130   6.300  12.995 -0.0804  0.1808  0.1636
 5501TIP3    H137994   5.087   6.230  13.043 -0.6166  0.2708 -0.1677
 5501TIP3    H237995   5.141   6.266  12.906  1.0648 -0.0513  0.3868
 5502TIP3   OH237996   5.709   5.584  12.274  0.2648 -0.8513 -0.6366
 5502TIP3    H137997   5.658   5.551  12.200  0.6552 -0.3291 -1.1450
 5502TIP3    H237998   5.800   5.566  12.250  0.5080  0.7422 -1.0207
 5503TIP3   OH237999   5.955   2.015   2.267  0.3934  0.1027 -1.1766
 5503TIP3    H138000   5.910   1.983   2.345 -2.5124  1.0638 -2.3076
 5503TIP3    H238001   6.036   1.965   2.263 -0.3518 -1.4605  1.2733
 5504TIP3   OH238002   5.286   2.290   0.229 -0.4429  0.1287 -0.4236
 5504TIP3    H138003   5.328   2.325   0.150 -0.3474  1.1830  0.0680
 5504TIP3    H238004   5.242   2.210   0.200 -0.9863  0.8574 -1.7007
 5505TIP3   OH238005   1.915   6.631  13.259  0.3124 -0.3764  0.3354
 5505TIP3    H138006   1.924   6.565  13.327  0.4921  0.0289  0.7080
 5505TIP3    H238007   1.913   6.715  13.306  0.5904 -0.0844 -0.1621
 5506TIP3   OH238008   3.539   3.993  11.637  0.6418  0.3398  0.6804
 5506TIP3    H138009   3.601   3.966  11.569  2.3365  1.8704  1.5217
 5506TIP3    H238010   3.594   4.027  11.707 -1.1529  1.1694  1.7534
 5507TIP3   OH238011   4.792   4.144   3.430 -0.6290  0.0516  0.4671
 5507TIP3    H138012   4.876   4.186   3.449  0.2109 -1.8715  1.2163
 5507TIP3    H238013   4.815   4.063   3.386 -2.1160 -0.3666  0.4228
 5508TIP3   OH238014   1.642   2.390   1.541 -0.0619 -0.1769  0.1492
 5508TIP3    H138015   1.718   2.386   1.598 -0.3065  0.1126  0.5055
 5508TIP3    H238016   1.658   2.466   1.485  0.9845 -1.4719 -1.3582
 5509TIP3   OH238017   3.507   5.583   1.207  0.7408 -1.0114  0.4883
 5509TIP3    H138018   3.521   5.666   1.253 -1.9825  0.8574 -1.7175
 5509TIP3    H238019   3.585   5.572   1.153  2.0117 -1.0048  2.2087
 5510TIP3   OH238020   6.831   0.297  16.198  0.4722  0.3086 -0.7733
 5510TIP3    H138021   6.881   0.260  16.124  1.8750  1.8227 -0.6412
 5510TIP3    H238022   6.749   0.325  16.159  0.5916 -0.2518 -1.4562
 5511TIP3   OH238023   5.794   3.075  11.092 -0.3667  0.1668  0.4440
 5511TIP3    H138024   5.863   3.123  11.046 -0.1908 -1.3986 -1.0312
 5511TIP3    H238025   5.714   3.123  11.074 -0.1578  0.0924 -0.7716
 5512TIP3   OH238026   5.983   4.276  11.296  0.4636 -0.0448  0.0422
 5512TIP3    H138027   5.966   4.183  11.289 -0.9909  0.1200  0.8961
 5512TIP3    H238028   5.902   4.318  11.266  0.6105  0.9014  0.9081
 5513TIP3   OH238029   1.893   5.224   3.894  0.1127 -0.3878 -0.2746
 5513TIP3    H138030   1.888   5.264   3.808 -0.7101 -0.2104 -0.1454
 5513TIP3    H238031   1.986   5.229   3.917  0.2357  0.1464 -0.8713
 5514TIP3   OH238032   6.205   1.402  15.057 -0.1120  0.0768 -0.5906
 5514TIP3    H138033   6.172   1.326  15.010  0.0939 -1.0327  0.9923
 5514TIP3    H238034   6.300   1.391  15.057 -0.1547 -0.6693  1.1668
 5515TIP3   OH238035   6.061   0.730   1.397  0.5028 -0.3181 -0.4068
 5515TIP3    H138036   6.090   0.685   1.477 -0.7005 -0.8593 -0.2539
 5515TIP3    H238037   6.021   0.661   1.344  0.8928  0.1247 -1.2916
 5516TIP3   OH238038   0.657   1.797   4.171  0.7729 -0.0255  0.4612
 5516TIP3    H138039   0.745   1.764   4.189  1.1513  0.5819 -0.2284
 5516TIP3    H238040   0.670   1.890   4.152 -0.1385  0.2896  1.2780
 5517TIP3   OH238041   5.455   3.872   1.080 -0.3820 -0.4278 -0.0023
 5517TIP3    H138042   5.370   3.829   1.077 -0.0204 -1.2036  0.5983
 5517TIP3    H238043   5.460   3.922   0.999 -0.1528 -2.7746 -1.5140
 5518TIP3   OH238044   3.903   3.870  12.748 -0.2505 -0.3385 -0.7344
 5518TIP3    H138045   3.965   3.941  12.764  0.2203 -0.4617 -1.8712
 5518TIP3    H238046   3.847   3.868  12.826  0.3115  0.6677 -0.2865
 5519TIP3   OH238047   3.271   5.031   3.181  0.2431  0.8063  0.3913
 5519TIP3    H138048   3.296   5.064   3.095 -1.8560  3.0220  0.5238
 5519TIP3    H238049   3.182   5.063   3.194 -0.7647 -2.3116  2.0232
 5520TIP3   OH238050   4.715   5.674  15.397 -0.1715 -0.0205 -0.0382
 5520TIP3    H138051   4.660   5.703  15.470  0.8137  2.6161 -0.2316
 5520TIP3    H238052   4.675   5.713  15.320 -0.5393 -1.8366 -0.8129
 5521TIP3   OH238053   5.371   4.756   0.961  0.2468  0.3095 -0.5634
 5521TIP3    H138054   5.304   4.742   1.029  0.1704  0.9906 -0.4896
 5521TIP3    H238055   5.452   4.768   1.010  0.3580 -0.1229 -0.6370
 5522TIP3   OH238056   2.472   4.975   2.897  0.0492  0.5958 -0.2288
 5522TIP3    H138057   2.406   5.032   2.858  0.5987  0.3195 -1.6197
 5522TIP3    H238058   2.556   5.010   2.866  0.4219 -0.6395 -0.7155
 5523TIP3   OH238059   1.382   5.267   1.568  0.0078 -0.6122  0.2194
 5523TIP3    H138060   1.461   5.229   1.604 -0.3340 -2.3441 -0.7476
 5523TIP3    H238061   1.374   5.229   1.481 -0.6710  1.3050 -0.6122
 5524TIP3   OH238062   2.991   2.099   5.262 -0.0253 -0.0197  0.3194
 5524TIP3    H138063   3.053   2.166   5.233 -0.5404  0.1946 -0.3307
 5524TIP3    H238064   3.045   2.028   5.295  0.5396  1.0406  1.7914
 5525TIP3   OH238065   2.537   0.273   3.750  0.0261 -0.1477 -0.1055
 5525TIP3    H138066   2.539   0.287   3.844  0.8119  2.4265 -0.4316
 5525TIP3    H238067   2.617   0.223   3.732  1.3020  1.6611  0.3300
 5526TIP3   OH238068   5.680   6.764  15.371 -0.0436 -0.5363  0.0511
 5526TIP3    H138069   5.735   6.837  15.401  0.7388 -1.0823 -0.0413
 5526TIP3    H238070   5.590   6.796  15.382  0.2934  0.5559 -0.2749
 5527TIP3   OH238071   1.083   0.877  10.930 -0.0417 -0.1926  0.5451
 5527TIP3    H138072   1.075   0.827  11.011 -1.3134  1.3919  1.4516
 5527TIP3    H238073   1.047   0.963  10.951  0.1926  0.4688 -1.5339
 5528TIP3   OH238074   5.750   6.812  14.067  0.1567 -0.4035  0.5842
 5528TIP3    H138075   5.672   6.757  14.074 -2.4622  2.9555 -0.1907
 5528TIP3    H238076   5.751   6.843  13.977  1.7964  0.5053  0.8581
 5529TIP3   OH238077   5.794   2.427   4.518  0.1313  0.4652 -0.1303
 5529TIP3    H138078   5.760   2.509   4.554  1.1936  0.3992  1.0912
 5529TIP3    H238079   5.749   2.359   4.568  1.9370  0.3758  1.5025
 5530TIP3   OH238080   4.015   4.746  12.470  0.5746 -0.2818 -0.1276
 5530TIP3    H138081   4.016   4.839  12.445 -1.2518  0.0559  0.9065
 5530TIP3    H238082   3.955   4.742  12.544 -0.6580 -2.5631 -1.1736
 5531TIP3   OH238083   3.297   0.054   5.451 -0.3492  0.2808 -0.0384
 5531TIP3    H138084   3.334  -0.032   5.429  1.3876  0.7727  0.7649
 5531TIP3    H238085   3.223   0.033   5.508  0.8462 -0.6993  1.2536
 5532TIP3   OH238086   3.275   0.479   0.358 -0.2082  0.1068  0.2696
 5532TIP3    H138087   3.237   0.552   0.407  1.4509 -0.1128  2.0344
 5532TIP3    H238088   3.295   0.413   0.425 -0.3966 -1.4048 -1.0997
 5533TIP3   OH238089   3.852   3.469  14.040  0.3089 -0.0680  0.4649
 5533TIP3    H138090   3.898   3.548  14.069  1.2206 -0.8393  1.2023
 5533TIP3    H238091   3.863   3.408  14.113 -1.0173 -0.6307  0.2085
 5534TIP3   OH238092   1.361   0.764   4.221 -0.7314  0.4120 -0.2396
 5534TIP3    H138093   1.297   0.751   4.290 -0.0706  1.8695  0.6871
 5534TIP3    H238094   1.311   0.801   4.148 -0.9888  1.4611  0.4445
 5535TIP3   OH238095   1.704   5.026  13.181  0.0992 -0.0151 -0.0447
 5535TIP3    H138096   1.784   4.986  13.148  1.5342  2.5808  0.0369
 5535TIP3    H238097   1.670   5.077  13.108 -1.3242 -0.7827  0.0369
 5536TIP3   OH238098   2.594   3.771  14.940 -0.6649 -0.3038  0.3571
 5536TIP3    H138099   2.635   3.852  14.970  0.5882 -0.4412 -0.8633
 5536TIP3    H238100   2.553   3.794  14.856  2.8205 -1.6235 -1.9252
 5537TIP3   OH238101   2.582   5.879  12.880 -0.4585 -0.2930 -0.3744
 5537TIP3    H138102   2.608   5.787  12.888 -0.1589 -0.3679 -1.8744
 5537TIP3    H238103   2.507   5.878  12.821  0.7434  0.5578 -2.0066
 5538TIP3   OH238104   2.592   0.565  14.384  0.2666 -0.3974 -0.3886
 5538TIP3    H138105   2.671   0.587  14.434  0.6918 -0.9579 -0.7988
 5538TIP3    H238106   2.535   0.641  14.395  0.0532 -0.7820  1.5210
 5539TIP3   OH238107   4.668   1.355   3.959 -0.1105  0.5616 -0.2441
 5539TIP3    H138108   4.601   1.396   4.014  1.4152  2.2858  0.4400
 5539TIP3    H238109   4.680   1.416   3.886 -1.2100 -1.0966 -1.9032
 5540TIP3   OH238110   1.069   0.118   2.868 -0.3223  0.3879 -0.2124
 5540TIP3    H138111   1.093   0.027   2.888  0.6422  0.6723 -0.0643
 5540TIP3    H238112   1.135   0.171   2.911 -0.2064  1.1288 -1.2668
 5541TIP3   OH238113   5.728   6.697  13.140  0.0728  0.4924  0.3844
 5541TIP3    H138114   5.805   6.657  13.181 -0.2386  1.2591  1.7551
 5541TIP3    H238115   5.763   6.747  13.066  0.7935  0.1847  0.5142
 5542TIP3   OH238116   5.333   3.563   0.532  0.4324 -0.5406  0.1068
 5542TIP3    H138117   5.308   3.642   0.580 -0.2523 -0.6508 -0.0595
 5542TIP3    H238118   5.304   3.491   0.587 -2.1918 -0.6944 -1.3143
 5543TIP3   OH238119   5.232   0.708   4.873 -0.5246  0.2847  0.0456
 5543TIP3    H138120   5.173   0.779   4.896 -0.5561  1.0274 -2.1337
 5543TIP3    H238121   5.308   0.751   4.833 -1.0219 -0.9015 -2.3303
 5544TIP3   OH238122   4.352   5.998  12.564  0.6197 -0.3266 -0.2099
 5544TIP3    H138123   4.284   5.938  12.532  2.3692 -0.9132 -3.2568
 5544TIP3    H238124   4.366   5.971  12.655 -1.4478 -1.8433 -0.2569
 5545TIP3   OH238125   5.224   4.822   2.799  0.0782 -0.5419  0.1201
 5545TIP3    H138126   5.163   4.854   2.733  0.7753  1.3816  0.3413
 5545TIP3    H238127   5.310   4.852   2.769  0.5410 -0.6223  1.3080
 5546TIP3   OH238128   0.034   3.448  11.608  0.0706 -0.4805  0.6071
 5546TIP3    H138129  -0.047   3.409  11.572  0.1415  1.4438 -1.8894
 5546TIP3    H238130   0.018   3.542  11.606  1.6145 -0.1467  2.1083
 5547TIP3   OH238131   3.200   1.431   2.599  0.1111 -0.0546 -0.8237
 5547TIP3    H138132   3.172   1.520   2.578  0.7498  0.2477 -0.4232
 5547TIP3    H238133   3.203   1.386   2.515 -0.0759  0.3422 -1.0446
 5548TIP3   OH238134   4.670   4.107   0.394  0.2131  0.1676 -1.1649
 5548TIP3    H138135   4.636   4.191   0.363 -0.3776 -0.4234 -2.1580
 5548TIP3    H238136   4.611   4.042   0.358 -1.0371 -0.5779  1.8855
 5549TIP3   OH238137   4.995   1.257  15.201 -0.6029  0.2840 -0.1147
 5549TIP3    H138138   4.932   1.221  15.139 -0.3126 -1.4258  0.5319
 5549TIP3    H238139   5.074   1.273  15.150 -0.4052 -0.9997 -0.2330
 5550TIP3   OH238140   0.102   3.086   1.597 -0.0613 -0.3461  0.5178
 5550TIP3    H138141   0.014   3.056   1.573  0.2561 -1.3826  0.5956
 5550TIP3    H238142   0.091   3.131   1.680 -1.3399  4.0420 -1.7118
 5551TIP3   OH238143   2.824   3.763   4.801  1.0880  0.4019 -0.5666
 5551TIP3    H138144   2.884   3.689   4.802  1.8555  0.9598 -2.1466
 5551TIP3    H238145   2.739   3.725   4.822  1.7691 -0.6040  0.4827
 5552TIP3   OH238146   4.424   5.865  15.227  0.6153 -0.1770  0.5022
 5552TIP3    H138147   4.351   5.924  15.247  1.0091  0.1886  0.8674
 5552TIP3    H238148   4.383   5.793  15.178  0.0717  0.2113  0.3709
 5553TIP3   OH238149   5.890   0.143   5.896 -0.0893  0.0651 -0.0556
 5553TIP3    H138150   5.881   0.052   5.922  0.9669  0.1690  0.7055
 5553TIP3    H238151   5.952   0.142   5.823  0.8300  0.2655  0.6956
 5554TIP3   OH238152   5.185   6.831  16.832 -0.6254 -0.6655  0.3432
 5554TIP3    H138153   5.103   6.815  16.786 -0.7833  0.2390  0.3018
 5554TIP3    H238154   5.252   6.792  16.774 -0.9614 -0.8838  0.0948
 5555TIP3   OH238155   4.217   5.631  13.851 -0.0767  0.0267  0.4854
 5555TIP3    H138156   4.293   5.673  13.810 -0.6477 -1.3796 -2.2026
 5555TIP3    H238157   4.255   5.579  13.923  1.3340  0.3164 -0.0116
 5556TIP3   OH238158   4.123   4.926   5.644 -0.5323  0.7177  0.1833
 5556TIP3    H138159   4.209   4.889   5.626 -0.6057  0.2923  0.6678
 5556TIP3    H238160   4.137   5.021   5.642  0.0909  0.6575  0.8797
 5557TIP3   OH238161   1.375   4.192   2.175 -0.3524  0.0595 -0.0371
 5557TIP3    H138162   1.408   4.169   2.262 -1.2651 -0.0866  0.2840
 5557TIP3    H238163   1.377   4.110   2.126  1.3828  0.3962 -0.5822
 5558TIP3   OH238164   6.301   5.837   4.999  0.0111 -0.2240  0.2046
 5558TIP3    H138165   6.336   5.837   5.088  0.4376 -1.6075  0.0561
 5558TIP3    H238166   6.375   5.859   4.944 -0.1430  0.1595  0.1481
 5559TIP3   OH238167   2.355   2.459  11.244 -0.7310 -0.3869 -0.6909
 5559TIP3    H138168   2.300   2.503  11.180 -0.4085 -0.8122 -1.2689
 5559TIP3    H238169   2.303   2.457  11.324 -0.3259  2.1172 -0.2651
 5560TIP3   OH238170   6.646   2.182   2.495 -0.6791  0.3482  0.3046
 5560TIP3    H138171   6.611   2.245   2.432 -0.6507 -0.5486 -0.6319
 5560TIP3    H238172   6.577   2.172   2.560 -0.4930  1.6965  0.7378
 5561TIP3   OH238173   3.850   1.759   5.213  0.5708 -0.3330 -0.5810
 5561TIP3    H138174   3.788   1.686   5.218  0.8307 -0.4858  0.9725
 5561TIP3    H238175   3.900   1.753   5.295  1.3674  0.9063 -0.9561
 5562TIP3   OH238176   4.320   2.166  13.679 -0.4826  0.1463 -0.1078
 5562TIP3    H138177   4.314   2.206  13.592 -0.2827 -1.2878 -0.8112
 5562TIP3    H238178   4.408   2.189  13.710 -0.2219 -0.0808 -0.6700
 5563TIP3   OH238179   5.304   5.170  15.103  0.5140 -0.2944  0.3239
 5563TIP3    H138180   5.295   5.120  15.184 -1.0928 -0.7244 -0.0819
 5563TIP3    H238181   5.312   5.103  15.035  0.9567  0.0509  0.0297
 5564TIP3   OH238182   2.096   3.568  13.822 -0.3155 -0.0088 -0.1557
 5564TIP3    H138183   2.174   3.549  13.769  1.9556 -0.1235  2.9324
 5564TIP3    H238184   2.066   3.482  13.851 -2.4106 -0.0597 -2.2167
 5565TIP3   OH238185   4.579   1.428  11.118 -0.0039 -0.1145  0.2560
 5565TIP3    H138186   4.507   1.486  11.142 -0.3341  0.0336 -0.9926
 5565TIP3    H238187   4.617   1.469  11.040  0.3333 -1.1095 -0.1095
 5566TIP3   OH238188   2.012   2.647   3.713  0.2666 -0.3850  0.3688
 5566TIP3    H138189   2.052   2.570   3.674  0.0416 -0.0735 -0.4869
 5566TIP3    H238190   1.925   2.617   3.741 -0.0972 -0.2841 -0.6017
 5567TIP3   OH238191   3.761   3.459   3.157  0.1763  0.3327  0.0999
 5567TIP3    H138192   3.726   3.483   3.072  1.2960  0.1895 -0.4198
 5567TIP3    H238193   3.684   3.442   3.211 -0.5487  0.5618 -0.8390
 5568TIP3   OH238194   5.953   3.489   5.235 -0.0558 -0.0855  0.0095
 5568TIP3    H138195   5.924   3.466   5.147  0.2241  1.1318 -0.4281
 5568TIP3    H238196   5.886   3.551   5.266  0.6134  0.6408  0.0526
 5569TIP3   OH238197   5.431   3.924   3.820  0.0476 -0.0216 -0.5134
 5569TIP3    H138198   5.423   4.011   3.861 -0.6321  0.3355 -1.3655
 5569TIP3    H238199   5.525   3.910   3.813  0.2237 -0.4152  1.7865
 5570TIP3   OH238200   6.699   2.493  14.104 -0.0878  0.0288 -0.0264
 5570TIP3    H138201   6.617   2.542  14.097 -0.0300  0.9370  3.5014
 5570TIP3    H238202   6.673   2.403  14.118 -0.4014  0.0426 -0.5030
 5571TIP3   OH238203   3.330   6.266  16.201 -0.1569  0.5120  0.2258
 5571TIP3    H138204   3.306   6.246  16.110  1.6708 -0.5042 -0.1020
 5571TIP3    H238205   3.260   6.227  16.253 -0.6836  0.1567 -0.7146
 5572TIP3   OH238206   3.910   2.105   4.091  0.6571  0.7334 -0.0508
 5572TIP3    H138207   3.974   2.163   4.049 -0.1787  0.7588 -1.3247
 5572TIP3    H238208   3.827   2.125   4.048 -0.4522  1.4068  2.2607
 5573TIP3   OH238209   2.294   1.503  11.177  0.3275 -0.9064 -0.3672
 5573TIP3    H138210   2.220   1.545  11.132 -0.4141 -0.0412  1.5430
 5573TIP3    H238211   2.370   1.554  11.151 -0.0885 -0.3836 -0.5848
 5574TIP3   OH238212   5.460   0.841  11.973  0.1630  0.0223 -0.1375
 5574TIP3    H138213   5.454   0.754  12.011  1.5633  0.2367  0.6567
 5574TIP3    H238214   5.383   0.888  12.006 -0.6246 -0.8999 -0.6108
 5575TIP3   OH238215   4.735   0.912  14.010  0.2262 -0.5539 -0.3450
 5575TIP3    H138216   4.718   0.982  13.947 -0.2951 -0.5091 -0.1604
 5575TIP3    H238217   4.659   0.912  14.067  0.0300 -1.5397 -0.5859
 5576TIP3   OH238218   0.973   6.613   4.077  0.4132 -0.3847  0.0058
 5576TIP3    H138219   1.001   6.704   4.067  2.2656 -1.0260 -1.0380
 5576TIP3    H238220   1.003   6.589   4.165 -1.4097  0.3996  0.9045
 5577TIP3   OH238221   4.991   5.439  13.867  0.0689 -0.1135 -0.1319
 5577TIP3    H138222   4.938   5.392  13.803 -0.3954  0.0128  0.1583
 5577TIP3    H238223   4.932   5.505  13.903  0.3275 -0.1943  0.4376
 5578TIP3   OH238224   3.724   2.304  11.269 -0.4097 -0.4667  0.2974
 5578TIP3    H138225   3.820   2.302  11.272 -0.3606  1.0668  2.6273
 5578TIP3    H238226   3.704   2.324  11.178  1.6031  1.4487  0.1797
 5579TIP3   OH238227   3.723   6.480  11.949 -0.6655 -0.0577  0.6738
 5579TIP3    H138228   3.671   6.462  12.027  0.2743 -1.5209  0.9949
 5579TIP3    H238229   3.806   6.515  11.983 -0.7575  0.6138  0.2449
 5580TIP3   OH238230   0.918   0.868  12.740  0.5442  0.2256  0.0523
 5580TIP3    H138231   0.996   0.905  12.781  0.2059  2.0843 -0.8656
 5580TIP3    H238232   0.846   0.923  12.772 -0.3009 -1.0192  0.3280
 5581TIP3   OH238233   2.167   5.309   4.398 -0.2857 -0.6956 -0.1411
 5581TIP3    H138234   2.244   5.356   4.431  0.8089 -1.2781 -1.7664
 5581TIP3    H238235   2.115   5.375   4.353 -0.8144 -0.2861  1.0224
 5582TIP3   OH238236   4.302   3.037  11.573 -0.1628  0.4961  0.0131
 5582TIP3    H138237   4.209   3.022  11.588 -0.0749 -0.7478 -0.5811
 5582TIP3    H238238   4.308   3.055  11.479  0.2516  0.1288 -0.0326
 5583TIP3   OH238239   2.311   4.234   5.425 -0.3965 -0.0749  0.2818
 5583TIP3    H138240   2.309   4.283   5.508  0.6965 -0.6369  0.6611
 5583TIP3    H238241   2.298   4.143   5.452 -1.0518 -0.1595 -0.2862
 5584TIP3   OH238242   5.787   5.795   4.937  0.6550  0.3266  0.2112
 5584TIP3    H138243   5.766   5.799   4.844 -0.2403 -1.7178  0.2642
 5584TIP3    H238244   5.803   5.702   4.954 -0.7129  0.4127  2.4007
 5585TIP3   OH238245   2.338   4.504  16.760 -0.2196  0.7700  0.3670
 5585TIP3    H138246   2.406   4.443  16.787 -1.6090 -0.0522  2.2714
 5585TIP3    H238247   2.365   4.535  16.674  1.9970 -0.3110  0.6189
 5586TIP3   OH238248   2.736   5.919   1.160  0.2988 -0.2974 -0.2556
 5586TIP3    H138249   2.802   5.875   1.108  0.4065 -0.1713 -0.2275
 5586TIP3    H238250   2.654   5.873   1.140 -0.0836  1.1062 -2.2472
 5587TIP3   OH238251   0.717   4.367  15.582  0.2202 -0.3854  0.3907
 5587TIP3    H138252   0.682   4.288  15.542  1.0345 -0.5832  0.0438
 5587TIP3    H238253   0.783   4.398  15.520  0.5620  0.0472  0.9591
 5588TIP3   OH238254   5.520   1.512   2.697 -0.2583 -0.2156 -0.0708
 5588TIP3    H138255   5.474   1.546   2.773 -0.4211 -0.2484 -0.1531
 5588TIP3    H238256   5.564   1.433   2.728 -0.2628 -0.1875  0.0070
 5589TIP3   OH238257   6.159   0.058   3.848  0.3411  0.1773  0.0833
 5589TIP3    H138258   6.154  -0.036   3.863  1.6140 -0.1354 -1.2180
 5589TIP3    H238259   6.176   0.096   3.934  0.6918 -0.8660  0.4867
 5590TIP3   OH238260   5.787   1.692   3.883 -0.0510 -0.4367  0.6801
 5590TIP3    H138261   5.779   1.687   3.978 -0.5198 -0.9689  0.6201
 5590TIP3    H238262   5.843   1.618   3.860 -0.9623 -1.0768  0.4380
 5591TIP3   OH238263   6.400   2.052  15.574 -0.1326 -0.0237  0.2237
 5591TIP3    H138264   6.418   2.025  15.665 -2.1517 -1.2349  0.3293
 5591TIP3    H238265   6.334   2.120  15.582  0.6667  0.8383 -0.3163
 5592TIP3   OH238266   1.228   4.586  11.791 -0.4171  0.4431 -0.9544
 5592TIP3    H138267   1.225   4.660  11.730 -0.2096  1.6816  0.4511
 5592TIP3    H238268   1.279   4.619  11.865 -2.5368 -0.1954  0.8897
 5593TIP3   OH238269   3.206   4.347   1.490  0.4436 -0.5751 -0.4062
 5593TIP3    H138270   3.224   4.291   1.414  0.4667 -0.5877 -0.3913
 5593TIP3    H238271   3.111   4.360   1.487  0.6161  0.6681 -1.3065
 5594TIP3   OH238272   5.263   1.098   2.644 -0.0688 -0.4464  0.2026
 5594TIP3    H138273   5.245   1.004   2.645  0.2701 -0.5164  0.0618
 5594TIP3    H238274   5.241   1.126   2.556  0.3154 -0.4952  0.0889
 5595TIP3   OH238275   5.245   1.679  14.616  0.3719 -0.2744 -0.4158
 5595TIP3    H138276   5.262   1.770  14.639  0.5473 -0.1918 -0.8732
 5595TIP3    H238277   5.328   1.647  14.582 -0.5609  0.4142 -3.6176
 5596TIP3   OH238278   4.849   2.617   2.091 -0.7934  0.2926  0.0993
 5596TIP3    H138279   4.838   2.681   2.161 -1.6169  0.1089  0.1424
 5596TIP3    H238280   4.764   2.615   2.046 -0.8533 -0.9173  0.2309
 5597TIP3   OH238281   4.996   5.887  11.880 -0.7519 -0.0284 -0.9409
 5597TIP3    H138282   4.934   5.815  11.868 -0.1865 -0.2855 -2.5911
 5597TIP3    H238283   4.944   5.958  11.915 -1.1553 -1.4862  1.6502
 5598TIP3   OH238284   3.980   6.349   3.218 -0.1310 -0.6111  0.2088
 5598TIP3    H138285   4.070   6.318   3.226 -0.5346 -2.0848 -0.6595
 5598TIP3    H238286   3.939   6.288   3.158 -1.0350  1.5329 -1.4967
 5599TIP3   OH238287   5.736   4.659  11.405  0.2304 -0.6086  0.2261
 5599TIP3    H138288   5.788   4.725  11.359 -1.1769 -0.1605 -0.7789
 5599TIP3    H238289   5.720   4.698  11.491  1.0806 -0.5303  0.3634
 5600TIP3   OH238290   3.187   4.706  17.105 -1.1571 -0.1428 -0.0642
 5600TIP3    H138291   3.201   4.765  17.031  1.2146 -0.9939 -0.3776
 5600TIP3    H238292   3.187   4.763  17.182  1.4055  0.3372 -0.3258
 5601TIP3   OH238293   2.210   2.647   3.178 -0.3731  0.4309  0.2343
 5601TIP3    H138294   2.126   2.677   3.142 -1.7129 -1.0104  2.0114
 5601TIP3    H238295   2.245   2.589   3.110 -1.1168  0.5820 -0.2928
 5602TIP3   OH238296   3.617   4.747  15.769 -0.3692  0.0336  0.0946
 5602TIP3    H138297   3.678   4.780  15.703 -0.4570 -0.7124 -0.3639
 5602TIP3    H238298   3.666   4.681  15.817  0.3896  1.9515  2.1676
 5603TIP3   OH238299   4.809   4.334  13.336  0.0316 -0.6391 -0.0237
 5603TIP3    H138300   4.859   4.357  13.415  0.8979 -0.0963 -0.7160
 5603TIP3    H238301   4.871   4.287  13.281  0.3489  1.5231 -1.6355
 5604TIP3   OH238302   4.770   6.563   5.818  0.2750 -0.1035 -0.3684
 5604TIP3    H138303   4.755   6.486   5.762 -0.3510 -0.8568  0.7875
 5604TIP3    H238304   4.851   6.602   5.784 -1.6232  1.3294 -3.8321
 5605TIP3   OH238305   6.412   2.135   4.268 -0.0798  0.6314  0.3440
 5605TIP3    H138306   6.332   2.124   4.319  1.2853  0.3245  2.5492
 5605TIP3    H238307   6.382   2.149   4.178 -2.5806  0.5919  1.1121
 5606TIP3   OH238308   6.763   3.746   2.842  0.1611 -0.2352 -0.6029
 5606TIP3    H138309   6.775   3.725   2.749  1.1606 -1.0211 -0.3168
 5606TIP3    H238310   6.784   3.839   2.849  2.0707 -0.6089 -0.8619
 5607TIP3   OH238311   2.510   3.324  12.742 -0.4653  0.0920  0.1002
 5607TIP3    H138312   2.508   3.392  12.809  1.8139 -1.1828  1.5836
 5607TIP3    H238313   2.484   3.244  12.789 -2.5946 -0.2494 -1.4802
 5608TIP3   OH238314   6.249   5.158  16.463 -0.4387  0.5839 -0.3504
 5608TIP3    H138315   6.300   5.104  16.402  0.8688  1.3627 -0.0005
 5608TIP3    H238316   6.164   5.169  16.420 -1.1335 -2.5347  0.0354
 5609TIP3   OH238317   1.447   3.551  14.114 -0.2407  0.1089  0.3727
 5609TIP3    H138318   1.390   3.515  14.182 -1.1357  2.3106  0.8509
 5609TIP3    H238319   1.534   3.554  14.154 -0.4983  0.1520  0.9306
 5610TIP3   OH238320   6.744   1.768  12.074  0.1348 -0.2395 -0.1125
 5610TIP3    H138321   6.798   1.705  12.026  2.4247 -0.1846  2.1665
 5610TIP3    H238322   6.776   1.854  12.046  2.4020 -0.1925  2.1991
 5611TIP3   OH238323   4.328   6.426   1.012  0.1295  0.7226  0.1692
 5611TIP3    H138324   4.366   6.343   0.985 -1.1483 -0.2116  1.1067
 5611TIP3    H238325   4.236   6.407   1.028  0.1045  1.9565  1.8617
 5612TIP3   OH238326   0.686   0.880   4.978  0.2570 -0.2401  0.1373
 5612TIP3    H138327   0.669   0.808   4.918  0.3304 -1.6025  1.6606
 5612TIP3    H238328   0.751   0.845   5.039  1.2408  1.5562  0.1920
 5613TIP3   OH238329   6.436   2.261   4.610  0.1004  0.1310  0.3992
 5613TIP3    H138330   6.377   2.310   4.667 -1.2810  0.6170 -1.3525
 5613TIP3    H238331   6.384   2.187   4.579  0.2725  0.7402 -1.4297
 5614TIP3   OH238332   0.211   6.191   5.567  0.2150  0.1343 -0.6001
 5614TIP3    H138333   0.234   6.208   5.476 -0.7676  1.1554 -0.6819
 5614TIP3    H238334   0.208   6.278   5.607  1.1364 -0.3413  0.5394
 5615TIP3   OH238335   3.427   0.485  11.707 -0.0882 -0.0640  0.0544
 5615TIP3    H138336   3.500   0.532  11.667  0.7774  1.9446  3.6129
 5615TIP3    H238337   3.466   0.403  11.738  0.4622  0.5938  1.1321
 5616TIP3   OH238338   1.902   3.504  16.738 -0.1803 -0.9793  0.3595
 5616TIP3    H138339   1.963   3.447  16.691  0.9703  1.7224 -1.6576
 5616TIP3    H238340   1.956   3.576  16.770 -1.9101  0.1698  0.8494
 5617TIP3   OH238341   1.267   1.587   2.144  0.0415  0.0528  0.4692
 5617TIP3    H138342   1.173   1.599   2.159  0.1269  1.8256 -0.1407
 5617TIP3    H238343   1.309   1.627   2.220  0.3187 -1.5508  1.1913
 5618TIP3   OH238344   3.688   6.235  11.348  0.2000  0.0782 -0.0202
 5618TIP3    H138345   3.714   6.243  11.257  1.0567 -1.7766  0.0234
 5618TIP3    H238346   3.714   6.146  11.373 -1.2801  0.0527  1.6255
 5619TIP3   OH238347   3.493   0.402   2.198 -0.0853  0.1778 -0.5384
 5619TIP3    H138348   3.427   0.425   2.132  1.8179  0.2337 -2.5406
 5619TIP3    H238349   3.557   0.349   2.150  0.0181 -2.1735  1.9521
 5620TIP3   OH238350   4.910   0.251   4.467 -0.1467  0.3989 -0.4282
 5620TIP3    H138351   4.885   0.269   4.376 -0.5198 -0.7314 -0.5569
 5620TIP3    H238352   4.997   0.292   4.476 -0.9793  2.3584 -0.6496
 5621TIP3   OH238353   4.133   0.228   4.916  0.5139 -0.8751  0.2532
 5621TIP3    H138354   4.221   0.260   4.936 -0.1368  1.0471  0.2378
 5621TIP3    H238355   4.110   0.271   4.833 -0.3451 -1.5674  0.1155
 5622TIP3   OH238356   6.745   3.300  15.598 -0.2183  0.6788  0.1014
 5622TIP3    H138357   6.740   3.207  15.573 -1.8768  0.4360  1.1534
 5622TIP3    H238358   6.660   3.336  15.571  0.0985  1.7082  0.4345
 5623TIP3   OH238359   5.813   3.145   1.760 -0.6634  0.7401  0.1316
 5623TIP3    H138360   5.743   3.181   1.814  0.1255  0.2296  1.5369
 5623TIP3    H238361   5.868   3.220   1.738 -1.4221  1.0770 -0.6488
 5624TIP3   OH238362   5.408   3.567  17.009  0.4565 -0.1796  0.0351
 5624TIP3    H138363   5.432   3.615  16.930 -1.8773  0.2834 -0.4736
 5624TIP3    H238364   5.465   3.491  17.010 -0.5930 -1.1510 -3.0927
 5625TIP3   OH238365   4.839   4.635   4.056 -0.2487  0.0469  0.8558
 5625TIP3    H138366   4.769   4.679   4.104 -1.8519 -0.4229 -0.9122
 5625TIP3    H238367   4.900   4.706   4.033 -0.5157  0.5948  1.7887
 5626TIP3   OH238368   0.612   5.436  17.123  0.8595 -0.3372  0.2842
 5626TIP3    H138369   0.617   5.407  17.032 -0.6726  0.3722 -0.0511
 5626TIP3    H238370   0.527   5.404  17.154  0.2974  1.4658  0.7075
 5627TIP3   OH238371   5.385   3.045   6.071 -0.3365  0.3711  0.0496
 5627TIP3    H138372   5.339   3.024   5.990  0.0081 -0.4868  0.0649
 5627TIP3    H238373   5.316   3.071   6.132 -0.7730 -0.4919 -0.0585
 5628TIP3   OH238374   4.450   5.361  12.548  0.5053  0.1100  0.0499
 5628TIP3    H138375   4.506   5.350  12.625 -1.5453 -0.4079  1.5776
 5628TIP3    H238376   4.423   5.452  12.551  0.7059  0.1830 -0.2884
 5629TIP3   OH238377   3.973   2.750  16.653 -0.0746 -0.1138 -0.3126
 5629TIP3    H138378   3.946   2.685  16.589 -1.4339  0.6787 -0.5685
 5629TIP3    H238379   3.975   2.703  16.737 -1.3808 -0.4021 -0.4352
 5630TIP3   OH238380   5.916   2.774   5.478  0.2686  0.8036  0.1094
 5630TIP3    H138381   5.954   2.736   5.557  0.1619 -0.8913 -0.6145
 5630TIP3    H238382   5.977   2.753   5.409  0.4124  2.3684 -0.2830
 5631TIP3   OH238383   1.260   4.974   2.176 -0.2508  0.0392 -0.1835
 5631TIP3    H138384   1.328   5.042   2.178 -0.0063 -0.1700 -1.0231
 5631TIP3    H238385   1.297   4.902   2.227 -0.8764  0.8524  1.4705
 5632TIP3   OH238386   2.165   4.536  14.375 -0.6035 -0.3137 -0.1692
 5632TIP3    H138387   2.123   4.543  14.461 -0.4743  0.1950 -0.1444
 5632TIP3    H238388   2.122   4.462  14.333 -2.3338  0.8647 -0.5951
 5633TIP3   OH238389   1.880   5.362  11.520  0.0116  0.1280 -0.2997
 5633TIP3    H138390   1.944   5.423  11.484 -0.1330 -0.1519 -1.0628
 5633TIP3    H238391   1.810   5.417  11.555  1.2614  0.4923  1.7828
 5634TIP3   OH238392   4.175   1.002  16.887 -0.4411 -0.5457  0.2071
 5634TIP3    H138393   4.135   1.048  16.960  0.4710 -0.5379  0.7118
 5634TIP3    H238394   4.106   0.944  16.854 -1.3410  0.5652  0.0855
 5635TIP3   OH238395   4.907   5.127   2.286  0.1458  0.3521 -0.1975
 5635TIP3    H138396   4.988   5.175   2.305  0.2935  0.5644 -1.3238
 5635TIP3    H238397   4.926   5.038   2.315  0.3994  0.6367  0.5357
 5636TIP3   OH238398   0.578   2.861   5.190  0.8939  0.1048 -0.2776
 5636TIP3    H138399   0.607   2.773   5.212  0.7406  0.0016 -0.4788
 5636TIP3    H238400   0.580   2.909   5.273 -0.7170 -0.5625  0.1936
 5637TIP3   OH238401   0.680   4.851  15.507 -0.1930 -0.8755 -0.3196
 5637TIP3    H138402   0.708   4.791  15.576 -2.2563 -2.0127 -0.3841
 5637TIP3    H238403   0.690   4.801  15.426 -1.2553 -0.9119 -0.4455
 5638TIP3   OH238404   5.012   2.584   5.757  0.3652 -0.4058 -0.1491
 5638TIP3    H138405   4.976   2.565   5.671 -0.0670 -0.2875  0.0038
 5638TIP3    H238406   4.984   2.510   5.812 -0.8527  0.3683  0.3122
 5639TIP3   OH238407   0.024   4.881  15.595  0.2078  0.7189 -0.3254
 5639TIP3    H138408   0.004   4.842  15.680 -0.8288 -0.2620 -0.9872
 5639TIP3    H238409   0.043   4.806  15.539  1.0589  1.3651 -0.9253
 5640TIP3   OH238410   4.192   6.286   0.276  0.2017  0.2784 -0.5810
 5640TIP3    H138411   4.230   6.199   0.264  2.3251  0.6807  2.1677
 5640TIP3    H238412   4.098   6.270   0.286  0.4945 -1.6646 -0.5956
 5641TIP3   OH238413   3.123   5.072   0.368 -0.4525 -0.3925 -0.0135
 5641TIP3    H138414   3.216   5.095   0.362 -0.3176 -1.1113 -0.9408
 5641TIP3    H238415   3.113   5.036   0.456  0.4368 -1.4523 -0.3132
 5642TIP3   OH238416   1.880   4.147   0.560 -0.3797  0.7957  0.4454
 5642TIP3    H138417   1.877   4.086   0.487 -0.5254 -0.1489  1.2191
 5642TIP3    H238418   1.966   4.188   0.554 -0.5179  0.9793 -0.4389
 5643TIP3   OH238419   6.074   4.766   4.736 -0.0171 -0.7054 -0.6461
 5643TIP3    H138420   5.999   4.826   4.739  0.6010  0.0531  1.3365
 5643TIP3    H238421   6.142   4.810   4.787  0.4305 -3.0937  0.9754
 5644TIP3   OH238422   2.034   1.649  12.720  0.0202  0.0951  0.1047
 5644TIP3    H138423   1.965   1.594  12.757 -0.7097  1.8699  1.5606
 5644TIP3    H238424   1.998   1.680  12.637  0.0090 -0.7861 -0.2202
 5645TIP3   OH238425   1.964   0.095   0.573 -0.1792 -0.4278 -0.3702
 5645TIP3    H138426   1.894   0.039   0.608 -2.2578  1.1993 -1.6731
 5645TIP3    H238427   2.041   0.073   0.625 -2.3541 -0.1710  3.2543
 5646TIP3   OH238428   0.061   2.706   2.561  0.3397 -0.4303 -0.3531
 5646TIP3    H138429  -0.023   2.714   2.516  0.4030 -0.2197 -0.4392
 5646TIP3    H238430   0.113   2.647   2.506 -0.0263 -1.1873  0.1166
 5647TIP3   OH238431   0.134   2.951   2.753  0.4303  0.3631 -0.2024
 5647TIP3    H138432   0.072   2.953   2.680  1.3739 -0.0848 -1.0404
 5647TIP3    H238433   0.215   2.917   2.715  1.1784  0.8647  0.8793
 5648TIP3   OH238434   6.143   6.205  11.763  0.2292 -0.2828  0.3728
 5648TIP3    H138435   6.232   6.168  11.754  0.6647  0.2884  1.9535
 5648TIP3    H238436   6.154   6.276  11.826 -1.5222 -0.8317  1.3565
 5649TIP3   OH238437   0.380   0.627   3.173  0.9001  0.2247  0.6223
 5649TIP3    H138438   0.383   0.679   3.092 -1.1368 -2.4293 -1.3520
 5649TIP3    H238439   0.313   0.669   3.227  0.6737  0.7665 -0.0667
 5650TIP3   OH238440   4.301   4.385   5.187 -0.2070  0.5422  0.2147
 5650TIP3    H138441   4.273   4.301   5.152 -0.7828 -0.0230  1.8989
 5650TIP3    H238442   4.224   4.417   5.236 -0.4105  2.6185 -1.3234
 5651TIP3   OH238443   3.961   2.329   0.393 -0.0811 -0.2585  0.4490
 5651TIP3    H138444   3.868   2.324   0.417  0.0136  2.4335  1.8342
 5651TIP3    H238445   4.007   2.303   0.472  0.4220 -1.8771 -0.3275
 5652TIP3   OH238446   1.623   6.557  16.143  0.6273  0.2256  0.4207
 5652TIP3    H138447   1.580   6.560  16.058  1.2486  0.4464  0.1076
 5652TIP3    H238448   1.715   6.577  16.124  0.5857  1.3196  1.2669
 5653TIP3   OH238449   2.364   5.285  13.849  0.7578  0.0319 -0.6765
 5653TIP3    H138450   2.332   5.334  13.773  3.3492  0.4754 -1.5877
 5653TIP3    H238451   2.380   5.197  13.817 -2.2776 -1.1204  0.5522
 5654TIP3   OH238452   1.634   2.864   5.288 -0.1484  0.2174 -0.2285
 5654TIP3    H138453   1.551   2.824   5.260 -0.6460  0.8473  0.2936
 5654TIP3    H238454   1.608   2.951   5.319  0.7244  0.4347 -0.1027
 5655TIP3   OH238455   3.192   0.877  11.875  0.9909  0.3933 -0.2635
 5655TIP3    H138456   3.111   0.888  11.925  1.2998  0.3891  0.2423
 5655TIP3    H238457   3.221   0.788  11.895  2.2511  1.0970  1.2732
 5656TIP3   OH238458   0.046   3.279   0.685  0.0068  0.6159  0.1726
 5656TIP3    H138459  -0.020   3.273   0.755 -1.2688  1.1393 -0.9309
 5656TIP3    H238460   0.020   3.357   0.635  0.0446 -0.5031 -1.6894
 5657TIP3   OH238461   0.699   3.502   2.038 -0.6527  0.6869 -0.3405
 5657TIP3    H138462   0.701   3.460   1.952 -3.6377 -0.3734 -0.0089
 5657TIP3    H238463   0.788   3.491   2.072  0.5016  0.8006 -3.0926
 5658TIP3   OH238464   5.443   4.220  16.364 -0.4501 -0.0011  0.2844
 5658TIP3    H138465   5.470   4.286  16.300  0.8955  0.9207  1.7579
 5658TIP3    H238466   5.387   4.267  16.425 -0.0541 -0.3916  0.9543
 5659TIP3   OH238467   1.958   4.732   4.643  0.5949  0.3321  0.0815
 5659TIP3    H138468   1.951   4.767   4.554  0.2570  0.2471  0.0713
 5659TIP3    H238469   2.044   4.692   4.647  0.5433  0.1860 -0.2652
 5660TIP3   OH238470   6.314   0.168  11.066 -0.1065  0.4051 -0.1944
 5660TIP3    H138471   6.350   0.168  10.978  0.4131 -0.8550  0.0043
 5660TIP3    H238472   6.235   0.222  11.060 -0.5136 -0.3059 -1.6062
 5661TIP3   OH238473   4.145   5.302  15.559  0.6380 -0.0116 -0.1625
 5661TIP3    H138474   4.070   5.254  15.593  0.0068 -1.9264 -3.7830
 5661TIP3    H238475   4.135   5.391  15.594 -3.0839 -0.3067 -0.1331
 5662TIP3   OH238476   1.109   2.755   6.299  0.2730 -0.3444 -0.1072
 5662TIP3    H138477   1.123   2.743   6.205  1.3853  0.5760 -0.0790
 5662TIP3    H238478   1.016   2.737   6.312  0.2379 -1.0908 -1.2756
 5663TIP3   OH238479   5.400   4.464  12.941 -0.0477 -0.3098 -0.2178
 5663TIP3    H138480   5.387   4.550  12.901  0.0103  0.3566  1.1391
 5663TIP3    H238481   5.315   4.421  12.933  0.4932 -1.1118 -2.9894
 5664TIP3   OH238482   2.318   4.525  12.810 -0.3832  0.2382  0.3790
 5664TIP3    H138483   2.270   4.513  12.729 -2.8126 -0.7520  1.8361
 5664TIP3    H238484   2.260   4.489  12.878  0.8832  2.3175  2.7297
 5665TIP3   OH238485   0.803   3.978  12.439 -0.4937 -0.3629  0.0116
 5665TIP3    H138486   0.849   3.924  12.376  0.6433 -2.6441  2.5773
 5665TIP3    H238487   0.712   3.977  12.410  0.1135 -0.5806 -2.0110
 5666TIP3   OH238488   6.669   1.320   0.661 -0.6330  0.2314  0.7345
 5666TIP3    H138489   6.583   1.300   0.624  0.2482 -2.6397 -0.0182
 5666TIP3    H238490   6.662   1.411   0.692 -3.1867  0.8428 -1.3468
 5667TIP3   OH238491   2.018   5.911   4.837  0.2558 -0.3954 -0.2960
 5667TIP3    H138492   1.945   5.864   4.877  1.5559 -2.9757 -0.7325
 5667TIP3    H238493   2.073   5.937   4.911  0.3138 -0.9952 -0.1243
 5668TIP3   OH238494   0.225   3.546   6.951 -0.2935  0.3802  0.3922
 5668TIP3    H138495   0.147   3.499   6.923 -0.7833  0.8681  0.9105
 5668TIP3    H238496   0.290   3.526   6.884 -0.5149 -0.9498  0.5353
 5669TIP3   OH238497   5.248   4.588   1.947  0.4689  0.3489  0.3762
 5669TIP3    H138498   5.221   4.505   1.908 -0.2158  0.7120  0.0676
 5669TIP3    H238499   5.167   4.636   1.961  0.5660 -0.1111  3.0959
 5670TIP3   OH238500   3.191   5.723   0.141 -0.2130  0.2842 -0.0224
 5670TIP3    H138501   3.104   5.699   0.110 -0.1707  0.4484 -0.2644
 5670TIP3    H238502   3.251   5.667   0.092  0.0730  2.4301 -2.3032
 5671TIP3   OH238503   3.907   4.288   1.307  0.1209 -0.5167 -0.6669
 5671TIP3    H138504   3.996   4.320   1.291  0.2164 -0.6688 -0.4327
 5671TIP3    H238505   3.851   4.352   1.263  0.1965  1.1396  1.4961
 5672TIP3   OH238506   4.585   5.049  17.066 -0.2868  0.5541 -0.3833
 5672TIP3    H138507   4.567   4.968  17.018  2.2504 -0.2818 -0.0842
 5672TIP3    H238508   4.499   5.081  17.092 -1.3602 -2.3428 -0.0088
 5673TIP3   OH238509   0.402   1.872   4.004  0.6444  0.4314  0.0608
 5673TIP3    H138510   0.454   1.861   4.084  0.7732 -0.0029 -0.0739
 5673TIP3    H238511   0.330   1.809   4.013  1.7451 -1.0822 -1.0197
 5674TIP3   OH238512   1.690   1.895   4.693 -0.5939 -0.1468  0.0777
 5674TIP3    H138513   1.748   1.906   4.768 -0.9469 -1.2275  0.5239
 5674TIP3    H238514   1.656   1.983   4.676  1.4300  0.5935 -0.4296
 5675TIP3   OH238515   2.276   0.758   3.375  0.2200  0.0530 -0.4949
 5675TIP3    H138516   2.341   0.744   3.307 -0.9128 -0.6499 -1.4673
 5675TIP3    H238517   2.192   0.754   3.330 -0.5983 -1.0343  1.0166
 5676TIP3   OH238518   4.229   3.163  15.746 -0.0374 -0.3172 -0.2000
 5676TIP3    H138519   4.146   3.195  15.782  0.4904 -0.0114  0.7854
 5676TIP3    H238520   4.255   3.230  15.682  0.1910  0.3647  0.5870
 5677TIP3   OH238521   1.293   1.447   0.401  0.2370 -0.1098 -0.1513
 5677TIP3    H138522   1.337   1.368   0.370  0.5288  0.0290 -0.0973
 5677TIP3    H238523   1.203   1.420   0.415  1.0171 -1.5119  3.5073
 5678TIP3   OH238524   1.008   5.752   1.668 -0.4950  0.3942 -0.6675
 5678TIP3    H138525   0.925   5.768   1.713 -1.6124  0.9564 -2.7441
 5678TIP3    H238526   1.070   5.730   1.737 -1.9841  1.5250  1.1208
 5679TIP3   OH238527   5.509   1.964  13.845 -0.0272 -0.6425  0.7176
 5679TIP3    H138528   5.584   1.934  13.794  1.9679  2.3180  1.6319
 5679TIP3    H238529   5.462   2.023  13.786 -0.6473 -1.1122  0.7299
 5680TIP3   OH238530   3.090   2.660   5.224 -0.3548  0.8253 -0.1193
 5680TIP3    H138531   3.044   2.600   5.167 -0.0033  1.9932 -1.7121
 5680TIP3    H238532   3.182   2.650   5.201 -0.0215  0.2205  1.3533
 5681TIP3   OH238533   5.245   4.469  13.726  0.3192 -0.2722  0.0976
 5681TIP3    H138534   5.321   4.501  13.775  1.0658  1.1404 -1.8402
 5681TIP3    H238535   5.239   4.528  13.651 -1.9476 -1.1475 -0.4838
 5682TIP3   OH238536   3.021   1.904   3.778  0.4901 -0.3201 -0.4315
 5682TIP3    H138537   2.933   1.921   3.743  0.4906  1.4803  0.3285
 5682TIP3    H238538   3.079   1.916   3.703  0.3191  1.5181 -0.3111
 5683TIP3   OH238539   4.894   1.525  11.606  0.0425  1.1395  0.2421
 5683TIP3    H138540   4.909   1.599  11.548  0.6614  0.2103 -0.8089
 5683TIP3    H238541   4.941   1.549  11.686 -1.7495  2.9310  0.8607
 5684TIP3   OH238542   5.654   6.470  14.742  0.3258  0.2683  0.4068
 5684TIP3    H138543   5.566   6.503  14.727  0.7911  1.3076 -0.1420
 5684TIP3    H238544   5.641   6.383  14.779 -0.9959  1.4708  3.0576
 5685TIP3   OH238545   0.289   5.651   4.571 -0.2799 -0.0468 -0.2658
 5685TIP3    H138546   0.342   5.571   4.566 -2.9090 -1.9651  0.3545
 5685TIP3    H238547   0.200   5.622   4.553 -2.3389  1.5991  5.1796
 5686TIP3   OH238548   3.585   5.151   4.986  0.5558 -0.4597  0.6053
 5686TIP3    H138549   3.566   5.074   5.039  2.1405 -1.2228  0.1166
 5686TIP3    H238550   3.616   5.116   4.903 -0.3850  0.7210 -0.2754
 5687TIP3   OH238551   1.747   2.291  13.936 -0.4433  0.2013  0.3210
 5687TIP3    H138552   1.661   2.308  13.974  0.0062 -0.6540  1.8148
 5687TIP3    H238553   1.803   2.359  13.975  0.2220 -1.2465  2.0482
 5688TIP3   OH238554   6.606   1.768  13.016 -0.2891 -0.4558  0.1568
 5688TIP3    H138555   6.589   1.695  13.076  0.6737 -0.3099  0.6260
 5688TIP3    H238556   6.632   1.841  13.073  1.4971 -0.5620 -0.4426
 5689TIP3   OH238557   4.222   6.405   6.199 -0.0136  0.3275 -0.0596
 5689TIP3    H138558   4.300   6.357   6.225 -0.4502  0.0942  0.8405
 5689TIP3    H238559   4.152   6.372   6.256 -0.2808  2.1603  0.7416
 5690TIP3   OH238560   4.950   3.105  12.640 -0.5276  0.5026 -0.6919
 5690TIP3    H138561   4.864   3.066  12.624 -0.3190  0.6440 -2.3356
 5690TIP3    H238562   4.930   3.188  12.684 -1.1794  0.2575 -0.5016
 5691TIP3   OH238563   0.955   2.457   1.618 -0.2917  0.1792  0.4412
 5691TIP3    H138564   0.984   2.501   1.538  0.0213  1.4311  1.2061
 5691TIP3    H238565   0.869   2.494   1.637 -1.7049 -2.2353 -0.8515
 5692TIP3   OH238566   5.651   5.550   4.632  0.2144 -0.7577 -0.3408
 5692TIP3    H138567   5.714   5.487   4.598  1.0211  0.3247 -0.9100
 5692TIP3    H238568   5.691   5.635   4.615 -1.3540 -0.0447 -0.6455
 5693TIP3   OH238569   1.264   5.963  16.892 -0.1479  0.3912 -0.0134
 5693TIP3    H138570   1.184   5.945  16.842 -1.0317 -2.3411  2.1064
 5693TIP3    H238571   1.294   5.877  16.921  2.1701  1.5630  1.3786
 5694TIP3   OH238572   0.944   3.432   0.453  0.4084 -0.3397 -0.0622
 5694TIP3    H138573   0.848   3.439   0.459  0.5413  0.6495  1.2434
 5694TIP3    H238574   0.961   3.417   0.360 -0.9633  0.4441 -0.4628
 5695TIP3   OH238575   5.544   6.547  12.415 -0.2263 -0.1942  0.1581
 5695TIP3    H138576   5.556   6.641  12.428 -0.4057 -0.3627  1.7254
 5695TIP3    H238577   5.523   6.514  12.502  1.5495 -1.9611 -0.0277
 5696TIP3   OH238578   6.381   4.113   0.156 -0.6210  0.2598  0.2352
 5696TIP3    H138579   6.363   4.030   0.113  2.1706 -0.2779 -0.0793
 5696TIP3    H238580   6.381   4.177   0.085  0.4870 -0.0581 -0.0783
 5697TIP3   OH238581   1.411   2.489   1.040 -0.0254  0.2991  0.2272
 5697TIP3    H138582   1.474   2.541   0.990 -1.1436  1.4420 -0.0402
 5697TIP3    H238583   1.460   2.459   1.117  1.1064  0.3393 -0.4633
 5698TIP3   OH238584   5.957   2.272   0.959 -0.1341 -0.5225 -0.1748
 5698TIP3    H138585   5.989   2.183   0.977 -1.3861 -0.7745  0.9273
 5698TIP3    H238586   6.014   2.329   1.012  0.3046 -0.7184 -0.4357
 5699TIP3   OH238587   4.244   1.403   3.582  0.0288 -0.8709  0.0504
 5699TIP3    H138588   4.226   1.495   3.599  0.1056 -0.6751 -0.9143
 5699TIP3    H238589   4.313   1.404   3.515  0.4705 -1.6263  0.4806
 5700TIP3   OH238590   4.564   6.452  14.755  0.9913  0.2326  0.3070
 5700TIP3    H138591   4.520   6.369  14.735  2.0819 -0.3922  0.4412
 5700TIP3    H238592   4.656   6.437  14.733  1.4535  0.9603  1.5992
 5701TIP3   OH238593   1.154   3.195   0.172  0.3305  0.6751  0.4972
 5701TIP3    H138594   1.158   3.214   0.266  3.7776  0.5051  0.5108
 5701TIP3    H238595   1.180   3.277   0.131 -2.3675  1.1440 -0.4967
 5702TIP3   OH238596   2.293   6.482  12.883 -0.6692  0.9627  0.4081
 5702TIP3    H138597   2.344   6.533  12.820 -1.3674 -2.1716 -3.0437
 5702TIP3    H238598   2.216   6.536  12.901  1.5563  3.8634  2.3204
 5703TIP3   OH238599   0.455   1.548  15.491 -0.1247  0.1245 -0.1314
 5703TIP3    H138600   0.396   1.547  15.415 -0.2298  0.2695 -0.0522
 5703TIP3    H238601   0.416   1.486  15.552 -0.6763  0.8577  0.2816
 5704TIP3   OH238602   0.627   0.674  12.127 -0.0673  0.0602 -0.2945
 5704TIP3    H138603   0.547   0.624  12.114 -1.0583  1.2006  1.1785
 5704TIP3    H238604   0.620   0.747  12.066 -0.4067  0.4341  0.1834
 5705TIP3   OH238605   0.661   4.122  13.119 -0.0027 -0.2813  0.5925
 5705TIP3    H138606   0.733   4.090  13.173  0.8601  0.5967 -0.0110
 5705TIP3    H238607   0.592   4.144  13.182  0.9872  0.7288  1.3698
 5706TIP3   OH238608   0.750   1.593  13.389  0.1313  0.1769  0.1035
 5706TIP3    H138609   0.729   1.671  13.337 -0.2254  0.9280  1.3254
 5706TIP3    H238610   0.665   1.550  13.402  0.4521 -0.9376 -1.3383
 5707TIP3   OH238611   3.099   2.534  15.368  0.0266  0.3016  0.7723
 5707TIP3    H138612   3.016   2.556  15.411 -1.1025 -0.9849 -0.6224
 5707TIP3    H238613   3.154   2.501  15.439 -1.4385 -0.8515  1.4404
 5708TIP3   OH238614   5.374   1.843  14.276 -0.4143  0.0360  0.3949
 5708TIP3    H138615   5.456   1.815  14.318 -0.7417 -1.9055 -0.1733
 5708TIP3    H238616   5.358   1.931  14.311  1.0805 -0.1759  1.7136
 5709TIP3   OH238617   5.088   1.821   3.977  0.4865 -0.5156  0.1681
 5709TIP3    H138618   5.107   1.830   3.884  0.1188 -0.4490  0.0967
 5709TIP3    H238619   5.017   1.757   3.982 -0.6954  0.7299  0.2524
 5710TIP3   OH238620   1.387   2.380   0.441  0.5259 -0.1466  0.2700
 5710TIP3    H138621   1.358   2.313   0.503  0.2472 -0.5548 -0.2903
 5710TIP3    H238622   1.314   2.441   0.435  0.5576 -0.1010  0.3613
 5711TIP3   OH238623   5.941   3.454   3.436  0.0787 -1.0883 -0.1506
 5711TIP3    H138624   5.877   3.525   3.435 -0.5749 -1.6689 -0.5522
 5711TIP3    H238625   6.018   3.492   3.478  0.4068  0.4310 -1.9800
 5712TIP3   OH238626   3.710   5.232   3.655 -0.7482  0.2854  0.1622
 5712TIP3    H138627   3.710   5.278   3.572 -1.2828  0.8329  0.4578
 5712TIP3    H238628   3.802   5.212   3.672 -0.7929 -1.5899 -1.4928
 5713TIP3   OH238629   6.083   5.136  11.048  0.3294  0.1309 -0.2949
 5713TIP3    H138630   6.109   5.217  11.091  2.1344  1.5001 -3.5428
 5713TIP3    H238631   6.165   5.096  11.020 -0.6390 -1.6103 -0.8428
 5714TIP3   OH238632   1.375   1.259   4.171 -0.0463 -0.3669  0.2399
 5714TIP3    H138633   1.431   1.213   4.109  1.7521  1.8050  0.1170
 5714TIP3    H238634   1.431   1.276   4.247 -0.9711  0.6355  0.7332
 5715TIP3   OH238635   2.936   1.786  13.703  0.7048  0.0738 -0.0385
 5715TIP3    H138636   2.943   1.764  13.795 -1.8789  0.0193  0.2290
 5715TIP3    H238637   2.850   1.751  13.677  0.7109  1.4121 -2.0614
 5716TIP3   OH238638   2.645   4.001   3.320 -0.1805  0.6110  0.1266
 5716TIP3    H138639   2.635   4.015   3.226 -1.5991  1.3732  0.3587
 5716TIP3    H238640   2.718   3.940   3.328 -0.7684 -0.3636 -1.5296
 5717TIP3   OH238641   5.212   3.360   6.394  0.4037 -1.1692  0.7568
 5717TIP3    H138642   5.132   3.408   6.372  0.7142 -0.7395  0.5654
 5717TIP3    H238643   5.283   3.421   6.376  0.9235 -2.1870 -0.9970
 5718TIP3   OH238644   1.881   2.224   2.915 -0.2366  0.0326  0.4590
 5718TIP3    H138645   1.795   2.220   2.958  0.6697 -1.0948  2.2953
 5718TIP3    H238646   1.905   2.132   2.902  0.3266  0.3457 -0.8587
 5719TIP3   OH238647   4.984   4.482   2.658  0.0651 -0.1332 -0.1460
 5719TIP3    H138648   5.045   4.437   2.717 -0.0596 -0.6911 -0.4429
 5719TIP3    H238649   4.911   4.507   2.714  0.3695  0.1643  0.1255
 5720TIP3   OH238650   1.043   0.294   3.628  0.1524  0.0611  0.1848
 5720TIP3    H138651   1.046   0.386   3.601 -0.9315 -0.2930 -1.2782
 5720TIP3    H238652   1.117   0.284   3.688 -1.1836  2.5109  2.4911
 5721TIP3   OH238653   1.957   5.071  15.109 -0.6029  0.0035  0.5690
 5721TIP3    H138654   1.973   4.977  15.118 -0.5486  0.0753  1.3504
 5721TIP3    H238655   2.039   5.107  15.076 -0.6968 -0.2529  0.0560
 5722TIP3   OH238656   3.628   5.794   5.854 -0.1896  0.1914 -0.3211
 5722TIP3    H138657   3.609   5.781   5.947 -0.8885 -1.0785 -0.6185
 5722TIP3    H238658   3.723   5.784   5.847 -0.2078 -0.3600  0.1625
 5723TIP3   OH238659   4.006   5.599  12.540  0.0628  0.2114 -0.4009
 5723TIP3    H138660   4.041   5.582  12.452  0.1565 -1.1581 -0.1204
 5723TIP3    H238661   3.926   5.548  12.545 -0.3554  0.8856  0.0636
 5724TIP3   OH238662   2.867   0.576   4.029 -0.3190 -0.2124  0.0787
 5724TIP3    H138663   2.842   0.610   4.115 -1.2386  0.4072 -0.4230
 5724TIP3    H238664   2.884   0.654   3.976 -1.9900 -0.5027 -0.9482
 5725TIP3   OH238665   6.489   5.222   6.302 -0.5759 -0.2286  0.0739
 5725TIP3    H138666   6.425   5.157   6.275 -1.5713 -0.1184  1.9713
 5725TIP3    H238667   6.564   5.171   6.332 -0.4217 -0.4155 -0.6287
 5726TIP3   OH238668   5.162   3.318  15.977 -0.0886 -0.2638 -0.4310
 5726TIP3    H138669   5.198   3.346  16.061 -1.0850  0.8271 -0.3536
 5726TIP3    H238670   5.175   3.393  15.919  0.3861 -0.9239 -1.2091
 5727TIP3   OH238671   2.278   3.312  14.812 -0.2489  0.9968  0.2439
 5727TIP3    H138672   2.327   3.362  14.878  0.5126  0.1274  0.3567
 5727TIP3    H238673   2.339   3.244  14.783 -0.6221  1.2459 -1.2414
 5728TIP3   OH238674   5.607   3.751  15.255 -0.0019  0.3440  0.5036
 5728TIP3    H138675   5.677   3.736  15.192  1.6963  0.6864  2.1935
 5728TIP3    H238676   5.527   3.750  15.203  1.2812  0.4585 -1.6011
 5729TIP3   OH238677   4.962   5.898   0.607  0.6674 -0.0646  0.1565
 5729TIP3    H138678   5.005   5.832   0.661  1.1877  0.0655 -0.0928
 5729TIP3    H238679   4.921   5.849   0.537 -0.2141 -0.2601  0.7886
 5730TIP3   OH238680   1.092   1.439   1.802  0.1219  0.0741  0.4198
 5730TIP3    H138681   1.023   1.383   1.837  0.0220  0.1468  0.3388
 5730TIP3    H238682   1.149   1.457   1.877  0.6350 -0.8376  0.2618
 5731TIP3   OH238683   5.041   1.899   1.205 -0.4261  0.0053  0.2831
 5731TIP3    H138684   5.030   1.806   1.184  0.1217  0.1427 -0.6130
 5731TIP3    H238685   4.966   1.919   1.262  0.6924 -1.5601  2.4605
 5732TIP3   OH238686   1.621   4.005   5.037  0.0412 -0.0365 -0.2960
 5732TIP3    H138687   1.574   4.050   5.108  0.6283 -0.6734  0.5239
 5732TIP3    H238688   1.559   4.000   4.965 -0.9366 -0.3187  0.5536
 5733TIP3   OH238689   4.350   4.216   1.026  0.3647  0.2221  0.5691
 5733TIP3    H138690   4.409   4.164   0.972 -0.2438 -0.1012  0.1982
 5733TIP3    H238691   4.266   4.169   1.021  0.0568  0.7180  1.0080
 5734TIP3   OH238692   6.709   2.676  15.636 -0.9552 -0.3139 -0.8413
 5734TIP3    H138693   6.778   2.614  15.615 -1.5464 -0.4137 -2.6754
 5734TIP3    H238694   6.666   2.640  15.713  1.9176  0.5264  1.3113
 5735TIP3   OH238695   4.193   1.474   6.722 -0.5504 -0.0877  0.3680
 5735TIP3    H138696   4.203   1.545   6.658 -1.2636  0.3230  0.6954
 5735TIP3    H238697   4.266   1.484   6.782  0.5133 -0.8812 -0.7433
 5736TIP3   OH238698   2.789   3.960   0.898 -0.7909  0.4842 -0.5016
 5736TIP3    H138699   2.696   3.980   0.894 -0.5626  1.6134 -0.4644
 5736TIP3    H238700   2.800   3.917   0.983 -1.1322  1.1563 -0.1137
 5737TIP3   OH238701   2.620   5.489  10.872  0.1598 -0.1974 -0.0141
 5737TIP3    H138702   2.649   5.581  10.871 -0.3392 -0.0230 -1.6091
 5737TIP3    H238703   2.658   5.452  10.792  0.9610 -1.6060  0.9848
 5738TIP3   OH238704   6.057   4.413  15.389  0.2667  0.2001 -0.1782
 5738TIP3    H138705   5.978   4.428  15.336  0.2852  0.9365 -0.0152
 5738TIP3    H238706   6.034   4.447  15.476  1.5258  2.7122 -0.7183
 5739TIP3   OH238707   0.725   2.615  11.792  0.1912  0.0865 -0.0000
 5739TIP3    H138708   0.773   2.532  11.794  0.1330  0.0074 -1.0258
 5739TIP3    H238709   0.661   2.604  11.722 -0.3858  0.7013  0.4163
 5740TIP3   OH238710   1.075   1.804   3.608 -0.5511  0.6047 -0.8005
 5740TIP3    H138711   1.046   1.838   3.523 -3.2577 -0.8087 -0.5492
 5740TIP3    H238712   1.157   1.759   3.589  0.5843  3.0189 -2.0169
 5741TIP3   OH238713   4.407   6.665   4.434  0.0949  0.1309 -0.4338
 5741TIP3    H138714   4.501   6.653   4.440  0.2496  0.6597 -1.4547
 5741TIP3    H238715   4.392   6.756   4.460 -0.0915  0.1376 -0.5556
 5742TIP3   OH238716   1.529   0.426   5.211  0.3006 -0.6572  0.3894
 5742TIP3    H138717   1.497   0.366   5.278  2.0339  1.7123  3.6344
 5742TIP3    H238718   1.607   0.466   5.250  0.2954  2.3572 -2.2693
 5743TIP3   OH238719   3.120   5.368   2.908 -0.0666  0.3288 -0.3113
 5743TIP3    H138720   3.186   5.423   2.949  0.3224 -2.0420  2.5607
 5743TIP3    H238721   3.042   5.379   2.962 -0.2215 -1.2910 -0.1663
 5744TIP3   OH238722   6.667   0.861   6.652 -0.0097 -0.1549 -0.2103
 5744TIP3    H138723   6.719   0.802   6.707  1.5640  1.7205  0.4124
 5744TIP3    H238724   6.636   0.805   6.580 -0.6751 -2.2765  1.6163
 5745TIP3   OH238725   6.323   5.820   5.297  0.3281 -0.6862  0.0077
 5745TIP3    H138726   6.284   5.733   5.299  0.6291 -0.8606 -1.0332
 5745TIP3    H238727   6.384   5.821   5.371  1.8884 -2.1415 -1.1651
 5746TIP3   OH238728   4.469   5.501   1.816 -0.8239 -0.0436 -0.2019
 5746TIP3    H138729   4.551   5.463   1.784  0.2239  0.7369  1.4133
 5746TIP3    H238730   4.409   5.494   1.742  1.1330  0.7216 -1.9754
 5747TIP3   OH238731   4.529   2.676   0.725  0.2954 -0.0681  0.4914
 5747TIP3    H138732   4.544   2.693   0.632  2.4414 -0.7272  0.6697
 5747TIP3    H238733   4.556   2.756   0.769  0.8713 -0.3404  0.6444
 5748TIP3   OH238734   6.363   4.750   3.524  0.4018 -0.2610  0.3643
 5748TIP3    H138735   6.385   4.731   3.433 -0.1082 -0.7395  0.3338
 5748TIP3    H238736   6.303   4.680   3.549 -2.8454  2.0878 -0.2388
 5749TIP3   OH238737   3.810   4.574  11.214  0.2890  0.5855 -0.0147
 5749TIP3    H138738   3.897   4.556  11.250  0.1215  0.0543  0.1410
 5749TIP3    H238739   3.759   4.602  11.290 -0.0894 -0.6220  0.2001
 5750TIP3   OH238740   5.903   0.035   2.009 -0.0125  0.0750  0.0910
 5750TIP3    H138741   5.878   0.071   2.095 -0.1334 -1.5679  0.7753
 5750TIP3    H238742   5.953  -0.044   2.030 -1.1149 -1.0510 -1.3436
 5751TIP3   OH238743   6.232   3.220  16.093 -0.5842  0.6005 -0.3741
 5751TIP3    H138744   6.234   3.130  16.124 -2.6350 -0.0973 -2.0187
 5751TIP3    H238745   6.170   3.219  16.021 -1.7829  3.6310  0.4637
 5752TIP3   OH238746   3.847   3.799  11.551  0.0007  0.1746 -0.5536
 5752TIP3    H138747   3.901   3.875  11.569 -0.2141  1.2688 -3.8897
 5752TIP3    H238748   3.773   3.833  11.501 -0.2854 -2.1396 -1.8529
 5753TIP3   OH238749   1.200   2.859  15.397 -0.1746 -0.0131 -0.2233
 5753TIP3    H138750   1.128   2.835  15.455 -1.6325 -0.9927 -2.3089
 5753TIP3    H238751   1.157   2.895  15.319  1.6705  0.6786 -0.9886
 5754TIP3   OH238752   6.128   2.954   5.385 -0.7598  0.6671  0.2822
 5754TIP3    H138753   6.163   2.960   5.474 -2.2428  0.5968  0.8924
 5754TIP3    H238754   6.200   2.918   5.333 -0.2955 -0.5362  1.7154
 5755TIP3   OH238755   0.523   5.875  15.933  0.1384  0.4881  0.5764
 5755TIP3    H138756   0.466   5.949  15.915  0.0819  0.4053  0.4179
 5755TIP3    H238757   0.498   5.846  16.021 -2.1280 -1.3953 -0.5743
 5756TIP3   OH238758   3.089   2.557  12.603 -0.2987  0.3160  0.4610
 5756TIP3    H138759   3.149   2.631  12.594  0.3474 -0.0719  1.4155
 5756TIP3    H238760   3.092   2.513  12.518 -0.1797  0.9984  0.1039
 5757TIP3   OH238761   4.772   6.101   4.363 -0.2223 -0.3874  0.1196
 5757TIP3    H138762   4.829   6.141   4.298  0.8601 -0.9671  0.6944
 5757TIP3    H238763   4.769   6.164   4.434 -0.4081 -0.3061  0.0418
 5758TIP3   OH238764   1.421   1.930  12.755 -0.1815  0.1262  0.1190
 5758TIP3    H138765   1.344   1.959  12.804 -0.2054 -0.3482  0.3720
 5758TIP3    H238766   1.399   1.842  12.727  0.4720 -0.2150  0.6490
 5759TIP3   OH238767   0.466   5.623  15.817 -0.3676  0.3876 -0.3604
 5759TIP3    H138768   0.557   5.595  15.818 -0.6475 -0.6105  2.0744
 5759TIP3    H238769   0.466   5.706  15.864 -0.9081 -0.4065  1.0845
 5760TIP3   OH238770   1.556   3.085  15.289 -1.1418  0.2279  0.2553
 5760TIP3    H138771   1.614   3.043  15.227 -1.4002  0.2749 -0.0182
 5760TIP3    H238772   1.580   3.178  15.287 -0.1593  0.0157  1.3073
 5761TIP3   OH238773   0.508   2.584   1.300  0.2058 -0.2638  0.1750
 5761TIP3    H138774   0.466   2.545   1.223  2.1931  2.5777 -2.6536
 5761TIP3    H238775   0.475   2.674   1.301  0.8279 -0.0168  2.2440
 5762TIP3   OH238776   3.960   2.098   4.350 -0.0960 -0.0115 -0.4170
 5762TIP3    H138777   3.900   2.109   4.276  0.8368  0.0059 -1.1955
 5762TIP3    H238778   3.996   2.010   4.339  0.5346  0.2336 -0.3699
 5763TIP3   OH238779   0.461   4.303  10.726  0.1027 -0.1096 -0.5134
 5763TIP3    H138780   0.528   4.267  10.784  1.7153  0.0846 -2.1638
 5763TIP3    H238781   0.483   4.269  10.639 -2.3908 -0.6109 -1.0305
 5764TIP3   OH238782   5.418   4.025   2.511 -0.2261 -0.7834  0.2781
 5764TIP3    H138783   5.430   4.029   2.606 -0.0081 -0.7072  0.2489
 5764TIP3    H238784   5.388   3.936   2.494  0.1426 -0.9296  0.3761
 5765TIP3   OH238785   3.266   0.118  15.432  1.1267 -0.2385  0.3302
 5765TIP3    H138786   3.351   0.135  15.390  1.1633  0.5871  0.7182
 5765TIP3    H238787   3.287   0.110  15.525  0.6388  1.1587  0.5825
 5766TIP3   OH238788   4.514   0.361   3.868 -0.1236  0.1531  0.4885
 5766TIP3    H138789   4.435   0.319   3.902 -0.9911  2.8298  2.0669
 5766TIP3    H238790   4.483   0.411   3.792  0.3267  0.2085  0.3375
 5767TIP3   OH238791   2.260   1.250  11.256  0.3780 -0.1157  0.3268
 5767TIP3    H138792   2.263   1.345  11.242  0.3889 -0.0423  0.8331
 5767TIP3    H238793   2.185   1.221  11.204 -0.5591  0.3702  1.3778
 5768TIP3   OH238794   6.358   2.683  16.691 -0.4594 -0.2221  0.3378
 5768TIP3    H138795   6.314   2.601  16.669  1.6294 -1.0362 -1.1298
 5768TIP3    H238796   6.448   2.657  16.713 -0.0470  1.5684  0.9590
 5769TIP3   OH238797   6.030   5.927   4.385  0.6254  0.3717  0.3915
 5769TIP3    H138798   6.026   5.958   4.476  1.2462 -3.5327  1.9767
 5769TIP3    H238799   5.997   5.837   4.390  1.1406 -0.1531 -3.2266
 5770TIP3   OH238800   4.681   5.608  13.606  0.0968 -0.2352  0.0143
 5770TIP3    H138801   4.620   5.565  13.667 -0.4794  0.2884 -0.1777
 5770TIP3    H238802   4.712   5.685  13.654  2.4387 -1.7145  1.0102
 5771TIP3   OH238803   3.281   1.707  12.165  0.2503  0.1406  0.2694
 5771TIP3    H138804   3.246   1.736  12.080 -0.9057  2.1709  1.3745
 5771TIP3    H238805   3.203   1.687  12.217  0.9493 -1.0998  0.8881
 5772TIP3   OH238806   1.850   6.030   2.591  0.4215 -0.3199  0.3903
 5772TIP3    H138807   1.760   6.044   2.560  0.0467 -0.9321  1.1731
 5772TIP3    H238808   1.861   5.935   2.588  0.8477 -0.2851  0.8381
 5773TIP3   OH238809   2.160   6.662  16.197  0.0783  0.1392 -0.3663
 5773TIP3    H138810   2.194   6.602  16.264 -2.8942 -1.4774 -0.1612
 5773TIP3    H238811   2.117   6.731  16.246 -1.9265 -0.9413 -0.4865
 5774TIP3   OH238812   4.613   3.386  13.088  0.3332 -0.1240 -0.2076
 5774TIP3    H138813   4.521   3.361  13.094  0.7526 -1.6863  0.1455
 5774TIP3    H238814   4.633   3.423  13.174 -0.0796  0.6946 -0.4518
 5775TIP3   OH238815   0.520   6.834  11.932  0.3731  0.1470 -0.0992
 5775TIP3    H138816   0.524   6.760  11.993 -2.7578 -0.3060 -0.2868
 5775TIP3    H238817   0.493   6.795  11.849  0.4798  1.2965 -0.6952
 5776TIP3   OH238818   6.641   0.671  13.730  0.4422 -0.4239 -0.5966
 5776TIP3    H138819   6.717   0.618  13.755  1.2192  0.3485 -1.2895
 5776TIP3    H238820   6.594   0.686  13.812  1.5495 -0.1165 -0.0076
 5777TIP3   OH238821   0.609   1.137   3.854  0.6862  0.0358 -0.6220
 5777TIP3    H138822   0.570   1.065   3.904  0.7927  0.6568  0.3760
 5777TIP3    H238823   0.651   1.193   3.920  0.8964  0.8345 -1.4109
 5778TIP3   OH238824   1.079   5.348  11.800  0.3924  0.6693 -0.3813
 5778TIP3    H138825   1.108   5.312  11.715  1.9695  1.9657 -0.4477
 5778TIP3    H238826   0.995   5.305  11.817 -0.2410  0.7798 -2.8653
 5779TIP3   OH238827   3.507   6.215   1.509  0.0019  1.0039  0.4578
 5779TIP3    H138828   3.449   6.139   1.507  0.3677  0.7303 -1.8114
 5779TIP3    H238829   3.452   6.287   1.479  0.5904  0.8894 -0.9708
 5780TIP3   OH238830   0.778   2.207   3.287 -0.0678  0.3901  0.2538
 5780TIP3    H138831   0.688   2.193   3.255 -0.4859  0.7689  1.2227
 5780TIP3    H238832   0.771   2.200   3.382  1.2435 -1.1991  0.2701
 5781TIP3   OH238833   3.530   0.330   1.560  0.2720 -0.2550 -0.4400
 5781TIP3    H138834   3.550   0.303   1.650 -0.0655 -1.8842 -0.8281
 5781TIP3    H238835   3.479   0.411   1.570 -1.4819 -1.4767  0.9363
 5782TIP3   OH238836   0.685   1.877   2.950  0.0390 -0.0430  0.1942
 5782TIP3    H138837   0.658   1.944   3.013  0.3165 -1.1314  1.5106
 5782TIP3    H238838   0.781   1.879   2.952  0.0895 -1.7834  1.7363
 5783TIP3   OH238839   0.334   5.993   2.979 -0.2017 -0.6578 -0.1039
 5783TIP3    H138840   0.381   6.053   3.037 -1.1518 -1.6135  1.7357
 5783TIP3    H238841   0.275   5.945   3.036 -2.6918 -0.2671 -2.1292
 5784TIP3   OH238842   2.340   0.650  11.269 -0.0895 -0.5030 -0.2147
 5784TIP3    H138843   2.406   0.704  11.312  1.3316 -1.4405 -1.1515
 5784TIP3    H238844   2.315   0.699  11.191  2.3319 -1.7511 -1.9104
 5785TIP3   OH238845   0.098   1.430  15.053  0.1886  0.1091 -0.0240
 5785TIP3    H138846   0.181   1.392  15.082 -0.0431 -0.1451  0.3085
 5785TIP3    H238847   0.032   1.364  15.073 -0.0505  0.1515 -0.6400
 5786TIP3   OH238848   2.550   6.407  13.646  0.5128 -1.0078 -0.2296
 5786TIP3    H138849   2.570   6.464  13.572  1.2146  0.7419  1.2203
 5786TIP3    H238850   2.615   6.431  13.713 -0.5020 -2.0401  1.1896
 5787TIP3   OH238851   5.247   5.706  16.173 -0.8944 -0.1894 -0.5928
 5787TIP3    H138852   5.318   5.752  16.216 -1.4799 -0.8383  1.1448
 5787TIP3    H238853   5.174   5.769  16.173 -0.8317 -0.1149 -0.8471
 5788TIP3   OH238854   6.663   2.872   2.005  0.0062  0.4151 -0.2229
 5788TIP3    H138855   6.725   2.842   1.938 -0.0212 -0.0368 -0.0481
 5788TIP3    H238856   6.624   2.951   1.967  1.7227  1.5531  0.2502
 5789TIP3   OH238857   6.675   1.136  10.775 -0.7079  0.6480 -0.1646
 5789TIP3    H138858   6.749   1.195  10.765 -0.0039 -0.0345  0.8662
 5789TIP3    H238859   6.714   1.051  10.796 -1.7386  0.0098 -0.7192
 5790TIP3   OH238860   0.814   0.504   2.858 -0.0397 -0.3004  0.6157
 5790TIP3    H138861   0.813   0.464   2.771 -1.9327  1.4001 -0.2141
 5790TIP3    H238862   0.809   0.429   2.918  2.1874 -1.5609 -0.6364
 5791TIP3   OH238863   4.289   0.777  17.188  0.9656  0.1337  0.1578
 5791TIP3    H138864   4.207   0.787  17.235  0.2207 -0.4981 -0.9635
 5791TIP3    H238865   4.312   0.866  17.160  0.5798  0.2888  0.3326
 5792TIP3   OH238866   0.859   2.649   0.121 -0.1527  0.2008  0.1017
 5792TIP3    H138867   0.906   2.608   0.049 -0.7225  0.2136 -0.2864
 5792TIP3    H238868   0.927   2.690   0.174  0.1675  1.4904 -1.2438
 5793TIP3   OH238869   0.948   1.996  16.801 -0.0669 -0.2119 -0.1719
 5793TIP3    H138870   1.014   1.956  16.858  0.1601  0.2501 -0.1117
 5793TIP3    H238871   0.940   2.086  16.832 -2.3794 -0.8267  1.3492
 5794TIP3   OH238872   4.550   6.795  11.010 -0.3680  0.6360  0.3834
 5794TIP3    H138873   4.548   6.814  11.103 -0.4518  1.4230  0.2286
 5794TIP3    H238874   4.463   6.818  10.978 -0.8232 -1.0023  0.3569
 5795TIP3   OH238875   5.135   6.219  11.032 -0.0655  0.2293 -0.6561
 5795TIP3    H138876   5.220   6.213  10.988  0.3371 -0.5749  0.2139
 5795TIP3    H238877   5.156   6.248  11.121 -0.6411 -0.5721 -0.2474
 5796TIP3   OH238878   4.362   1.762  15.597 -0.0436  0.4150 -0.4218
 5796TIP3    H138879   4.310   1.790  15.521  1.4106 -1.2560 -2.1435
 5796TIP3    H238880   4.353   1.667  15.598  2.6053  0.0941 -0.5904
 5797TIP3   OH238881   3.001   5.332   4.878  0.3117 -0.0005  0.4883
 5797TIP3    H138882   3.013   5.352   4.970  2.3563  2.1978 -0.1532
 5797TIP3    H238883   3.016   5.415   4.833 -1.6723 -0.7466 -1.8017
 5798TIP3   OH238884   5.892   1.159   1.526 -0.2541  0.1088 -0.3682
 5798TIP3    H138885   5.960   1.109   1.479 -1.4585 -1.4713 -0.5438
 5798TIP3    H238886   5.929   1.175   1.612  1.2441  1.3443 -1.2028
 5799TIP3   OH238887   5.630   2.315   5.680  0.4009  0.2288  0.1768
 5799TIP3    H138888   5.652   2.405   5.658 -0.1941  0.3612  0.1135
 5799TIP3    H238889   5.714   2.275   5.704  0.9092  0.3713 -1.2646
 5800TIP3   OH238890   2.147   6.631  16.643  0.1981 -0.1245 -0.0066
 5800TIP3    H138891   2.188   6.713  16.617  1.6275 -1.2948 -1.6833
 5800TIP3    H238892   2.073   6.657  16.698  0.6024  2.2570 -0.4990
 5801TIP3   OH238893   0.945   3.519  17.196 -0.2794 -0.1828 -0.2550
 5801TIP3    H138894   1.008   3.498  17.127 -0.3789 -0.5638 -0.2297
 5801TIP3    H238895   0.940   3.615  17.195  1.4657 -0.0366  0.7922
 5802TIP3   OH238896   2.726   1.735  15.103  0.4192  0.3362 -0.0615
 5802TIP3    H138897   2.670   1.680  15.158  1.1180  0.1346  0.4771
 5802TIP3    H238898   2.803   1.753  15.159 -0.6140  3.4872  0.5335
 5803TIP3   OH238899   6.121   2.375   3.143  0.2998  0.0181 -0.0986
 5803TIP3    H138900   6.174   2.328   3.207 -1.5571  0.4300  1.8879
 5803TIP3    H238901   6.031   2.349   3.163 -0.3189 -1.0935 -3.6921
 5804TIP3   OH238902   0.933   4.093   1.845 -0.0295  0.5823  0.9030
 5804TIP3    H138903   1.010   4.045   1.817  0.4139  0.7227  1.8309
 5804TIP3    H238904   0.860   4.031   1.836 -0.1301  0.9711 -1.6091
 5805TIP3   OH238905   0.612   3.684   1.655 -0.7137  0.1143  0.0352
 5805TIP3    H138906   0.655   3.657   1.574 -0.8301  1.5765 -0.5307
 5805TIP3    H238907   0.684   3.699   1.716 -0.6081 -0.6283  0.1034
 5806TIP3   OH238908   6.495   4.521  13.245  0.5463 -0.5008  0.1615
 5806TIP3    H138909   6.512   4.446  13.188  3.6883 -0.5784  1.0453
 5806TIP3    H238910   6.511   4.598  13.191 -0.0506 -0.4839 -0.0035
 5807TIP3   OH238911   1.264   1.037  15.840  0.0356  0.4522  0.1619
 5807TIP3    H138912   1.210   1.069  15.912 -1.1317  0.3299 -0.6360
 5807TIP3    H238913   1.299   0.953  15.872 -0.1331  0.5951  0.7367
 5808TIP3   OH238914   5.574   1.636  13.273  0.2531  0.2701 -0.5153
 5808TIP3    H138915   5.577   1.726  13.305  0.0735 -0.0268  0.3734
 5808TIP3    H238916   5.651   1.594  13.311 -0.1558 -0.1823 -0.1663
 5809TIP3   OH238917   5.045   6.018  14.800  0.1649  0.6607 -0.1650
 5809TIP3    H138918   5.048   5.925  14.777  1.8884  0.5084  0.5506
 5809TIP3    H238919   5.010   6.019  14.889 -0.8777  0.7962 -0.5654
 5810TIP3   OH238920   6.034   4.296  10.718 -0.1945 -0.2193 -0.4147
 5810TIP3    H138921   6.000   4.384  10.700 -1.4110 -0.4297  0.7798
 5810TIP3    H238922   6.119   4.295  10.673 -0.5667  1.2339 -1.2402
 5811TIP3   OH238923   2.991   0.508  14.206 -0.6372  0.1412  0.0934
 5811TIP3    H138924   2.938   0.461  14.142  1.2708 -1.5345 -0.3697
 5811TIP3    H238925   2.976   0.463  14.289  0.2423 -0.5293 -0.0983
 5812TIP3   OH238926   0.849   6.733   3.669  0.0573 -0.5633  0.0561
 5812TIP3    H138927   0.944   6.739   3.664 -0.0224  1.3302  0.2789
 5812TIP3    H238928   0.832   6.695   3.755  0.6000  0.6744  0.7382
 5813TIP3   OH238929   6.535   2.256  11.253 -0.1113 -0.1156  0.0026
 5813TIP3    H138930   6.568   2.341  11.282 -1.1803  0.1397  0.5055
 5813TIP3    H238931   6.611   2.198  11.259  0.0651  0.2574  1.9204
 5814TIP3   OH238932   3.652   0.273  12.027 -0.0801  0.1767  0.1555
 5814TIP3    H138933   3.615   0.293  11.941 -0.7783 -1.9028 -0.0864
 5814TIP3    H238934   3.743   0.250  12.010 -0.6212 -1.7750 -0.2945
 5815TIP3   OH238935   5.426   4.909   1.704 -0.6728  0.4097 -0.5481
 5815TIP3    H138936   5.428   4.815   1.722 -0.5503  0.8696  2.4569
 5815TIP3    H238937   5.333   4.931   1.696 -0.8411  0.3244  0.9462
 5816TIP3   OH238938   4.744   5.993  13.595  0.2218 -0.1762  0.4742
 5816TIP3    H138939   4.786   5.938  13.660  0.7444  2.3334  2.4160
 5816TIP3    H238940   4.799   5.984  13.517  2.4273  0.3581  1.8746
 5817TIP3   OH238941   4.326   1.463  14.255  0.5015 -0.0504  0.3493
 5817TIP3    H138942   4.394   1.396  14.245 -0.5938 -1.0862 -0.5180
 5817TIP3    H238943   4.246   1.413  14.273 -0.2778  1.0438  0.0288
 5818TIP3   OH238944   0.645   5.651   0.501 -0.1519  0.5742  0.2484
 5818TIP3    H138945   0.674   5.563   0.478  0.9494  0.7623  0.8543
 5818TIP3    H238946   0.560   5.638   0.543 -0.1457 -0.1644  0.0418
 5819TIP3   OH238947   1.760   5.437   4.304  0.1405  0.2559 -1.1366
 5819TIP3    H138948   1.764   5.431   4.399 -1.6243  0.7470 -0.9908
 5819TIP3    H238949   1.792   5.352   4.273 -2.5827 -1.3118  0.0411
 5820TIP3   OH238950   6.211   0.964   0.508 -0.3503  0.4784  0.0486
 5820TIP3    H138951   6.144   0.949   0.575 -0.1423  3.3094  1.0197
 5820TIP3    H238952   6.264   0.885   0.508 -0.4988  0.2773  3.1085
 5821TIP3   OH238953   4.084   0.631   0.822  0.2166  0.3607 -0.2822
 5821TIP3    H138954   4.097   0.545   0.782  2.1766 -0.4154  1.8227
 5821TIP3    H238955   4.005   0.621   0.875  0.0992  0.0499 -0.5112
 5822TIP3   OH238956   4.891   3.789   4.355 -0.0180  0.4622 -0.2098
 5822TIP3    H138957   4.815   3.743   4.393 -0.0469  0.2800 -0.4824
 5822TIP3    H238958   4.867   3.881   4.357  0.8225  0.7013  2.1529
 5823TIP3   OH238959   6.674   4.514   5.103  0.3180 -0.1346 -0.1108
 5823TIP3    H138960   6.729   4.545   5.031  0.4888  1.6154  0.7184
 5823TIP3    H238961   6.724   4.536   5.182 -1.0715  0.4657  0.6195
 5824TIP3   OH238962   3.366   2.304  16.790 -0.4145  0.5354 -0.1710
 5824TIP3    H138963   3.312   2.357  16.849 -0.9610 -0.3997  0.1934
 5824TIP3    H238964   3.394   2.365  16.721 -0.0924  1.5466  0.8321
 5825TIP3   OH238965   2.803   3.194   2.713  0.3110 -0.8298 -0.7057
 5825TIP3    H138966   2.740   3.179   2.784  0.5159  2.4161  0.3458
 5825TIP3    H238967   2.756   3.171   2.633 -2.4083  1.6019  0.0174
 5826TIP3   OH238968   5.458   1.936   5.584 -0.0759 -0.1124 -0.2700
 5826TIP3    H138969   5.447   1.917   5.677  0.5543  0.7090 -0.0212
 5826TIP3    H238970   5.428   1.856   5.540  0.6435 -0.9219  0.6747
 5827TIP3   OH238971   0.154   4.604  14.047 -0.4159  0.5303 -0.0239
 5827TIP3    H138972   0.225   4.558  14.002  0.4934  2.2051 -0.3900
 5827TIP3    H238973   0.197   4.675  14.094 -1.5802  0.0212  1.9180
 5828TIP3   OH238974   1.228   1.775  12.524  0.3980 -0.5421  0.5541
 5828TIP3    H138975   1.211   1.787  12.431  0.9399 -1.4344  0.3366
 5828TIP3    H238976   1.144   1.745  12.560  0.3062 -0.6170  0.2782
 5829TIP3   OH238977   4.584   4.179  16.713  0.1213 -0.2756 -0.4439
 5829TIP3    H138978   4.637   4.214  16.785  0.7410  1.9840 -1.9061
 5829TIP3    H238979   4.498   4.220  16.725  0.2627  0.2097 -1.0176
 5830TIP3   OH238980   3.058   3.177   4.621  0.3463 -0.2374 -0.2725
 5830TIP3    H138981   3.052   3.265   4.584  0.1968 -0.3970 -0.6231
 5830TIP3    H238982   2.981   3.170   4.678  0.2959 -0.1845 -0.3336
 5831TIP3   OH238983   2.027   1.790   5.317  0.4678  0.4712 -0.1703
 5831TIP3    H138984   2.039   1.697   5.338 -0.4458 -0.1021 -1.9957
 5831TIP3    H238985   2.064   1.837   5.392  0.1337 -1.3689  1.1971
 5832TIP3   OH238986   1.461   3.765   5.474  0.8116  0.6374 -0.3630
 5832TIP3    H138987   1.503   3.845   5.505 -0.1544  0.6933  0.8840
 5832TIP3    H238988   1.392   3.748   5.538 -0.3880 -0.0237 -1.7719
 5833TIP3   OH238989   4.668   1.098   0.585 -0.0203 -0.1899 -0.2830
 5833TIP3    H138990   4.636   1.042   0.515 -0.3775 -0.4224  0.0649
 5833TIP3    H238991   4.721   1.164   0.540 -0.7899  0.0626 -0.8395
 5834TIP3   OH238992   2.815   5.645  13.951 -0.8652 -0.3491  0.5605
 5834TIP3    H138993   2.777   5.733  13.953  0.1336  0.2521 -2.0586
 5834TIP3    H238994   2.904   5.656  13.983 -1.2678 -0.7869  1.8948
 5835TIP3   OH238995   5.250   1.336   4.553 -0.2872  0.4965  0.1391
 5835TIP3    H138996   5.198   1.356   4.475  0.5686 -0.9359 -0.8461
 5835TIP3    H238997   5.305   1.414   4.565 -1.6930  1.4905  0.4358
 5836TIP3   OH238998   2.290   1.154  10.685 -0.1903  0.7291  0.1764
 5836TIP3    H138999   2.195   1.160  10.688 -0.2144  0.1774  0.6317
 5836TIP3    H239000   2.314   1.106  10.764  0.3608 -0.3139 -0.5872
 5837TIP3   OH239001   0.210   5.221   2.348 -0.1397 -0.1420  0.0504
 5837TIP3    H139002   0.155   5.275   2.291 -2.2629 -1.3605  0.8231
 5837TIP3    H239003   0.153   5.199   2.422  2.2146  0.5767  2.1951
 5838TIP3   OH239004   6.056   5.747  12.310 -0.7417 -0.2837  0.4978
 5838TIP3    H139005   6.136   5.734  12.260 -1.5031  0.3183 -0.9539
 5838TIP3    H239006   6.083   5.744  12.402  1.1141  0.9974  0.0404
 5839TIP3   OH239007   4.755   4.482  17.176 -0.4524 -0.0768 -0.1937
 5839TIP3    H139008   4.825   4.516  17.120 -0.1304 -0.0480  0.2201
 5839TIP3    H239009   4.756   4.387  17.160 -1.7504  0.1327 -1.8039
 5840TIP3   OH239010   4.179   6.714   1.352  0.1662  0.1439  0.0038
 5840TIP3    H139011   4.247   6.752   1.408 -0.0436  2.3700 -1.1367
 5840TIP3    H239012   4.106   6.696   1.412  1.3018 -1.1373  1.0390
 5841TIP3   OH239013   0.332   3.841   1.524 -0.2386 -0.2606 -0.2496
 5841TIP3    H139014   0.385   3.774   1.566  2.1260  2.1376  0.8816
 5841TIP3    H239015   0.249   3.840   1.572 -0.7896 -3.0705 -1.0626
 5842TIP3   OH239016   5.704   3.972   0.297  0.7989  0.1567  0.0479
 5842TIP3    H139017   5.739   3.890   0.262 -1.0440 -0.0372 -1.5600
 5842TIP3    H239018   5.681   3.952   0.388 -1.4208 -1.7901 -0.8533
 5843TIP3   OH239019   6.379   2.604  12.130 -0.1764  0.1770 -0.3093
 5843TIP3    H139020   6.387   2.685  12.180 -1.4766  0.4589 -0.5243
 5843TIP3    H239021   6.465   2.594  12.088  1.2082 -0.4239  2.4253
 5844TIP3   OH239022   1.589   5.828  10.928 -0.0297 -0.6279 -0.2000
 5844TIP3    H139023   1.642   5.826  10.848 -1.2484 -1.1488 -1.0354
 5844TIP3    H239024   1.629   5.896  10.982 -0.7593  1.7235 -2.3985
 5845TIP3   OH239025   2.209   6.686   2.265 -0.2692  0.4486  0.0505
 5845TIP3    H139026   2.237   6.697   2.174 -0.9228  1.3952 -0.0461
 5845TIP3    H239027   2.116   6.708   2.265 -0.9365 -2.0166  0.4804
 5846TIP3   OH239028   3.103   0.445   5.417 -0.0537 -0.1007  0.0731
 5846TIP3    H139029   3.052   0.479   5.344 -1.4188  0.5799  1.2959
 5846TIP3    H239030   3.188   0.488   5.410  0.1466 -0.6979 -1.5784
 5847TIP3   OH239031   4.559   0.122  14.066 -0.4293 -0.2175  0.3662
 5847TIP3    H139032   4.568   0.044  14.011  0.8561  1.6876 -2.3767
 5847TIP3    H239033   4.615   0.105  14.141 -0.3444 -1.9979 -0.0502
 5848TIP3   OH239034   4.594   2.214  11.944  0.0009  0.6895 -0.4193
 5848TIP3    H139035   4.517   2.268  11.963 -0.1047  0.1467  0.8177
 5848TIP3    H239036   4.666   2.258  11.990  0.0111  0.0878  0.1658
 5849TIP3   OH239037   2.668   2.960  14.673  0.2111 -0.4772  0.4476
 5849TIP3    H139038   2.701   2.900  14.606  0.1173 -0.0322  0.0018
 5849TIP3    H239039   2.580   2.929  14.692  0.6029 -1.2400  1.1320
 5850TIP3   OH239040   5.038   3.968  11.978  0.1505 -0.2989  0.9477
 5850TIP3    H139041   5.025   3.874  11.988 -1.0695 -0.1364  1.0168
 5850TIP3    H239042   5.133   3.981  11.988  0.5394 -1.6919 -0.5861
 5851TIP3   OH239043   2.198   6.763   1.715 -0.4583 -0.7951 -0.1377
 5851TIP3    H139044   2.223   6.747   1.624 -0.2431 -1.5212  0.0422
 5851TIP3    H239045   2.109   6.799   1.709  0.4815  1.6122 -0.7621
 5852TIP3   OH239046   5.787   4.231  14.289  0.0049  0.4525 -0.0443
 5852TIP3    H139047   5.743   4.148  14.307 -1.5079  1.8096  3.3577
 5852TIP3    H239048   5.877   4.206  14.268 -0.4851 -2.0671  0.5095
 5853TIP3   OH239049   1.815   3.929  14.339  0.7408 -0.1749 -0.1426
 5853TIP3    H139050   1.826   3.835  14.329  2.6311 -0.0009 -0.0774
 5853TIP3    H239051   1.854   3.966  14.260 -1.3146  0.5314 -0.8754
 5854TIP3   OH239052   4.412   5.178   4.049 -0.2885  0.0024  0.2085
 5854TIP3    H139053   4.449   5.250   3.999 -0.3155  0.2642  0.5634
 5854TIP3    H239054   4.385   5.114   3.983  1.7414 -0.6845 -0.0391
 5855TIP3   OH239055   0.944   5.680   1.411 -0.3486 -0.3134  0.3097
 5855TIP3    H139056   0.976   5.750   1.354  0.3974 -1.2648 -0.4902
 5855TIP3    H239057   0.958   5.713   1.500 -0.6719  0.8275 -0.0476
 5856TIP3   OH239058   6.154   0.551  12.459  0.0071 -0.1507  0.2894
 5856TIP3    H139059   6.178   0.492  12.387  1.1173  1.4217 -0.6983
 5856TIP3    H239060   6.174   0.639  12.426 -0.8825  0.7425  1.9815
 5857TIP3   OH239061   0.965   5.984   2.742 -0.0366  0.1312 -0.8522
 5857TIP3    H139062   0.959   5.917   2.674 -0.2622 -0.2055 -0.5017
 5857TIP3    H239063   0.942   6.065   2.697  1.8355  0.2632 -1.6925
 5858TIP3   OH239064   0.135   3.613  16.887 -0.3485  0.3812  0.0024
 5858TIP3    H139065   0.220   3.584  16.921 -0.1332  1.1255  0.1290
 5858TIP3    H239066   0.087   3.643  16.964  0.7861  3.7100 -0.4094
 5859TIP3   OH239067   2.405   2.252   2.273 -0.4558  0.6403 -0.3633
 5859TIP3    H139068   2.394   2.182   2.337  1.4836 -0.3475 -1.0342
 5859TIP3    H239069   2.418   2.207   2.190  2.4798  1.6547 -0.5661
 5860TIP3   OH239070   5.688   0.507  16.339 -0.2645 -0.0621 -0.2728
 5860TIP3    H139071   5.609   0.492  16.391 -0.0348  0.1484  0.1429
 5860TIP3    H239072   5.744   0.560  16.396  0.0542  0.0386 -0.6791
 5861TIP3   OH239073   3.799   2.356  13.172  0.7064  0.0276  0.7416
 5861TIP3    H139074   3.882   2.369  13.217  1.9594  1.3296 -1.7159
 5861TIP3    H239075   3.740   2.421  13.209  1.3008  0.2028  1.3877
 5862TIP3   OH239076   5.798   4.460  11.236 -0.0810  0.2759 -0.3943
 5862TIP3    H139077   5.764   4.521  11.301  1.1726  0.3302  0.2519
 5862TIP3    H239078   5.864   4.510  11.189  0.2734 -0.2914 -0.5108
 5863TIP3   OH239079   2.409   5.565  16.538 -0.2228  0.6817  0.9812
 5863TIP3    H139080   2.335   5.506  16.549  0.9606 -0.9227  0.7852
 5863TIP3    H239081   2.486   5.513  16.563  0.8713  2.2219  1.0235
 5864TIP3   OH239082   6.672   1.935   5.488  0.3172 -0.5543 -0.4611
 5864TIP3    H139083   6.752   1.980   5.461 -0.5854  1.2042 -0.3750
 5864TIP3    H239084   6.653   1.970   5.576 -1.0225 -0.2369 -0.8552
 5865TIP3   OH239085   4.208   6.098  11.674 -0.0352 -0.2246  0.2594
 5865TIP3    H139086   4.151   6.154  11.727  1.0191  1.4113 -0.2638
 5865TIP3    H239087   4.202   6.134  11.586  1.2732 -0.4271  0.0623
 5866TIP3   OH239088   3.784   2.903   5.524  0.3654  0.2461 -0.0395
 5866TIP3    H139089   3.770   2.977   5.465  0.6418  0.2445 -0.1069
 5866TIP3    H239090   3.745   2.931   5.607 -1.2287 -0.2775 -0.5838
 5867TIP3   OH239091   2.493   1.989  17.005  1.0601 -0.0050  0.3161
 5867TIP3    H139092   2.482   1.957  17.094  0.9740  0.4385  0.4722
 5867TIP3    H239093   2.475   2.083  17.012  2.3091  0.2715  0.0792
 5868TIP3   OH239094   0.623   0.252  14.986 -0.4993 -0.2511  0.6752
 5868TIP3    H139095   0.588   0.164  15.001  2.5656 -1.8642 -0.4732
 5868TIP3    H239096   0.639   0.287  15.074  0.8159 -2.0891  1.2437
 5869TIP3   OH239097   4.779   5.861   1.891  0.2340 -0.0673 -0.3505
 5869TIP3    H139098   4.774   5.843   1.984 -0.1845 -0.3937 -0.4324
 5869TIP3    H239099   4.853   5.922   1.882  0.3288 -0.0992  0.1779
 5870TIP3   OH239100   3.601   0.027  12.133 -0.1224 -0.2191  0.1188
 5870TIP3    H139101   3.662   0.036  12.206  0.5262 -0.8545 -0.3367
 5870TIP3    H239102   3.597   0.114  12.094  1.8496 -0.5435 -0.9070
 5871TIP3   OH239103   5.194   1.046   3.787  0.2305 -0.0222  0.0490
 5871TIP3    H139104   5.181   1.131   3.744 -0.2362 -0.1654 -0.1051
 5871TIP3    H239105   5.112   1.031   3.835 -0.7566 -1.5473 -1.9713
 5872TIP3   OH239106   3.892   1.127  14.783 -0.4015  0.3805  0.2459
 5872TIP3    H139107   3.934   1.121  14.869  0.3181 -3.0925 -0.2078
 5872TIP3    H239108   3.799   1.112  14.800 -0.2902 -0.0849  0.4663
 5873TIP3   OH239109   0.197   1.406  13.607 -0.3192 -0.1150 -0.4052
 5873TIP3    H139110   0.195   1.457  13.527  2.5723 -0.8991 -1.0865
 5873TIP3    H239111   0.152   1.324  13.585 -0.7590  0.2238 -0.7742
 5874TIP3   OH239112   2.706   5.822  16.493  0.5573 -0.5625  0.3137
 5874TIP3    H139113   2.774   5.757  16.475 -1.6840 -2.5591 -1.5409
 5874TIP3    H239114   2.648   5.780  16.556  0.3216  0.5912  0.8932
 5875TIP3   OH239115   0.086   3.009   3.547 -0.3479 -0.1734  0.3016
 5875TIP3    H139116   0.177   2.981   3.549 -0.0428  0.8034  1.2078
 5875TIP3    H239117   0.041   2.947   3.604 -0.1115 -0.2031  0.4576
 5876TIP3   OH239118   1.466   6.199  13.612  0.4958 -0.2275 -0.1580
 5876TIP3    H139119   1.560   6.188  13.630  0.4867  1.2846  0.9439
 5876TIP3    H239120   1.452   6.293  13.610 -0.7958 -0.3995 -1.6416
 5877TIP3   OH239121   4.395   2.337   0.359 -0.4098 -0.2679  0.0669
 5877TIP3    H139122   4.424   2.426   0.338 -0.7925 -0.1046  0.2120
 5877TIP3    H239123   4.389   2.337   0.455 -0.9047 -0.2903  0.0381
 5878TIP3   OH239124   4.635   1.509  10.862  0.1501 -0.0052 -0.1696
 5878TIP3    H139125   4.710   1.565  10.883 -0.3124  0.6246 -0.1539
 5878TIP3    H239126   4.670   1.444  10.801  0.7931  0.0423  0.1380
 5879TIP3   OH239127   6.770   0.848  15.958 -0.4121 -0.1592  0.0755
 5879TIP3    H139128   6.812   0.781  15.905 -0.2492  0.6580 -0.8567
 5879TIP3    H239129   6.750   0.919  15.896  2.0979  1.9602  1.4947
 5880TIP3   OH239130   3.762   4.292  15.010  0.0034  0.5318  0.6544
 5880TIP3    H139131   3.723   4.357  14.952  0.0920  0.8672  0.9685
 5880TIP3    H239132   3.690   4.233  15.033  0.3613 -0.8173 -1.3991
 5881TIP3   OH239133   3.737   1.785  15.246  0.2746 -0.5691  0.0943
 5881TIP3    H139134   3.777   1.722  15.306 -0.3435 -1.1853 -0.1315
 5881TIP3    H239135   3.715   1.734  15.168 -0.1489 -0.0573 -0.1294
 5882TIP3   OH239136   4.471   6.180  16.757  0.0314  0.0187  0.6256
 5882TIP3    H139137   4.543   6.236  16.784  0.3857 -1.1762  2.3730
 5882TIP3    H239138   4.464   6.192  16.663  1.6233  1.1739  0.6203
 5883TIP3   OH239139   1.835   6.130  17.161  0.1492  0.3453 -0.3088
 5883TIP3    H139140   1.891   6.102  17.088 -1.6552  0.5664 -1.8354
 5883TIP3    H239141   1.778   6.055  17.177  0.4172  0.3612  0.7920
 5884TIP3   OH239142   2.219   4.531  11.035 -0.1864  0.6699 -0.1070
 5884TIP3    H139143   2.225   4.455  11.094  2.7367  1.8814  1.3295
 5884TIP3    H239144   2.210   4.492  10.948 -0.3731 -1.2887  0.7233
 5885TIP3   OH239145   5.913   3.145   4.047  0.2990 -0.2195 -0.1440
 5885TIP3    H139146   5.941   3.162   3.957  0.8849  1.6582  0.3487
 5885TIP3    H239147   5.985   3.178   4.101  0.3874 -2.1963  1.0267
 5886TIP3   OH239148   1.351   1.851  11.271  0.0414 -0.0071 -0.0305
 5886TIP3    H139149   1.302   1.822  11.348  0.0336  1.2696  0.4806
 5886TIP3    H239150   1.293   1.913  11.228  0.6602  0.4789 -0.1836
 5887TIP3   OH239151   5.255   0.636  13.013  0.8567 -0.0455  0.0069
 5887TIP3    H139152   5.217   0.605  13.095  0.7484 -0.1943 -0.0984
 5887TIP3    H239153   5.283   0.556  12.968  1.7622  0.0881  0.3120
 5888TIP3   OH239154   0.165   3.765   1.971  0.2567 -0.0471 -0.6843
 5888TIP3    H139155   0.129   3.732   1.888 -0.2176 -1.4982  0.0617
 5888TIP3    H239156   0.259   3.775   1.955  0.5099 -2.2684 -0.8264
 5889TIP3   OH239157   4.973   5.524  16.301 -0.2459 -0.2355 -0.1070
 5889TIP3    H139158   5.000   5.564  16.383  0.2010  0.3791 -0.5487
 5889TIP3    H239159   4.943   5.596  16.246  0.6697 -0.4635 -0.9480
 5890TIP3   OH239160   3.469   5.367  13.119  0.2741  0.1554 -0.0396
 5890TIP3    H139161   3.529   5.441  13.125 -1.2380  1.3785  0.9074
 5890TIP3    H239162   3.496   5.308  13.189  0.8608  0.2872 -0.1478
 5891TIP3   OH239163   3.438   0.838  12.310 -0.4957  0.9088  0.5542
 5891TIP3    H139164   3.505   0.905  12.305 -0.1406  0.8752  3.2053
 5891TIP3    H239165   3.484   0.756  12.293 -0.5279  1.1327 -0.6962
 5892TIP3   OH239166   5.995   5.923  14.705  0.4430 -0.3447 -0.0680
 5892TIP3    H139167   6.062   5.989  14.725  1.3595 -0.8133 -1.4103
 5892TIP3    H239168   5.949   5.910  14.787  0.2249  1.9629  0.2469
 5893TIP3   OH239169   1.417   4.141  13.150 -0.3169  0.4116 -0.6747
 5893TIP3    H139170   1.390   4.080  13.081  1.0554 -0.3305 -0.6086
 5893TIP3    H239171   1.381   4.225  13.124 -1.0857 -0.1567 -1.5075
 5894TIP3   OH239172   1.127   6.824   0.033  0.5562 -0.8578  0.2573
 5894TIP3    H139173   1.115   6.810   0.127  0.9139 -0.9840  0.2833
 5894TIP3    H239174   1.130   6.736  -0.005  0.3317 -0.8069  0.1140
 5895TIP3   OH239175   6.556   6.213   5.346 -0.0553  0.7339 -0.3469
 5895TIP3    H139176   6.597   6.129   5.324  2.0935  1.5974  0.1383
 5895TIP3    H239177   6.465   6.190   5.369  0.6341 -1.5438  0.3755
 5896TIP3   OH239178   2.898   4.092   3.563 -0.0223 -0.6415 -0.0051
 5896TIP3    H139179   2.824   4.116   3.619 -0.9211  0.2025 -1.5056
 5896TIP3    H239180   2.932   4.175   3.532  1.1110 -1.0641  0.0795
 5897TIP3   OH239181   3.861   2.870   2.711 -0.1977  0.1777  0.2444
 5897TIP3    H139182   3.794   2.937   2.725  0.1376  0.3769  0.9238
 5897TIP3    H239183   3.823   2.812   2.645 -1.5142 -0.3458  1.4104
 5898TIP3   OH239184   2.153   2.909  12.000 -0.6762 -0.0411  0.2236
 5898TIP3    H139185   2.137   2.820  11.968 -0.2208 -0.3447  0.8108
 5898TIP3    H239186   2.241   2.930  11.968 -0.8779  0.2929 -0.1134
 5899TIP3   OH239187   4.280   1.336   4.767 -0.2458  0.2589 -0.1904
 5899TIP3    H139188   4.299   1.243   4.781  1.1651  0.4368 -0.8017
 5899TIP3    H239189   4.279   1.373   4.855  1.2439  0.0237 -0.0488
 5900TIP3   OH239190   4.038   0.381  13.992 -0.2563 -0.0620  0.1211
 5900TIP3    H139191   4.122   0.401  13.951  0.4866 -2.1210  0.4916
 5900TIP3    H239192   3.993   0.465  13.998  1.5090  0.9967 -0.6645
 5901TIP3   OH239193   1.154   5.804  13.695 -0.1834 -0.0556  0.2741
 5901TIP3    H139194   1.065   5.779  13.673  0.1735 -1.4430  0.3088
 5901TIP3    H239195   1.181   5.862  13.623 -0.3116 -1.5257 -1.0228
 5902TIP3   OH239196   2.212   6.751  13.272 -0.0743 -0.3759  0.2063
 5902TIP3    H139197   2.264   6.757  13.192 -1.0214  0.2338 -0.3890
 5902TIP3    H239198   2.127   6.719  13.243  0.3947 -2.9254  1.3921
 5903TIP3   OH239199   0.330   4.109   5.944 -0.2334  0.2314 -0.1820
 5903TIP3    H139200   0.312   4.119   5.850  1.4578 -0.0778 -0.5646
 5903TIP3    H239201   0.285   4.028   5.968 -3.6712  2.0289  0.1590
 5904TIP3   OH239202   3.200   3.846   0.021 -0.0164 -1.0919  0.3126
 5904TIP3    H139203   3.142   3.838   0.097  1.1778 -1.0444  1.2606
 5904TIP3    H239204   3.220   3.939   0.017 -2.0833 -0.6475 -1.6546
 5905TIP3   OH239205   0.886   5.471   0.058  0.0953 -0.2665 -0.1488
 5905TIP3    H139206   0.911   5.544   0.001 -0.8802 -0.5417 -0.9508
 5905TIP3    H239207   0.823   5.420   0.007 -0.4620 -0.7826  0.9956
 5906TIP3   OH239208   5.960   0.479  15.868 -0.0882 -0.2770  0.0722
 5906TIP3    H139209   5.875   0.486  15.912 -0.4628 -1.5417 -0.4014
 5906TIP3    H239210   5.957   0.545  15.800 -1.4955 -1.5198 -1.1556
 5907TIP3   OH239211   4.386   5.926   4.312 -0.1021  0.0533  0.2634
 5907TIP3    H139212   4.428   5.876   4.242 -0.1385 -0.8627  0.8839
 5907TIP3    H239213   4.397   6.018   4.286  1.2674 -0.2090 -0.1607
 5908TIP3   OH239214   1.823   0.155   1.069 -0.7973  0.1957 -0.5860
 5908TIP3    H139215   1.816   0.118   1.157  2.2127 -0.5808 -0.5718
 5908TIP3    H239216   1.914   0.186   1.063 -0.8352 -0.0013 -3.5030
 5909TIP3   OH239217   3.671   3.088   2.759 -0.0892  0.0802 -0.4365
 5909TIP3    H139218   3.594   3.075   2.815  0.2013 -0.5764 -0.1700
 5909TIP3    H239219   3.688   3.182   2.763 -0.3321  0.1025  0.2444
 5910TIP3   OH239220   2.503   1.183   0.848 -0.2756  0.6194  0.1780
 5910TIP3    H139221   2.493   1.186   0.943  2.4643 -0.0069  0.5710
 5910TIP3    H239222   2.593   1.212   0.833  0.7615 -3.0733 -1.8476
 5911TIP3   OH239223   0.508   6.265  11.298  0.1104 -0.0423 -0.1519
 5911TIP3    H139224   0.602   6.247  11.294  0.0947 -0.4711  0.9878
 5911TIP3    H239225   0.478   6.259  11.207  1.3143  0.9153 -0.6426
 5912TIP3   OH239226   6.013   6.799  12.445  0.0921 -0.0635 -0.1981
 5912TIP3    H139227   5.951   6.743  12.397  0.1337 -1.3605  1.1501
 5912TIP3    H239228   6.094   6.793  12.396 -0.1526 -0.4853 -0.5631
 5913TIP3   OH239229   2.765   0.891  14.233  0.7546 -0.0561 -0.1927
 5913TIP3    H139230   2.827   0.830  14.193 -0.8728 -0.7323 -1.8329
 5913TIP3    H239231   2.769   0.969  14.177 -1.0473 -0.7564 -1.4158
 5914TIP3   OH239232   2.273   0.037  15.061 -0.0043 -0.5277 -0.5541
 5914TIP3    H139233   2.235   0.101  15.121  0.2555 -1.0586  0.1931
 5914TIP3    H239234   2.262  -0.047  15.105  2.0614 -0.6941 -0.2784
 5915TIP3   OH239235   4.949   0.810   5.152  0.0783  0.4501  0.4919
 5915TIP3    H139236   5.017   0.854   5.100  0.7667 -1.0591  0.0759
 5915TIP3    H239237   4.889   0.774   5.087 -1.2614  1.8941  0.8541
 5916TIP3   OH239238   0.060   4.844   4.461 -0.7926 -0.0032 -0.0067
 5916TIP3    H139239   0.099   4.766   4.500 -0.8472  0.4679  1.0463
 5916TIP3    H239240   0.124   4.913   4.477 -0.3825  0.0255 -1.6405
 5917TIP3   OH239241   3.725   1.354  10.961 -0.3565  0.2112 -0.3359
 5917TIP3    H139242   3.740   1.369  10.867  2.0271  2.0591  0.2437
 5917TIP3    H239243   3.689   1.437  10.993 -0.5939 -0.2124  0.5230
 5918TIP3   OH239244   5.750   3.020  11.794  0.3522 -0.1245  0.7909
 5918TIP3    H139245   5.722   2.941  11.748  1.9276 -0.5033  0.4335
 5918TIP3    H239246   5.678   3.040  11.854 -2.1149  0.7802 -2.2412
 5919TIP3   OH239247   1.269   0.133  12.352 -0.0307  0.5532 -0.2050
 5919TIP3    H139248   1.298   0.138  12.261 -0.9320 -0.3067 -0.5559
 5919TIP3    H239249   1.320   0.201  12.397  1.8128 -0.2386 -0.9701
 5920TIP3   OH239250   0.023   5.067   1.564 -0.4652 -0.3121  0.2311
 5920TIP3    H139251   0.064   4.997   1.514 -0.0742  1.6171 -2.3223
 5920TIP3    H239252   0.092   5.133   1.574 -1.4185  0.6457  0.6607
 5921TIP3   OH239253   6.027   3.744  12.432  0.5513 -0.0344  0.3888
 5921TIP3    H139254   6.031   3.824  12.380 -3.4806 -0.5409 -1.1033
 5921TIP3    H239255   6.056   3.675  12.372 -1.8207 -0.3139 -0.5620
 5922TIP3   OH239256   3.247   5.547   5.337 -0.2076  0.2523  0.1295
 5922TIP3    H139257   3.281   5.572   5.251  1.0428  1.1344  0.8413
 5922TIP3    H239258   3.323   5.553   5.395 -0.5272 -2.3922  0.9409
 5923TIP3   OH239259   0.106   2.643   3.443 -0.2270 -0.3061 -0.0724
 5923TIP3    H139260   0.118   2.630   3.537 -1.8853 -0.1858  0.1746
 5923TIP3    H239261   0.187   2.684   3.414 -0.1386  0.7047  1.5114
 5924TIP3   OH239262   1.476   5.803   2.411  0.3646  0.0860 -0.0538
 5924TIP3    H139263   1.394   5.813   2.459  0.2400  1.4376 -0.5064
 5924TIP3    H239264   1.478   5.710   2.386 -0.8178 -0.0577  0.3242
 5925TIP3   OH239265   3.760   0.249   5.498  0.1253  0.7276 -0.2766
 5925TIP3    H139266   3.813   0.322   5.468  0.5049  0.8730  0.7173
 5925TIP3    H239267   3.671   0.271   5.470  0.5317  0.5625 -1.8036
 5926TIP3   OH239268   3.770   1.751   2.072  0.0673 -0.0129 -0.4327
 5926TIP3    H139269   3.754   1.778   2.162 -1.2140  0.4828 -0.7879
 5926TIP3    H239270   3.764   1.832   2.021  1.0453 -0.2430 -0.9450
 5927TIP3   OH239271   0.537   1.017  10.812 -0.3350 -0.0410 -0.8657
 5927TIP3    H139272   0.598   0.986  10.745 -1.6260 -3.0195 -0.8134
 5927TIP3    H239273   0.459   1.043  10.763 -1.0912 -1.7362 -0.6031
 5928TIP3   OH239274   4.646   4.604  13.230 -0.2359 -0.0530 -0.3881
 5928TIP3    H139275   4.660   4.512  13.252 -1.3497 -0.6700 -2.0386
 5928TIP3    H239276   4.679   4.612  13.140  0.0703  1.2368 -0.1828
 5929TIP3   OH239277   3.190   5.481   4.292  0.5940  0.1290  0.1150
 5929TIP3    H139278   3.122   5.420   4.262  0.6616 -0.1464  0.5101
 5929TIP3    H239279   3.269   5.455   4.245  0.0866  1.5013 -1.6331
 5930TIP3   OH239280   4.892   2.169  15.332 -0.0825 -0.0136 -0.3830
 5930TIP3    H139281   4.827   2.138  15.268  2.0124 -1.6606 -1.8581
 5930TIP3    H239282   4.893   2.101  15.399  1.7903 -1.3039 -1.6411
 5931TIP3   OH239283   4.419   6.430   3.663 -0.1984  0.1178 -0.4297
 5931TIP3    H139284   4.366   6.396   3.735  1.0587 -0.6569  0.1665
 5931TIP3    H239285   4.489   6.366   3.651 -0.4316  0.1581 -2.4483
 5932TIP3   OH239286   1.256   4.384  14.700 -0.0229  0.2625  0.0614
 5932TIP3    H139287   1.244   4.464  14.751  1.8909 -0.4699  1.8013
 5932TIP3    H239288   1.312   4.411  14.627 -0.7511  0.8182 -0.3090
 5933TIP3   OH239289   2.410   6.490  12.438  0.0566 -0.1246  0.4686
 5933TIP3    H139290   2.315   6.481  12.433  0.2161 -1.1767 -1.6379
 5933TIP3    H239291   2.435   6.439  12.515 -0.9763 -0.8761  0.3239
 5934TIP3   OH239292   5.269   2.594   2.721  1.0557 -0.0918  0.3703
 5934TIP3    H139293   5.216   2.648   2.779  0.5789  0.3545 -0.4724
 5934TIP3    H239294   5.334   2.653   2.685  1.3755 -0.3783  0.4696
 5935TIP3   OH239295   2.910   0.031   2.448 -0.1832  0.5408 -0.0628
 5935TIP3    H139296   2.900   0.043   2.543 -0.4890  0.7783 -0.1229
 5935TIP3    H239297   2.872   0.110   2.410 -0.6341  0.1614 -0.4125
 5936TIP3   OH239298   4.571   0.710  13.306 -0.3404  0.0538 -0.2606
 5936TIP3    H139299   4.539   0.800  13.299  0.8854  0.4055 -1.8542
 5936TIP3    H239300   4.523   0.673  13.380  0.5858  2.6349  1.7883
 5937TIP3   OH239301   6.538   2.944  11.520  0.2686  0.3539 -0.1250
 5937TIP3    H139302   6.592   2.893  11.459 -0.5745  0.3562 -0.9047
 5937TIP3    H239303   6.545   2.898  11.603 -0.6936 -1.2267 -0.8793
 5938TIP3   OH239304   2.793   5.289   3.630 -0.2004 -0.1079  0.1235
 5938TIP3    H139305   2.806   5.304   3.537 -3.1254  0.9332 -0.2098
 5938TIP3    H239306   2.699   5.297   3.643  0.2150  1.0985  3.4001
 5939TIP3   OH239307   3.415   6.639   5.687 -0.3799 -0.0709  0.3406
 5939TIP3    H139308   3.482   6.704   5.709  0.6402 -0.9834  0.0166
 5939TIP3    H239309   3.453   6.589   5.615 -1.2379 -0.8908  0.4416
 5940TIP3   OH239310   3.404   0.883   4.763 -0.0403  0.1200 -0.0641
 5940TIP3    H139311   3.315   0.920   4.763 -0.2862 -0.4286 -1.2224
 5940TIP3    H239312   3.451   0.934   4.697  0.4437  0.2344  0.3643
 5941TIP3   OH239313   6.183   6.345  11.317  0.0681 -0.2816  0.4554
 5941TIP3    H139314   6.210   6.380  11.232 -1.3442  0.8936  0.4551
 5941TIP3    H239315   6.263   6.343  11.369  0.4018  2.1234  0.1353
 5942TIP3   OH239316   4.370   4.814   5.600 -0.2482  0.0491 -0.5457
 5942TIP3    H139317   4.456   4.856   5.599 -1.2757  2.3450  0.3365
 5942TIP3    H239318   4.380   4.737   5.544  2.6500 -0.3800  0.3793
 5943TIP3   OH239319   3.600   4.910  15.153 -0.1468 -0.7034 -0.0519
 5943TIP3    H139320   3.516   4.896  15.197  1.5050 -1.3246  3.2388
 5943TIP3    H239321   3.596   4.854  15.076 -2.7171 -0.7597  0.0343
 5944TIP3   OH239322   2.080   0.763  15.508 -0.0543  0.4642 -0.2509
 5944TIP3    H139323   2.062   0.806  15.592  0.2020  0.3623 -0.1448
 5944TIP3    H239324   2.042   0.676  15.517  0.4521  0.2637 -0.0422
 5945TIP3   OH239325   2.480   1.928   0.749  0.1955 -0.3003  0.5139
 5945TIP3    H139326   2.387   1.913   0.764 -0.3084  1.4494 -0.4626
 5945TIP3    H239327   2.520   1.841   0.751 -1.4683 -1.0864  0.8980
 5946TIP3   OH239328   2.904   0.259  15.418 -0.1207  0.6585 -0.1078
 5946TIP3    H139329   2.948   0.326  15.364 -0.5635  1.2947  0.3038
 5946TIP3    H239330   2.853   0.310  15.481  1.4314 -0.0593  1.8140
 5947TIP3   OH239331   3.087   4.638  13.916 -0.3554 -0.4488  0.3789
 5947TIP3    H139332   3.024   4.710  13.904  1.1749  0.7021 -1.3478
 5947TIP3    H239333   3.063   4.574  13.849 -0.4500 -0.5812  0.5405
 5948TIP3   OH239334   6.558   1.851  10.962 -1.5922  0.4559 -0.2680
 5948TIP3    H139335   6.617   1.783  10.929 -1.5618  1.3588 -2.1675
 5948TIP3    H239336   6.606   1.891  11.035 -0.7185 -0.1436 -0.4948
 5949TIP3   OH239337   2.436   5.994   1.059  0.0328  0.3184  0.7706
 5949TIP3    H139338   2.509   5.932   1.052 -0.4403 -0.1414 -0.4318
 5949TIP3    H239339   2.475   6.079   1.037  0.1847  0.0462 -0.0655
 5950TIP3   OH239340   0.347   4.367  12.234 -0.0916 -0.2857 -0.1102
 5950TIP3    H139341   0.357   4.397  12.324  0.9191  0.9443 -0.5960
 5950TIP3    H239342   0.433   4.335  12.209 -0.5983 -1.5358 -0.3546
 5951TIP3   OH239343   6.626   0.217  14.701  0.5455 -0.1340  0.2180
 5951TIP3    H139344   6.599   0.232  14.610  0.6033  0.9001  0.3568
 5951TIP3    H239345   6.553   0.251  14.753  0.8091 -0.1000  0.5619
 5952TIP3   OH239346   5.910   2.901  12.515 -0.5405  0.0496 -0.4977
 5952TIP3    H139347   5.903   2.977  12.572  0.2591  0.1725 -0.5606
 5952TIP3    H239348   6.003   2.895  12.493 -0.6954 -0.5517 -1.0280
 5953TIP3   OH239349   5.558   0.588   2.807  0.4608 -0.0503 -0.1371
 5953TIP3    H139350   5.598   0.575   2.721  2.3602 -0.2677  0.7297
 5953TIP3    H239351   5.511   0.507   2.823 -0.4212  0.2236 -1.2121
 5954TIP3   OH239352   5.745   4.751   4.592 -0.5817 -0.1579  0.1842
 5954TIP3    H139353   5.821   4.734   4.537  0.0519 -0.2759  1.0833
 5954TIP3    H239354   5.674   4.702   4.550 -0.5883  1.2543 -1.5925
 5955TIP3   OH239355   2.656   3.638  15.269  0.2061 -0.1016  0.2624
 5955TIP3    H139356   2.658   3.727  15.233  0.2784 -0.3288 -0.3192
 5955TIP3    H239357   2.737   3.630  15.320 -0.2112  0.4442  1.0164
 5956TIP3   OH239358   3.505   0.884   6.452 -0.4544 -0.0103 -0.2458
 5956TIP3    H139359   3.430   0.894   6.511  0.9055  0.1235  1.5694
 5956TIP3    H239360   3.531   0.973   6.430 -0.1220 -0.0186  0.1002
 5957TIP3   OH239361   6.121   4.157   5.338 -0.2372  0.4049  0.2889
 5957TIP3    H139362   6.183   4.123   5.402  0.0402  0.3045 -0.0294
 5957TIP3    H239363   6.071   4.080   5.310 -2.0758  0.8211  2.2109
 5958TIP3   OH239364   1.158   0.870   5.534 -0.3764  0.6111  0.3616
 5958TIP3    H139365   1.135   0.799   5.594  0.5109  1.0539  1.2569
 5958TIP3    H239366   1.240   0.842   5.494  0.3056  1.3625  1.1718
 5959TIP3   OH239367   2.372   4.835  12.421 -0.1810  0.2425  0.2964
 5959TIP3    H139368   2.390   4.835  12.515  0.0494 -1.5429  0.2886
 5959TIP3    H239369   2.393   4.746  12.392  0.0533  0.8339 -1.5144
 5960TIP3   OH239370   5.465   3.877   1.716 -0.3691  0.5131  0.3644
 5960TIP3    H139371   5.420   3.953   1.680 -0.9932  0.1560  0.3707
 5960TIP3    H239372   5.532   3.856   1.652 -0.2013  1.0535  0.3536
 5961TIP3   OH239373   0.792   4.617   4.705  0.1368 -0.0353  0.5377
 5961TIP3    H139374   0.833   4.552   4.648 -0.6860  1.3081 -1.7340
 5961TIP3    H239375   0.718   4.572   4.744  0.6982 -0.9945  0.5195
 5962TIP3   OH239376   1.710   0.725  10.839  0.1288 -0.0757  0.1752
 5962TIP3    H139377   1.691   0.722  10.932 -0.8376 -1.5433 -0.0393
 5962TIP3    H239378   1.696   0.635  10.808  2.1248 -0.0341 -1.0714
 5963TIP3   OH239379   3.829   6.258  14.860 -0.8772 -0.4436  0.0088
 5963TIP3    H139380   3.829   6.231  14.952 -0.2306 -0.5614 -0.0232
 5963TIP3    H239381   3.750   6.312  14.851 -1.5688 -1.3664  0.3544
 5964TIP3   OH239382   6.829   5.567   3.447 -0.2081 -0.1298  0.3513
 5964TIP3    H139383   6.862   5.491   3.398  1.8913  0.8937  0.0525
 5964TIP3    H239384   6.739   5.543   3.470  1.0012 -3.7239  2.2757
 5965TIP3   OH239385   0.737   4.158   0.350  0.1263  0.3326 -0.4495
 5965TIP3    H139386   0.686   4.237   0.329 -0.1280 -0.0917 -1.5232
 5965TIP3    H239387   0.671   4.094   0.378  0.3081  0.4421  0.2256
 5966TIP3   OH239388   4.584   6.124   2.174 -0.2181  0.2953  0.0989
 5966TIP3    H139389   4.642   6.147   2.246  1.7043 -0.2834 -1.1978
 5966TIP3    H239390   4.533   6.050   2.207  1.9327 -1.1755  0.3004
 5967TIP3   OH239391   6.343   3.439  11.126 -0.4308  0.4721 -0.0833
 5967TIP3    H139392   6.344   3.520  11.075  0.4707 -0.5932 -1.8740
 5967TIP3    H239393   6.294   3.377  11.071  0.5290 -0.7055  0.3460
 5968TIP3   OH239394   5.606   3.018  14.530  0.2062  0.1745 -0.4297
 5968TIP3    H139395   5.539   2.974  14.478  0.1803 -0.4256  0.0906
 5968TIP3    H239396   5.558   3.060  14.602  0.2157  1.1896 -0.9953
 5969TIP3   OH239397   1.806   1.925  15.132 -0.2939  0.1682  0.4619
 5969TIP3    H139398   1.796   1.991  15.064  0.8350  0.0512  0.1646
 5969TIP3    H239399   1.790   1.971  15.214  0.3729  0.7906  0.2482
 5970TIP3   OH239400   1.404   4.189  13.677  0.2220 -0.1259 -0.3033
 5970TIP3    H139401   1.432   4.189  13.585  0.7287  0.4097 -0.1567
 5970TIP3    H239402   1.437   4.107  13.712  1.0228  0.1822 -0.3151
 5971TIP3   OH239403   5.961   5.675  16.643 -0.4853  0.7212  0.0686
 5971TIP3    H139404   5.944   5.683  16.737 -1.5149 -1.9439  0.1890
 5971TIP3    H239405   6.057   5.678  16.636 -0.4174  1.4730  1.1316
 5972TIP3   OH239406   5.966   0.792  12.912 -0.2944 -0.1563 -0.0150
 5972TIP3    H139407   5.960   0.865  12.973 -3.1583 -1.3367  1.2936
 5972TIP3    H239408   6.041   0.814  12.856 -1.6605  4.3382 -0.4872
 5973TIP3   OH239409   6.591   3.221   1.308 -0.3137  0.1346 -0.6186
 5973TIP3    H139410   6.675   3.184   1.278 -0.9128  0.0443 -2.2876
 5973TIP3    H239411   6.606   3.241   1.400  0.9770 -1.5557 -0.4017
 5974TIP3   OH239412   4.238   5.146  12.272 -0.3887 -0.1544  0.1238
 5974TIP3    H139413   4.161   5.196  12.244 -0.3864  0.6427  1.4657
 5974TIP3    H239414   4.238   5.153  12.368  0.6338 -1.2342  0.2296
 5975TIP3   OH239415   3.827   3.779   0.197 -0.0069 -0.6714  0.4250
 5975TIP3    H139416   3.808   3.812   0.284  2.5583 -0.0629  0.8320
 5975TIP3    H239417   3.742   3.777   0.153 -0.8395  2.8853  1.5924
 5976TIP3   OH239418   3.687   6.430   5.791 -0.4738  0.1221  0.2479
 5976TIP3    H139419   3.595   6.446   5.812 -0.5767 -1.1113  0.8386
 5976TIP3    H239420   3.729   6.515   5.800 -1.6086  0.7655 -0.3581
 5977TIP3   OH239421   2.311   2.578   4.825  0.3004 -0.8016 -0.4164
 5977TIP3    H139422   2.270   2.506   4.776 -0.0065 -0.9107 -0.0072
 5977TIP3    H239423   2.267   2.576   4.910 -0.2132  0.3236 -0.6397
 5978TIP3   OH239424   2.854   6.404   0.690  0.6551  0.4275 -0.1745
 5978TIP3    H139425   2.817   6.443   0.611  0.9569  1.3841  0.1495
 5978TIP3    H239426   2.947   6.392   0.670  0.7798  0.8886  0.1092
 5979TIP3   OH239427   1.428   3.296   2.584 -0.0101 -0.0984  0.1629
 5979TIP3    H139428   1.338   3.303   2.553  0.3365 -1.6536 -1.3546
 5979TIP3    H239429   1.421   3.300   2.679 -1.4497  1.7410  0.0381
 5980TIP3   OH239430   4.800   6.401   3.647  0.3414  0.0634  0.3532
 5980TIP3    H139431   4.806   6.444   3.561 -2.5196  0.1858  0.1286
 5980TIP3    H239432   4.821   6.470   3.710 -1.4968  1.1053 -0.1189
 5981TIP3   OH239433   4.118   4.451   5.969 -0.2743  0.4282 -0.1721
 5981TIP3    H139434   4.171   4.471   5.892 -0.3817 -0.2701 -0.4402
 5981TIP3    H239435   4.042   4.509   5.962 -1.1120 -0.7311 -1.4980
 5982TIP3   OH239436   2.255   4.919   2.555 -0.1833 -1.1864  0.4535
 5982TIP3    H139437   2.314   4.904   2.481  0.4568 -1.5779  1.0330
 5982TIP3    H239438   2.305   4.890   2.632 -0.8224 -0.7491  1.0434
 5983TIP3   OH239439   3.687   2.240  12.611 -0.2755  0.0293  0.2782
 5983TIP3    H139440   3.630   2.180  12.658  1.0727 -1.0038  0.6612
 5983TIP3    H239441   3.738   2.283  12.679  1.3946 -1.1638 -0.1459
 5984TIP3   OH239442   4.921   5.258  10.576  0.2130 -0.1801 -0.0760
 5984TIP3    H139443   4.826   5.270  10.579  0.4437  2.0137  0.5358
 5984TIP3    H239444   4.938   5.219  10.491 -1.1579  0.7355 -0.8057
 5985TIP3   OH239445   2.525   2.901   1.175 -0.0954 -0.1815  0.2728
 5985TIP3    H139446   2.591   2.963   1.143 -1.7136  0.9790 -0.9773
 5985TIP3    H239447   2.502   2.849   1.098 -1.1815 -0.0318  0.4808
 5986TIP3   OH239448   4.579   0.775  15.899 -0.0693  0.5257 -0.1494
 5986TIP3    H139449   4.499   0.811  15.938  0.6303  0.6536  1.2413
 5986TIP3    H239450   4.568   0.680  15.905 -0.6441  0.5181 -1.1229
 5987TIP3   OH239451   5.429   4.795   4.526 -0.3135 -0.0734 -0.6856
 5987TIP3    H139452   5.507   4.834   4.487  0.2671 -1.8064 -1.3453
 5987TIP3    H239453   5.357   4.850   4.494  0.5225  0.9301 -0.9117
 5988TIP3   OH239454   1.000   0.812   3.175 -0.3228  0.4045  0.7643
 5988TIP3    H139455   0.996   0.843   3.084 -0.6833  0.2291  0.7157
 5988TIP3    H239456   1.025   0.889   3.225  1.7042  0.0884  0.3204
 5989TIP3   OH239457   2.055   2.053   5.015  0.6436  0.1832  0.3466
 5989TIP3    H139458   2.143   2.016   5.029  0.9773  0.8949  0.1544
 5989TIP3    H239459   2.057   2.137   5.061  0.0936  0.2446  0.2596
 5990TIP3   OH239460   6.461   1.243  16.374 -0.3668 -0.1159 -0.2075
 5990TIP3    H139461   6.442   1.156  16.340 -0.6795  0.1696 -0.7687
 5990TIP3    H239462   6.524   1.280  16.313  0.8636 -0.4685  0.8009
 5991TIP3   OH239463   3.966   4.123   3.665  0.6328  0.0547 -0.4375
 5991TIP3    H139464   3.989   4.042   3.710 -0.0646  0.3077  0.4169
 5991TIP3    H239465   3.871   4.128   3.671  0.7683  2.5896  2.6572
 5992TIP3   OH239466   2.102   0.897  12.601  0.5204  0.3588  0.4437
 5992TIP3    H139467   2.135   0.882  12.512 -0.9116 -0.6196  0.0381
 5992TIP3    H239468   2.020   0.848  12.604  1.3334 -0.9777  2.8648
 5993TIP3   OH239469   5.312   3.132  16.293 -0.1076  0.5297  0.1159
 5993TIP3    H139470   5.393   3.082  16.279 -0.0233  0.6178  0.2793
 5993TIP3    H239471   5.295   3.124  16.387  0.3518  1.4818  0.2910
 5994TIP3   OH239472   3.478   5.001  12.020 -0.5682 -0.0341  0.1582
 5994TIP3    H139473   3.496   5.092  12.041  0.8596 -0.1939 -0.2668
 5994TIP3    H239474   3.411   4.974  12.083 -0.0274  0.9172  1.1618
 5995TIP3   OH239475   2.577   2.248  14.920  0.2072  0.5400  0.2322
 5995TIP3    H139476   2.498   2.300  14.904 -0.6723 -0.7636  0.1534
 5995TIP3    H239477   2.565   2.213  15.008  0.4082 -0.1573 -0.0125
 5996TIP3   OH239478   5.608   6.193   0.728 -0.7892  0.1733  0.0017
 5996TIP3    H139479   5.621   6.108   0.771 -1.9994  1.0199  2.2322
 5996TIP3    H239480   5.695   6.218   0.697  0.7037  0.2953  3.7240
 5997TIP3   OH239481   4.269   0.055  13.070  0.0116 -0.5210  0.4863
 5997TIP3    H139482   4.245   0.078  12.980  1.3786 -0.3562  0.1504
 5997TIP3    H239483   4.333  -0.015  13.060 -0.3588 -1.0038  1.3670
 5998TIP3   OH239484   4.170   1.519  11.663  0.5807 -0.0336 -0.4259
 5998TIP3    H139485   4.101   1.566  11.616  2.2469  2.3561 -0.6492
 5998TIP3    H239486   4.123   1.452  11.713 -1.7750  0.8490 -1.3071
 5999TIP3   OH239487   1.622   2.924  16.801 -0.1884 -0.0195  0.0556
 5999TIP3    H139488   1.624   3.020  16.799 -2.5166  0.1095  0.7270
 5999TIP3    H239489   1.663   2.897  16.719  0.4280  1.5400 -0.1798
 6000TIP3   OH239490   6.222   2.473  13.389 -0.0143 -0.1226  0.6281
 6000TIP3    H139491   6.158   2.524  13.439 -0.0176  0.4611  0.0432
 6000TIP3    H239492   6.172   2.400  13.353 -0.8268  1.3143 -1.3724
 6001TIP3   OH239493   2.620   4.304  15.472 -0.6642  0.0059 -0.2898
 6001TIP3    H139494   2.705   4.340  15.446 -1.5690  3.1910  0.6827
 6001TIP3    H239495   2.561   4.326  15.400 -1.2912  0.8218  0.4402
 6002TIP3   OH239496   0.158   2.607   5.895 -0.1428  0.0447 -0.2316
 6002TIP3    H139497   0.158   2.637   5.804 -0.6501  1.6138  0.2524
 6002TIP3    H239498   0.069   2.576   5.911  0.0265 -0.5112 -0.3466
 6003TIP3   OH239499   2.486   0.834  12.755  0.2396  0.0567  0.1494
 6003TIP3    H139500   2.409   0.778  12.762 -0.9590  1.4083 -1.4486
 6003TIP3    H239501   2.514   0.848  12.845 -0.5916 -1.5231  0.6812
 6004TIP3   OH239502   2.621   0.712   4.667  0.2619  0.1230 -0.4449
 6004TIP3    H139503   2.563   0.642   4.637 -0.2264  0.4735 -0.3275
 6004TIP3    H239504   2.704   0.695   4.623 -0.0060 -0.2345 -0.8151
 6005TIP3   OH239505   1.150   1.292  13.294 -0.1780  0.5667 -0.3541
 6005TIP3    H139506   1.131   1.290  13.200 -2.4770 -0.5859  0.0822
 6005TIP3    H239507   1.150   1.385  13.316 -2.2849  0.7807 -1.0545
 6006TIP3   OH239508   0.683   0.144   1.772 -0.3100 -0.1674  0.1607
 6006TIP3    H139509   0.765   0.174   1.733 -1.6967  1.5480 -1.6363
 6006TIP3    H239510   0.691   0.167   1.865  0.3379  2.1730 -0.4092
 6007TIP3   OH239511   3.102   6.157  14.043 -0.7759  0.1582 -0.2194
 6007TIP3    H139512   3.156   6.130  14.118 -2.0804 -1.1838  0.2893
 6007TIP3    H239513   3.158   6.217  13.994 -0.1493  1.7602  2.2552
 6008TIP3   OH239514   6.663   2.110   0.189  0.6016  0.2958  0.2210
 6008TIP3    H139515   6.758   2.111   0.173  1.1124 -1.3539  2.6121
 6008TIP3    H239516   6.655   2.129   0.282 -1.2384 -1.7612  0.5474
 6009TIP3   OH239517   0.371   6.228  12.193 -0.6358 -0.1867 -0.2516
 6009TIP3    H139518   0.388   6.134  12.190  0.0747 -0.0540 -0.6126
 6009TIP3    H239519   0.367   6.255  12.101  0.5524  0.3627 -0.1612
 6010TIP3   OH239520   2.342   4.132   3.957 -0.0167  0.3357 -0.4339
 6010TIP3    H139521   2.353   4.125   4.051  1.2207 -0.0266 -0.5903
 6010TIP3    H239522   2.317   4.044   3.928  1.1276  0.0625 -0.6221
 6011TIP3   OH239523   4.834   0.662   4.689 -0.5346 -0.5372  0.1804
 6011TIP3    H139524   4.809   0.742   4.642 -1.7976 -1.7411 -1.3006
 6011TIP3    H239525   4.762   0.601   4.672  2.2503 -3.4804 -2.4376
 6012TIP3   OH239526   5.848   3.334  10.635 -0.3629 -0.2885  0.5365
 6012TIP3    H139527   5.876   3.274  10.565  0.1273 -0.1773  0.6328
 6012TIP3    H239528   5.928   3.352  10.684 -0.5741  0.1848  0.7096
 6013TIP3   OH239529   5.129   2.251   2.815  0.2333  0.0296  0.0327
 6013TIP3    H139530   5.056   2.217   2.763 -0.4175  1.8729 -0.3186
 6013TIP3    H239531   5.203   2.256   2.754  0.2584 -0.4526  0.0191
 6014TIP3   OH239532   1.690   4.986   0.458 -0.7503 -0.1456 -0.2649
 6014TIP3    H139533   1.718   5.031   0.538  0.2445 -0.6379 -0.3305
 6014TIP3    H239534   1.654   5.056   0.403  1.4887  0.7593 -0.6886
 6015TIP3   OH239535   3.871   1.452  17.107  0.0962 -0.0860 -0.2164
 6015TIP3    H139536   3.781   1.421  17.098  0.7283 -1.8161 -1.1535
 6015TIP3    H239537   3.866   1.546  17.089 -1.7237  0.1940  1.3640
 6016TIP3   OH239538   6.580   5.005  13.166  0.6496  0.1572  0.3356
 6016TIP3    H139539   6.652   5.069  13.167  1.4865 -0.7510 -0.2372
 6016TIP3    H239540   6.544   5.011  13.078  1.8324 -1.3251 -0.2855
 6017TIP3   OH239541   0.462   2.959  15.610  0.3138 -0.2829 -0.4419
 6017TIP3    H139542   0.520   2.928  15.680 -1.2706  0.0082  1.0756
 6017TIP3    H239543   0.519   3.012  15.554  1.4374  0.3571  1.2184
 6018TIP3   OH239544   4.767   3.300  10.990  0.7396 -0.1862  0.0076
 6018TIP3    H139545   4.699   3.364  11.012  1.7605  0.5484  1.1768
 6018TIP3    H239546   4.731   3.252  10.915 -0.2815  1.3922 -0.5696
 6019TIP3   OH239547   6.490   3.321  16.129 -0.7640 -0.1259 -0.0392
 6019TIP3    H139548   6.530   3.317  16.042  0.9260  0.8777  0.6495
 6019TIP3    H239549   6.407   3.274  16.119  1.7697 -5.0855 -0.8582
 6020TIP3   OH239550   6.547   3.617   0.099 -0.1132  0.3428  0.3122
 6020TIP3    H139551   6.561   3.690   0.159  0.2927  0.3849  0.1656
 6020TIP3    H239552   6.522   3.658   0.016  2.8890  0.4895 -0.6145
 6021TIP3   OH239553   0.844   3.665   2.840 -0.6905  0.5837 -0.2435
 6021TIP3    H139554   0.835   3.630   2.929 -1.5393  1.2622 -0.0451
 6021TIP3    H239555   0.838   3.589   2.783 -1.5477  0.2802  0.2285
 6022TIP3   OH239556   1.937   5.573   4.938  0.5297 -0.7546  0.2143
 6022TIP3    H139557   1.963   5.607   4.853  2.3734 -2.7332 -0.0941
 6022TIP3    H239558   1.841   5.581   4.939  0.5188 -0.0905 -1.7357
 6023TIP3   OH239559   5.667   3.958   3.238 -0.6742  0.3187 -0.1445
 6023TIP3    H139560   5.633   3.869   3.230  1.5805 -0.4200 -4.2648
 6023TIP3    H239561   5.603   4.012   3.192 -0.0635  0.1248 -1.2493
 6024TIP3   OH239562   2.981   4.506   0.657  0.0581  0.3332  0.2766
 6024TIP3    H139563   2.995   4.471   0.745  1.0442 -0.5960 -0.2221
 6024TIP3    H239564   2.942   4.592   0.672 -0.4571 -0.0957  1.5956
 6025TIP3   OH239565   0.862   1.746   0.716 -0.1888 -0.1006 -0.2939
 6025TIP3    H139566   0.946   1.792   0.722 -0.7052  0.8188  0.1317
 6025TIP3    H239567   0.817   1.768   0.797 -1.3629  0.5026 -1.0709
 6026TIP3   OH239568   1.352   0.114  12.066  0.1229 -0.0468 -0.0731
 6026TIP3    H139569   1.444   0.100  12.090  0.2986  0.8967 -0.1471
 6026TIP3    H239570   1.352   0.116  11.971 -0.0268 -0.3929 -0.0784
 6027TIP3   OH239571   6.785   2.611   6.230  0.0272  0.2756  0.5216
 6027TIP3    H139572   6.805   2.558   6.153  0.0747 -0.2881  0.9153
 6027TIP3    H239573   6.823   2.562   6.303 -0.6560  0.4365  0.9897
 6028TIP3   OH239574   5.982   3.856  10.651 -0.1364  0.0922  0.2966
 6028TIP3    H139575   5.981   3.815  10.565  1.0300  0.0362  0.2906
 6028TIP3    H239576   5.969   3.784  10.713  2.2743 -0.4305  0.3083
 6029TIP3   OH239577   3.503   3.577  14.585 -0.1818 -0.6820  0.2062
 6029TIP3    H139578   3.556   3.519  14.640 -0.3356  0.2020  1.3418
 6029TIP3    H239579   3.567   3.626  14.533 -0.0701 -2.1440 -1.0931
 6030TIP3   OH239580   4.077   2.405   1.976  0.0856 -0.0178 -0.2505
 6030TIP3    H139581   4.012   2.466   2.012  0.4222  0.0840  0.1892
 6030TIP3    H239582   4.033   2.366   1.900  0.0216  1.0934 -0.8059
 6031TIP3   OH239583   0.455   1.907   2.722  0.1410 -0.2033 -0.5679
 6031TIP3    H139584   0.376   1.883   2.673 -1.3486  0.9190  1.1597
 6031TIP3    H239585   0.475   1.830   2.775  0.8008 -0.8243 -1.6717
 6032TIP3   OH239586   6.583   4.082   0.372  0.0988 -0.0504 -0.2692
 6032TIP3    H139587   6.535   4.124   0.301 -0.6223  1.6385  1.1203
 6032TIP3    H239588   6.671   4.068   0.337  1.0962  4.6129 -0.3678
 6033TIP3   OH239589   2.016   6.324   4.208 -0.3447  0.2516  1.1716
 6033TIP3    H139590   1.953   6.286   4.270 -0.2780  0.1385  1.1694
 6033TIP3    H239591   2.086   6.259   4.202 -0.8709 -0.2461  0.1473
 6034TIP3   OH239592   5.561   6.722   2.422  0.0747 -0.0327 -0.0269
 6034TIP3    H139593   5.622   6.649   2.415  0.5442  0.4299 -1.0917
 6034TIP3    H239594   5.586   6.781   2.350  2.1079  2.9739  2.8399
 6035TIP3   OH239595   0.806   6.220  14.344  0.1387 -0.7931  0.3441
 6035TIP3    H139596   0.897   6.228  14.317 -0.1733 -1.4737 -0.9866
 6035TIP3    H239597   0.810   6.215  14.440  1.2510  1.9983  0.5345
 6036TIP3   OH239598   1.080   5.426  16.803  0.0868 -0.0952 -0.4780
 6036TIP3    H139599   0.993   5.391  16.783 -0.6421  1.2236  0.2392
 6036TIP3    H239600   1.132   5.406  16.726 -1.9456  2.6478 -2.7976
 6037TIP3   OH239601   1.158   0.194  17.054  0.0112  0.6668 -0.2679
 6037TIP3    H139602   1.156   0.280  17.095  0.9955  0.4505  0.2757
 6037TIP3    H239603   1.095   0.142  17.104  0.7702  0.5739  0.6297
 6038TIP3   OH239604   0.496   1.958  14.320 -0.1806 -0.6765  0.2122
 6038TIP3    H139605   0.529   1.932  14.405 -1.1848 -1.6307  0.3395
 6038TIP3    H239606   0.409   1.995  14.338 -0.1359 -0.2954 -0.3261
 6039TIP3   OH239607   2.584   6.500   3.360 -0.2198 -0.3486 -0.0851
 6039TIP3    H139608   2.527   6.562   3.314 -1.7415 -1.4104  0.2677
 6039TIP3    H239609   2.588   6.424   3.302  2.4707  0.3869 -0.9933
 6040TIP3   OH239610   0.882   2.031  16.319 -0.2246  0.4646  0.2887
 6040TIP3    H139611   0.901   1.939  16.304 -2.4589 -0.3409  1.7993
 6040TIP3    H239612   0.825   2.057  16.247 -0.5409  0.3087  0.4791
 6041TIP3   OH239613   5.128   4.857   3.227  0.1741 -0.2168 -0.3473
 6041TIP3    H139614   5.146   4.844   3.320  1.2362  0.9969 -0.3406
 6041TIP3    H239615   5.033   4.856   3.220  0.1023 -1.1908  0.6065
 6042TIP3   OH239616   6.699   3.718   0.736 -0.0915  0.7128  0.0574
 6042TIP3    H139617   6.714   3.627   0.761 -0.6531  0.7821  0.6678
 6042TIP3    H239618   6.651   3.756   0.809  0.0882  1.4894 -0.2159
 6043TIP3   OH239619   6.644   1.906   2.519  0.0772  0.2072 -0.1192
 6043TIP3    H139620   6.627   1.888   2.611 -0.0149 -1.0428 -0.3592
 6043TIP3    H239621   6.679   1.995   2.517  1.1681 -0.1663  1.2320
 6044TIP3   OH239622   2.812   3.276  11.118 -0.0351  0.1203  0.8176
 6044TIP3    H139623   2.840   3.198  11.071  2.2379  1.2866  0.0987
 6044TIP3    H239624   2.861   3.348  11.078 -1.9377  1.9411  1.5335
 6045TIP3   OH239625   2.478   3.700  14.146 -0.5324 -0.2749  0.1701
 6045TIP3    H139626   2.384   3.708  14.164 -0.7551  0.5850 -1.1878
 6045TIP3    H239627   2.505   3.623  14.195 -2.4092 -1.8257 -1.0699
 6046TIP3   OH239628   5.942   3.314   2.816  0.1123  0.1612  0.2967
 6046TIP3    H139629   5.955   3.390   2.759 -0.5038 -0.4092 -0.6298
 6046TIP3    H239630   6.018   3.258   2.798 -0.0510  0.0097  0.0631
 6047TIP3   OH239631   4.909   5.401   5.895  0.0621  0.0370 -0.5544
 6047TIP3    H139632   4.960   5.455   5.955  1.7822 -1.3339 -0.6923
 6047TIP3    H239633   4.915   5.446   5.811  1.4110 -0.2922 -0.6501
 6048TIP3   OH239634   0.404   6.157   0.582  0.3854 -0.7372 -0.6945
 6048TIP3    H139635   0.482   6.211   0.574  0.4622 -0.6704  0.2966
 6048TIP3    H239636   0.437   6.072   0.613 -0.1009  0.0026  2.1065
 6049TIP3   OH239637   5.660   1.427   1.065  0.2998  0.4394 -0.1145
 6049TIP3    H139638   5.720   1.420   1.139  0.0996 -0.2450 -0.0075
 6049TIP3    H239639   5.626   1.338   1.054  0.8184  0.3865 -1.4367
 6050TIP3   OH239640   2.177   5.074   3.422 -0.0490  0.1319  0.3092
 6050TIP3    H139641   2.259   5.061   3.469  0.7634  0.7386 -0.9062
 6050TIP3    H239642   2.150   5.163   3.445  0.4879  0.5249 -0.5849
 6051TIP3   OH239643   6.456   0.652  12.731  0.1606  0.5393 -0.1310
 6051TIP3    H139644   6.515   0.643  12.806  1.2403  0.6252 -0.9491
 6051TIP3    H239645   6.428   0.563  12.712 -1.7113  0.6891  1.5731
 6052TIP3   OH239646   2.647   0.289   5.391 -0.0539 -0.2747 -0.1997
 6052TIP3    H139647   2.623   0.380   5.378 -1.0915 -0.4973  0.0978
 6052TIP3    H239648   2.725   0.292   5.447  0.0567  0.4305 -0.3914
 6053TIP3   OH239649   2.811   2.988  16.165 -0.6921 -0.1320 -0.3701
 6053TIP3    H139650   2.818   2.896  16.139 -2.9125 -0.4585  0.0172
 6053TIP3    H239651   2.785   2.985  16.257  0.2867  0.9277 -0.0400
 6054TIP3   OH239652   6.178   6.823  14.057 -1.0486 -0.5375  0.2569
 6054TIP3    H139653   6.131   6.847  13.977  0.3828  0.0475 -0.4500
 6054TIP3    H239654   6.129   6.866  14.127 -1.5144  0.1277 -0.4551
 6055TIP3   OH239655   6.238   0.582   4.221 -0.2036 -0.0385 -0.8417
 6055TIP3    H139656   6.296   0.658   4.212  0.2951 -0.1584  0.9238
 6055TIP3    H239657   6.168   0.613   4.278 -0.3442 -0.7160 -0.6371
 6056TIP3   OH239658   5.345   1.161   5.672 -0.3200  0.0031 -0.4541
 6056TIP3    H139659   5.438   1.137   5.670  0.5353  2.8667  0.4392
 6056TIP3    H239660   5.308   1.106   5.741 -0.4603 -4.3536 -3.5646
 6057TIP3   OH239661   1.174   6.707  13.829  0.3485  0.3646 -0.2115
 6057TIP3    H139662   1.120   6.716  13.907 -0.0402 -0.9704 -0.2904
 6057TIP3    H239663   1.164   6.615  13.804  1.7039  0.3904 -0.9335
 6058TIP3   OH239664   4.631   4.952   5.100 -0.1238 -0.9040  0.3391
 6058TIP3    H139665   4.595   5.018   5.041 -1.2052 -1.7528  0.0091
 6058TIP3    H239666   4.725   4.970   5.102 -0.0071 -0.9986 -1.8326
 6059TIP3   OH239667   2.877   4.329  11.912 -0.1327  0.0424 -0.0624
 6059TIP3    H139668   2.858   4.326  12.006  0.3234  0.7898  0.0625
 6059TIP3    H239669   2.791   4.334  11.871 -0.3128  1.5177  0.4109
 6060TIP3   OH239670   3.388   0.618  14.410 -0.7035  0.0922 -0.1453
 6060TIP3    H139671   3.354   0.585  14.327 -2.3820 -0.2859  0.6445
 6060TIP3    H239672   3.458   0.677  14.386 -0.8262 -0.3962 -1.8090
 6061TIP3   OH239673   4.309   2.783   1.181  0.2128 -0.2829 -0.3357
 6061TIP3    H139674   4.263   2.828   1.252  2.3630 -0.6668  1.4109
 6061TIP3    H239675   4.382   2.841   1.158 -0.4987 -0.1123 -2.3743
 6062TIP3   OH239676   0.878   0.608  17.105 -0.2184 -0.1411  0.3776
 6062TIP3    H139677   0.863   0.536  17.166  2.8974 -0.3304  1.0880
 6062TIP3    H239678   0.893   0.684  17.160  2.3438 -0.2536 -0.0332
 6063TIP3   OH239679   0.432   1.672  12.437  0.1964 -0.2694 -0.1255
 6063TIP3    H139680   0.434   1.603  12.371 -0.3050 -1.0248  0.6412
 6063TIP3    H239681   0.394   1.747  12.391  2.8802  0.2846 -1.6563
 6064TIP3   OH239682   3.173   5.389  13.896  0.2463  0.3704 -0.0831
 6064TIP3    H139683   3.109   5.434  13.952 -0.9230 -0.5095 -0.6819
 6064TIP3    H239684   3.121   5.344  13.830  1.4624 -0.7013 -0.3626
 6065TIP3   OH239685   4.360   1.174   5.126  0.2751  0.0533 -0.4701
 6065TIP3    H139686   4.403   1.154   5.209 -1.7555 -1.2972  0.3494
 6065TIP3    H239687   4.281   1.223   5.150 -1.1063 -1.5843 -1.3822
 6066TIP3   OH239688   3.553   6.093  11.121  0.2137 -0.4299  0.3406
 6066TIP3    H139689   3.646   6.071  11.124  0.3615  0.0743 -0.2896
 6066TIP3    H239690   3.551   6.185  11.095 -0.4909 -1.0160 -1.9156
 6067TIP3   OH239691   4.436   2.278  16.315 -0.2498 -0.3621  0.0716
 6067TIP3    H139692   4.511   2.333  16.293  0.3158 -0.8447  0.7737
 6067TIP3    H239693   4.426   2.219  16.240 -0.1825 -0.0284 -0.2015
 6068TIP3   OH239694   2.383   1.695  13.494 -0.5093  0.2045  0.3899
 6068TIP3    H139695   2.337   1.709  13.577 -0.5811  0.5324  0.2968
 6068TIP3    H239696   2.319   1.720  13.427  0.1944  1.8808  0.2824
 6069TIP3   OH239697   2.652   1.532  13.117  0.0168  0.9445  0.0826
 6069TIP3    H139698   2.660   1.438  13.133 -0.4206  0.6546 -1.2779
 6069TIP3    H239699   2.675   1.573  13.201 -0.4937 -0.3906  0.9026
 6070TIP3   OH239700   2.647   3.249  12.135  0.0697 -0.3127  0.0695
 6070TIP3    H139701   2.706   3.261  12.060 -0.4574  0.3241 -0.2536
 6070TIP3    H239702   2.652   3.155  12.155  1.5555 -0.2047  0.3565
 6071TIP3   OH239703   4.494   6.364  11.944  0.5620 -0.1597 -0.4147
 6071TIP3    H139704   4.540   6.360  12.028 -0.5941 -0.3472  0.2248
 6071TIP3    H239705   4.528   6.443  11.902  0.4468  0.4753  0.6472
 6072TIP3   OH239706   5.277   3.974   6.026  0.3245 -0.1555  0.7986
 6072TIP3    H139707   5.348   3.942   6.082  0.1044  0.2678  1.3265
 6072TIP3    H239708   5.217   4.018   6.086 -0.3202 -0.3868  0.3380
 6073TIP3   OH239709   0.803   1.592   1.690  0.6921  0.3070 -0.2960
 6073TIP3    H139710   0.804   1.531   1.763 -1.2794  2.7207  1.9672
 6073TIP3    H239711   0.710   1.613   1.677  1.2023  2.1203 -1.5565
 6074TIP3   OH239712   5.170   0.060  15.480  0.5227 -0.2123 -0.1991
 6074TIP3    H139713   5.159   0.128  15.545 -0.2618  0.0108 -0.5600
 6074TIP3    H239714   5.083   0.046  15.443  0.6983 -1.2931 -0.2460
 6075TIP3   OH239715   6.228   3.494   5.210  0.7269 -0.2715 -0.1016
 6075TIP3    H139716   6.133   3.500   5.224  0.7783  0.2844  0.0298
 6075TIP3    H239717   6.253   3.411   5.250  0.7121  0.8149  2.3476
 6076TIP3   OH239718   1.867   1.031  15.682 -0.2281  0.2996  0.0319
 6076TIP3    H139719   1.837   1.109  15.635  0.0823  0.0226 -0.6436
 6076TIP3    H239720   1.810   0.961  15.651 -0.4763  0.2416  0.6041
 6077TIP3   OH239721   1.559   6.224  10.764  0.2014  0.0790  0.1122
 6077TIP3    H139722   1.654   6.229  10.764  0.3610 -2.1599  0.3568
 6077TIP3    H239723   1.538   6.161  10.695 -1.1227  0.5604  0.0394
 6078TIP3   OH239724   0.655   6.649   6.265 -0.0878 -0.4677  0.1936
 6078TIP3    H139725   0.622   6.569   6.223 -2.0781  0.8405 -0.9147
 6078TIP3    H239726   0.601   6.659   6.343 -2.0728  1.3294 -1.2755
 6079TIP3   OH239727   1.071   4.643   3.962  0.0701  0.2310 -0.2125
 6079TIP3    H139728   1.090   4.615   4.052 -1.0041  0.4246  0.0950
 6079TIP3    H239729   1.056   4.561   3.914 -0.3385  0.1565  0.0318
 6080TIP3   OH239730   4.577   2.833   6.223  0.1079  0.2371 -0.5703
 6080TIP3    H139731   4.524   2.899   6.179 -0.4520 -0.3034 -0.7280
 6080TIP3    H239732   4.549   2.837   6.314 -0.1841 -0.0156 -0.6448
 6081TIP3   OH239733   4.313   1.126  15.437  0.5880 -0.2539 -0.2901
 6081TIP3    H139734   4.351   1.061  15.497  0.1628 -1.1632 -0.9897
 6081TIP3    H239735   4.376   1.131  15.365  0.6505  0.1689 -0.2068
 6082TIP3   OH239736   4.330   6.692   1.098 -0.3798  0.3443 -0.0922
 6082TIP3    H139737   4.292   6.685   1.185 -0.8989  0.7507 -0.2828
 6082TIP3    H239738   4.318   6.605   1.059 -0.3454  0.2265  0.1636
 6083TIP3   OH239739   6.035   4.467  14.140 -0.7649 -0.1540 -0.3370
 6083TIP3    H139740   6.046   4.373  14.129  0.3178 -0.3739  2.0461
 6083TIP3    H239741   6.108   4.494  14.197 -0.4948  2.3089 -1.6610
 6084TIP3   OH239742   5.359   0.065   0.144 -0.0109 -0.0037 -0.0118
 6084TIP3    H139743   5.355  -0.030   0.154 -1.7782  0.0359 -0.1383
 6084TIP3    H239744   5.359   0.079   0.049  0.3255  0.1263  0.0063
 6085TIP3   OH239745   4.592   1.219   2.985 -0.3459 -0.0407  0.5626
 6085TIP3    H139746   4.511   1.249   2.945  0.8256  1.9904 -0.4767
 6085TIP3    H239747   4.661   1.259   2.932  1.3788 -2.4591  0.8221
 6086TIP3   OH239748   0.849   2.378   3.913 -0.8312 -0.1869  0.3094
 6086TIP3    H139749   0.927   2.324   3.899  0.3452  1.0104  1.8468
 6086TIP3    H239750   0.812   2.391   3.825  1.9045  0.9240 -0.7818
 6087TIP3   OH239751   3.503   0.464   4.927 -0.3997  0.4815 -0.0847
 6087TIP3    H139752   3.508   0.493   5.018  0.3130 -0.5403  0.2224
 6087TIP3    H239753   3.594   0.464   4.897 -0.4184 -0.9274 -0.2164
 6088TIP3   OH239754   5.967   2.984   5.742 -0.3236 -0.2771 -0.4651
 6088TIP3    H139755   5.921   2.920   5.796 -0.7071  1.0671  0.8838
 6088TIP3    H239756   5.900   3.015   5.680 -0.0859 -1.2669 -1.2511
 6089TIP3   OH239757   3.607   5.584   4.525 -0.2439  0.3156  0.6405
 6089TIP3    H139758   3.671   5.655   4.518  0.3460 -0.2593 -0.0304
 6089TIP3    H239759   3.628   5.526   4.452 -1.9125  0.3927  0.0634
 6090TIP3   OH239760   4.122   0.254   6.370  0.8033  0.3438 -0.1857
 6090TIP3    H139761   4.087   0.184   6.425 -0.9097  1.5842  0.3705
 6090TIP3    H239762   4.135   0.213   6.284 -0.6036 -0.5591  0.0000
 6091TIP3   OH239763   1.281   2.300  11.223 -0.2670  0.1236  0.0175
 6091TIP3    H139764   1.310   2.315  11.313 -0.3691  0.8386 -0.0597
 6091TIP3    H239765   1.250   2.210  11.222 -0.0984  0.0542  0.6519
 6092TIP3   OH239766   1.130   6.457  13.729 -0.0075  0.6297  0.5198
 6092TIP3    H139767   1.074   6.428  13.657  1.6473 -0.4983 -0.3595
 6092TIP3    H239768   1.214   6.478  13.688  1.0634 -0.3024  2.1339
 6093TIP3   OH239769   4.996   1.839   0.526  0.4023 -0.0943  0.0827
 6093TIP3    H139770   4.973   1.905   0.461 -2.1029 -0.7153  0.2347
 6093TIP3    H239771   4.979   1.755   0.483  0.8336 -0.5635  0.8072
 6094TIP3   OH239772   0.608   6.667  13.438 -0.0255  0.0772  0.7701
 6094TIP3    H139773   0.540   6.663  13.505 -0.4144 -0.3624  0.3545
 6094TIP3    H239774   0.564   6.642  13.357  0.6250 -0.2248  0.4976
 6095TIP3   OH239775   2.600   5.591  13.107 -0.3407  0.3878 -0.4671
 6095TIP3    H139776   2.674   5.557  13.157 -1.7332 -2.2815 -0.0087
 6095TIP3    H239777   2.625   5.577  13.016  0.3855  1.0988 -0.3884
 6096TIP3   OH239778   4.311   6.211   5.058  0.2068  0.1550  0.4981
 6096TIP3    H139779   4.307   6.198   4.963 -1.6813  0.4858  0.5017
 6096TIP3    H239780   4.234   6.164   5.091 -0.2959  1.7434  1.6550
 6097TIP3   OH239781   1.744   2.293   4.975 -0.5362  0.2484 -0.3660
 6097TIP3    H139782   1.696   2.370   5.006 -2.1949 -1.0394  0.4276
 6097TIP3    H239783   1.813   2.281   5.039 -1.4607 -0.0280  0.6008
 6098TIP3   OH239784   3.607   1.493  15.771  0.4762  0.7025 -0.3670
 6098TIP3    H139785   3.540   1.469  15.835 -0.3464 -0.0640 -1.4633
 6098TIP3    H239786   3.574   1.573  15.730 -0.0309  0.0794 -1.2223
 6099TIP3   OH239787   6.085   5.973  13.465  0.7849 -0.0267 -0.7233
 6099TIP3    H139788   6.087   5.877  13.459 -2.2005 -0.1716 -0.7509
 6099TIP3    H239789   6.082   6.003  13.375 -0.2992 -0.0351 -0.7007
 6100TIP3   OH239790   1.956   2.343   2.484 -0.2811 -0.2097 -0.4656
 6100TIP3    H139791   2.027   2.297   2.530 -0.5041 -0.9406 -0.8410
 6100TIP3    H239792   1.986   2.433   2.478  1.4312 -0.8322 -2.1785
 6101TIP3   OH239793   1.745   6.835  11.770  0.3087  0.3135  0.6597
 6101TIP3    H139794   1.749   6.746  11.735 -1.8880 -1.0267  3.4161
 6101TIP3    H239795   1.779   6.890  11.699  0.0549 -2.5014 -1.8569
 6102TIP3   OH239796   0.864   2.721  15.106  0.4153  0.1833 -0.1441
 6102TIP3    H139797   0.901   2.709  15.194 -0.7519  4.0924  1.0670
 6102TIP3    H239798   0.816   2.804  15.111 -1.6987 -0.5868 -3.8722
 6103TIP3   OH239799   4.164   4.564   0.663  0.3927  0.5140  0.6186
 6103TIP3    H139800   4.108   4.635   0.634 -2.1446 -1.3167  0.6948
 6103TIP3    H239801   4.182   4.583   0.755  0.1666  1.2704  0.5123
 6104TIP3   OH239802   1.262   3.770   6.614  0.1282 -0.1104 -0.5919
 6104TIP3    H139803   1.324   3.699   6.630 -0.9247 -1.3466 -1.7071
 6104TIP3    H239804   1.180   3.726   6.594 -0.5732  1.4287 -1.2891
 6105TIP3   OH239805   1.229   3.206   0.615 -0.3739 -0.6465  0.4254
 6105TIP3    H139806   1.290   3.233   0.684 -1.7469  0.0994  1.3967
 6105TIP3    H239807   1.258   3.253   0.537 -0.0616  0.1963  1.0326
 6106TIP3   OH239808   6.461   1.927  16.836  0.3521  0.1415 -0.2387
 6106TIP3    H139809   6.427   2.007  16.876  0.3948  1.2582 -2.2801
 6106TIP3    H239810   6.388   1.894  16.784  1.0192  0.1582 -1.2205
 6107TIP3   OH239811   2.594   4.109   1.362 -0.2167 -0.2297  0.2721
 6107TIP3    H139812   2.637   4.047   1.421 -0.2479 -0.4464  0.0664
 6107TIP3    H239813   2.582   4.188   1.416 -2.2582 -1.1422  1.2650
 6108TIP3   OH239814   6.764   4.843   5.861  0.8086 -0.5534  0.6505
 6108TIP3    H139815   6.828   4.855   5.791  1.5711  0.5569  1.5149
 6108TIP3    H239816   6.762   4.927   5.907 -1.5146 -0.4436  0.4606
 6109TIP3   OH239817   2.156   0.832  10.282 -0.5022 -1.0040 -0.1758
 6109TIP3    H139818   2.094   0.885  10.232 -2.2891 -1.7083  1.1607
 6109TIP3    H239819   2.193   0.893  10.346  0.7626 -0.4200 -1.4195
 6110TIP3   OH239820   3.946   5.663   0.256  0.2052 -0.4127  0.1027
 6110TIP3    H139821   3.982   5.682   0.169  1.4711 -1.3901  0.3950
 6110TIP3    H239822   3.955   5.568   0.266 -1.3219 -0.5309  0.7164
 6111TIP3   OH239823   0.861   5.661   5.662 -0.2642  0.0098 -0.6750
 6111TIP3    H139824   0.885   5.747   5.627  0.2467  0.7582  1.4078
 6111TIP3    H239825   0.770   5.670   5.689 -0.4837 -0.4016 -1.2375
 6112TIP3   OH239826   4.663   5.029  12.301 -0.2135 -0.3332 -0.1628
 6112TIP3    H139827   4.611   4.949  12.294  0.5022 -0.7145 -1.8687
 6112TIP3    H239828   4.629   5.086  12.232  0.8629 -0.1467 -0.5623
 6113TIP3   OH239829   3.758   4.908   0.975  0.2198  0.1188  0.2312
 6113TIP3    H139830   3.722   4.819   0.972 -0.2544  0.2307  1.7577
 6113TIP3    H239831   3.767   4.933   0.883 -1.9559 -0.5778 -0.2295
 6114TIP3   OH239832   5.046   5.070   3.476  0.5152  0.2258  0.3648
 6114TIP3    H139833   5.010   5.153   3.507  0.6991 -0.2721  1.9832
 6114TIP3    H239834   5.137   5.091   3.453 -0.2586  1.1231 -2.2122
 6115TIP3   OH239835   3.364   0.904  15.210  0.4160  0.4393 -0.3720
 6115TIP3    H139836   3.336   0.855  15.288 -0.0167  1.4184  0.0971
 6115TIP3    H239837   3.367   0.995  15.238 -1.5907  1.0871 -1.9718
 6116TIP3   OH239838   0.357   4.400   1.655 -0.3872 -0.0680 -0.1837
 6116TIP3    H139839   0.362   4.409   1.560  0.7693  0.4989 -0.0890
 6116TIP3    H239840   0.448   4.397   1.684 -0.7098  0.3426  0.9545
 6117TIP3   OH239841   4.985   0.046  11.306 -0.0927 -0.0052 -0.1714
 6117TIP3    H139842   5.072   0.039  11.344  0.5604 -0.0051 -1.5896
 6117TIP3    H239843   4.960   0.138  11.318  0.4525  0.1847 -0.4705
 6118TIP3   OH239844   1.225   4.936  14.515 -0.6814  0.0658 -0.4185
 6118TIP3    H139845   1.297   4.888  14.474 -0.1659  0.2808  0.2278
 6118TIP3    H239846   1.198   5.000  14.449  0.4757  0.7497 -0.2550
 6119TIP3   OH239847   2.394   2.060   1.343  0.3160  0.6143  0.5111
 6119TIP3    H139848   2.317   2.108   1.315  0.2184  0.7886  1.0716
 6119TIP3    H239849   2.446   2.123   1.393 -0.0606  0.0234  1.6967
 6120TIP3   OH239850   1.817   3.176  14.785  0.5209  0.2123  0.5051
 6120TIP3    H139851   1.893   3.121  14.803  1.6588  1.2286 -0.8778
 6120TIP3    H239852   1.802   3.166  14.691  0.8089  2.2339  0.1793
 6121TIP3   OH239853   5.357   6.613  11.858 -0.5902 -0.0299  0.1126
 6121TIP3    H139854   5.267   6.619  11.828 -1.7452  3.4858  3.4213
 6121TIP3    H239855   5.353   6.553  11.933 -0.5453  1.0880  1.0449
 6122TIP3   OH239856   4.076   3.367  11.750  0.2775 -0.3252  0.0662
 6122TIP3    H139857   4.164   3.399  11.729 -0.1840  0.7104 -0.3105
 6122TIP3    H239858   4.017   3.434  11.716 -0.7448 -1.7777 -1.1667
 6123TIP3   OH239859   4.890   6.060   1.125 -0.3819  0.1305 -0.3823
 6123TIP3    H139860   4.889   6.100   1.212  0.2645  0.4473 -0.5210
 6123TIP3    H239861   4.942   6.120   1.071 -2.5965  1.1545 -1.5698
 6124TIP3   OH239862   4.064   6.066  12.261  0.7522 -0.0559 -0.3044
 6124TIP3    H139863   4.084   6.159  12.273 -1.4815  1.0073 -3.3791
 6124TIP3    H239864   4.141   6.031  12.216  0.7173  0.9006 -1.1469
 6125TIP3   OH239865   1.754   1.532  12.305 -0.3178  0.4180  0.5503
 6125TIP3    H139866   1.750   1.522  12.210 -0.9940 -0.8134  0.6897
 6125TIP3    H239867   1.663   1.542  12.331 -0.0047  3.5448  0.8419
 6126TIP3   OH239868   0.895   3.093   5.108  0.0373  0.3643  0.2011
 6126TIP3    H139869   0.898   3.088   5.012  1.7237 -0.0084  0.2332
 6126TIP3    H239870   0.836   3.166   5.127 -1.8702 -0.7833 -1.0559
 6127TIP3   OH239871   6.685   2.207  15.722 -0.4724 -0.3230 -0.0107
 6127TIP3    H139872   6.679   2.112  15.709 -1.9001 -0.4355  1.2776
 6127TIP3    H239873   6.748   2.217  15.793  1.0338 -0.1585 -1.3005
 6128TIP3   OH239874   5.201   1.526  16.641  0.5903 -0.6807 -0.4720
 6128TIP3    H139875   5.270   1.517  16.576  0.0278 -0.3559 -1.1266
 6128TIP3    H239876   5.127   1.563  16.592 -0.7100 -2.8547 -0.2688
 6129TIP3   OH239877   3.858   5.551  17.017  0.0331  0.0400 -0.3850
 6129TIP3    H139878   3.943   5.517  16.990  1.4807  1.8825  1.4994
 6129TIP3    H239879   3.798   5.476  17.009  2.0101 -1.5766 -0.8520
 6130TIP3   OH239880   2.793   4.590   2.520 -0.1651 -0.2059  0.7717
 6130TIP3    H139881   2.830   4.532   2.587 -1.0425 -0.6359  0.9025
 6130TIP3    H239882   2.762   4.531   2.452  1.2584  0.2612 -0.3159
 6131TIP3   OH239883   3.630   6.445  12.269 -0.4671 -0.0073 -0.3165
 6131TIP3    H139884   3.570   6.466  12.341  0.0888  1.3068 -0.1967
 6131TIP3    H239885   3.647   6.351  12.277  0.0531  0.2233  1.6446
 6132TIP3   OH239886   5.236   0.469   1.920  0.3250 -0.1558  0.2528
 6132TIP3    H139887   5.197   0.392   1.880 -0.0286  0.1112  0.0818
 6132TIP3    H239888   5.331   0.452   1.918  0.2397 -0.6603  0.3828
 6133TIP3   OH239889   2.822   2.224   1.662  0.5080 -0.6123  0.2887
 6133TIP3    H139890   2.867   2.156   1.713 -1.9833 -0.5511  2.8548
 6133TIP3    H239891   2.876   2.302   1.674  1.7360 -1.3773 -0.0293
 6134TIP3   OH239892   6.141   5.146   1.852  0.4116  0.3503 -0.0299
 6134TIP3    H139893   6.057   5.183   1.880  0.7327  2.0827 -1.2311
 6134TIP3    H239894   6.190   5.134   1.934 -0.3117  1.1194  0.5377
 6135TIP3   OH239895   3.856   4.434  12.634 -0.6118  0.4038 -0.0793
 6135TIP3    H139896   3.854   4.351  12.681 -0.8873  0.7180  0.4684
 6135TIP3    H239897   3.797   4.491  12.683 -0.9492  0.7212 -0.8345
 6136TIP3   OH239898   5.930   6.040  14.468  0.4005  0.0183  0.2603
 6136TIP3    H139899   5.843   6.070  14.493  0.6351 -0.2724  1.4752
 6136TIP3    H239900   5.967   6.002  14.547  1.8062  0.5336 -0.1004
 6137TIP3   OH239901   4.224   1.710  12.353 -0.0247  0.7754  0.0432
 6137TIP3    H139902   4.135   1.677  12.357  0.1345  0.3981  0.6776
 6137TIP3    H239903   4.277   1.633  12.330 -0.0306  1.3213 -1.9818
 6138TIP3   OH239904   4.494   1.088  15.239 -0.2814 -0.0378  0.5284
 6138TIP3    H139905   4.577   1.130  15.216  0.0976 -1.7202 -1.5491
 6138TIP3    H239906   4.518   0.998  15.259 -1.5669 -0.5350 -0.0323
 6139TIP3   OH239907   2.915   6.153  12.347 -0.0688  0.1904 -0.2700
 6139TIP3    H139908   2.999   6.189  12.317  0.0735 -0.8578 -1.2180
 6139TIP3    H239909   2.850   6.209  12.305  0.0952  2.1954  1.9625
 6140TIP3   OH239910   4.667   5.546   0.723  0.2966 -0.2899  0.0304
 6140TIP3    H139911   4.726   5.472   0.709  1.2446  0.3989  0.3276
 6140TIP3    H239912   4.686   5.577   0.811 -0.4955 -0.0398  0.1232
 6141TIP3   OH239913   1.078   2.217   0.522  0.1492 -0.5943  0.4706
 6141TIP3    H139914   1.068   2.312   0.513 -1.8680 -0.9032 -1.4506
 6141TIP3    H239915   1.014   2.193   0.588 -0.0306 -0.7087  0.2567
 6142TIP3   OH239916   0.025   3.992   2.095  0.5586 -0.0509 -0.4671
 6142TIP3    H139917  -0.029   3.935   2.149  0.9405  0.6461  0.6857
 6142TIP3    H239918   0.028   3.949   2.010  0.0747 -1.2583  0.1084
 6143TIP3   OH239919   1.401   5.503  14.222  0.8454 -0.0192  0.2378
 6143TIP3    H139920   1.322   5.513  14.275  1.4776 -1.4147  1.5234
 6143TIP3    H239921   1.398   5.575  14.159 -0.8277  0.6507  1.0441
 6144TIP3   OH239922   1.676   5.249  12.984 -0.4270  0.2419  0.2530
 6144TIP3    H139923   1.755   5.230  12.933 -1.7019 -1.4100 -1.2634
 6144TIP3    H239924   1.707   5.297  13.060  2.2568 -1.7419  0.5465
 6145TIP3   OH239925   2.604   2.870  11.046  0.1379  0.1137  0.0182
 6145TIP3    H139926   2.573   2.876  10.955  0.6154  2.3856 -0.0349
 6145TIP3    H239927   2.585   2.955  11.084  0.8838 -0.4654  1.7833
 6146TIP3   OH239928   2.181   2.514   1.523  0.3155 -0.7057 -0.2268
 6146TIP3    H139929   2.179   2.531   1.429  0.0463 -2.5664 -0.5955
 6146TIP3    H239930   2.275   2.515   1.545  0.5100 -1.9781 -0.8924
 6147TIP3   OH239931   0.656   5.449  13.516  0.1968 -0.0118 -0.2688
 6147TIP3    H139932   0.689   5.379  13.460  1.1571 -0.3090  0.6304
 6147TIP3    H239933   0.639   5.406  13.600  0.9982  0.8653  0.3521
 6148TIP3   OH239934   6.742   1.072  11.417 -0.0446  0.0549 -0.3437
 6148TIP3    H139935   6.672   1.007  11.427  0.0813  0.2364  2.3298
 6148TIP3    H239936   6.708   1.150  11.460  1.2223  0.6364 -0.3798
 6149TIP3   OH239937   4.125   3.499   1.345 -0.2120 -0.4958  0.6078
 6149TIP3    H139938   4.044   3.492   1.295  0.9380  0.6909 -1.5286
 6149TIP3    H239939   4.099   3.539   1.428 -1.5779  1.7266 -0.7969
 6150TIP3   OH239940   6.714   5.336  11.273 -0.1724 -0.7677  0.2709
 6150TIP3    H139941   6.798   5.323  11.317 -0.7781 -0.4456  1.5663
 6150TIP3    H239942   6.732   5.317  11.181  1.1360 -1.4789  0.6449
 6151TIP3   OH239943   1.043   5.864   1.233 -0.0318 -0.0914 -0.2648
 6151TIP3    H139944   1.058   5.945   1.282  1.4259 -0.0930 -0.6692
 6151TIP3    H239945   1.066   5.885   1.143 -0.2104 -0.8062 -0.4856
 6152TIP3   OH239946   3.555   1.145  14.008  0.2360  0.2076 -0.3418
 6152TIP3    H139947   3.606   1.099  13.940  1.4087  2.0506 -0.7891
 6152TIP3    H239948   3.473   1.097  14.012  0.6094 -0.7087 -2.2153
 6153TIP3   OH239949   2.138   3.736   5.632 -0.0077  0.0286 -0.1398
 6153TIP3    H139950   2.047   3.713   5.653 -0.4869  2.2663  0.4475
 6153TIP3    H239951   2.170   3.782   5.710  1.7564 -0.9424 -0.2207
 6154TIP3   OH239952   4.210   2.661   4.763 -0.1314 -0.3953  0.0160
 6154TIP3    H139953   4.183   2.582   4.810 -0.4453 -0.0123  0.4866
 6154TIP3    H239954   4.169   2.733   4.811  1.3161  0.1693  0.4547
 6155TIP3   OH239955   0.545   4.588  11.905 -0.7359  0.1580  0.2702
 6155TIP3    H139956   0.465   4.595  11.957 -1.2007  1.5598 -0.5716
 6155TIP3    H239957   0.592   4.669  11.922 -1.2704  1.0217 -2.0034
 6156TIP3   OH239958   2.812   5.543   0.560 -0.0704  0.1644 -0.2423
 6156TIP3    H139959   2.758   5.534   0.481 -0.7977  0.0392  0.2667
 6156TIP3    H239960   2.751   5.567   0.629  0.3657 -0.9099  0.5449
 6157TIP3   OH239961   1.459   3.484   3.162 -0.7869  0.4958  0.0583
 6157TIP3    H139962   1.482   3.500   3.254 -0.8693  1.0702 -0.0137
 6157TIP3    H239963   1.466   3.570   3.121 -0.3471  0.1624 -0.5683
 6158TIP3   OH239964   0.683   0.671   1.753  0.2648 -0.1346  0.8144
 6158TIP3    H139965   0.615   0.737   1.745 -0.3752 -0.8445  0.2488
 6158TIP3    H239966   0.765   0.720   1.742 -0.2442  0.2448 -2.2693
 6159TIP3   OH239967   5.999   5.679   3.565 -0.0944 -0.0073  0.2101
 6159TIP3    H139968   6.042   5.751   3.518  0.8323  0.3516  1.5541
 6159TIP3    H239969   6.053   5.602   3.545 -1.9379 -0.7691 -2.4916
 6160TIP3   OH239970   2.113   4.414   2.258 -0.0458  0.0829 -0.1391
 6160TIP3    H139971   2.200   4.407   2.217 -0.2116 -1.6906 -0.2582
 6160TIP3    H239972   2.116   4.497   2.305  0.8062  1.3274 -2.2222
 6161TIP3   OH239973   0.547   0.963   2.278  0.4004 -0.3631  0.4187
 6161TIP3    H139974   0.578   0.959   2.368  1.3987 -0.9610  0.0599
 6161TIP3    H239975   0.626   0.972   2.225  0.0747 -2.7444 -0.5737
 6162TIP3   OH239976   0.809   4.208  11.693 -0.1443  0.0109 -0.0093
 6162TIP3    H139977   0.771   4.137  11.641 -0.2276 -0.1057  0.2080
 6162TIP3    H239978   0.871   4.251  11.634  1.3463 -1.4399  0.4269
 6163TIP3   OH239979   2.688   3.351  10.838 -0.0855 -0.4004 -0.7207
 6163TIP3    H139980   2.596   3.328  10.825  0.0759 -0.7583 -1.2372
 6163TIP3    H239981   2.699   3.351  10.933 -0.2366 -1.8896 -0.6803
 6164TIP3   OH239982   2.247   4.947   2.020  0.3534  0.2025 -0.5458
 6164TIP3    H139983   2.186   5.014   2.051  0.5418  0.4325 -0.6631
 6164TIP3    H239984   2.323   4.997   1.989 -0.0265  0.0266 -1.8502
 6165TIP3   OH239985   0.551   2.679   6.576  0.3062 -0.3183 -0.2736
 6165TIP3    H139986   0.504   2.739   6.635  0.7780 -0.1279 -0.0867
 6165TIP3    H239987   0.530   2.711   6.488  0.2664 -0.0973 -0.1864
 6166TIP3   OH239988   0.747   0.565  14.696 -0.1504 -0.1503 -0.2408
 6166TIP3    H139989   0.670   0.509  14.704  0.2271 -0.5789  0.6669
 6166TIP3    H239990   0.763   0.571  14.602 -0.5233 -1.1271 -0.3846
 6167TIP3   OH239991   0.960   1.001   2.452  0.0170  0.4041 -0.4218
 6167TIP3    H139992   1.001   1.060   2.389  1.2880  0.3814  0.3683
 6167TIP3    H239993   0.981   0.913   2.421  0.6833  0.3931  0.0513
 6168TIP3   OH239994   0.656   5.986  16.315  0.5795 -0.3232  0.6241
 6168TIP3    H139995   0.722   6.022  16.374  0.4288  1.5254 -0.2794
 6168TIP3    H239996   0.681   6.018  16.228 -0.3706 -1.2831 -0.0409
 6169TIP3   OH239997   0.115   4.491  16.938 -0.0031 -0.0268 -0.4236
 6169TIP3    H139998   0.054   4.558  16.969  0.3062 -0.0670  0.2885
 6169TIP3    H239999   0.181   4.486  17.007  1.0094  0.2782 -1.3582
 6170TIP3   OH240000   5.251   6.727  11.047 -0.2788  0.2293 -0.4737
 6170TIP3    H140001   5.186   6.657  11.044  0.2843 -0.2686 -1.3170
 6170TIP3    H240002   5.252   6.754  11.139 -1.9623  0.5299 -0.5164
 6171TIP3   OH240003   2.967   4.366  16.118  0.0370  0.4007  0.0621
 6171TIP3    H140004   2.968   4.285  16.170  0.0099  0.5851  0.3546
 6171TIP3    H240005   3.023   4.347  16.044  0.3720  0.2539  0.3482
 6172TIP3   OH240006   3.866   0.418  10.722 -0.1706  0.0667  0.0684
 6172TIP3    H140007   3.773   0.399  10.737  0.3371 -0.6872  2.7247
 6172TIP3    H240008   3.895   0.348  10.663 -0.9980 -0.5178  0.3250
 6173TIP3   OH240009   2.712   3.423   0.649 -0.2681 -0.3145 -0.5422
 6173TIP3    H140010   2.660   3.429   0.569  0.4398  1.7517 -0.9159
 6173TIP3    H240011   2.668   3.484   0.709 -0.4811 -1.4464  0.4762
 6174TIP3   OH240012   5.791   2.416   1.132 -0.1458  0.1113  0.6637
 6174TIP3    H140013   5.842   2.354   1.184 -2.0314 -2.6021 -0.4931
 6174TIP3    H240014   5.825   2.408   1.043 -1.2500 -0.2787  0.2543
 6175TIP3   OH240015   4.279   6.040   2.852  0.2035  0.4400  0.1261
 6175TIP3    H140016   4.320   6.082   2.927  0.0482 -0.7142  0.8746
 6175TIP3    H240017   4.193   6.013   2.883  0.4223 -0.7231 -0.2177
 6176TIP3   OH240018   5.234   3.105   6.463 -0.7831 -0.0597 -0.4572
 6176TIP3    H140019   5.198   3.064   6.384 -0.4011  0.8538 -1.1286
 6176TIP3    H240020   5.212   3.197   6.453  0.0768  0.2063  0.0575
 6177TIP3   OH240021   6.738   0.963   3.554  0.7226 -0.4433  0.1095
 6177TIP3    H140022   6.742   0.973   3.649  1.4126  1.4843 -0.0915
 6177TIP3    H240023   6.830   0.956   3.527  0.5440 -0.6826 -0.4621
 6178TIP3   OH240024   5.725   5.491   0.927  0.0818 -0.5014  0.3397
 6178TIP3    H140025   5.758   5.473   1.015  1.2304 -0.1089  0.0063
 6178TIP3    H240026   5.731   5.406   0.882  1.2332 -0.3209  0.1113
 6179TIP3   OH240027   2.165   1.692  14.366 -0.0739 -0.0208  0.3000
 6179TIP3    H140028   2.146   1.603  14.397 -0.9155  0.1719  0.3789
 6179TIP3    H240029   2.132   1.693  14.276 -1.3825  0.6130  0.7544
 6180TIP3   OH240030   2.835   2.619  15.584  0.2834 -0.0367 -0.4883
 6180TIP3    H140031   2.883   2.584  15.659  0.6908  0.4477 -0.5159
 6180TIP3    H240032   2.763   2.558  15.571 -0.9694  0.8706  1.5249
 6181TIP3   OH240033   0.414   4.346  12.709  0.0668 -0.1717  0.1882
 6181TIP3    H140034   0.464   4.284  12.656  0.3811 -1.4902  1.9354
 6181TIP3    H240035   0.461   4.350  12.792 -1.1936  0.7052  0.8946
 6182TIP3   OH240036   2.204   4.760  11.193 -0.3063  0.0189  0.1729
 6182TIP3    H140037   2.291   4.800  11.195 -0.5265  0.5423 -0.4298
 6182TIP3    H240038   2.213   4.685  11.134 -0.0844 -0.3687  0.6944
 6183TIP3   OH240039   3.273   3.772   3.618 -0.0341  0.3052 -0.3304
 6183TIP3    H140040   3.222   3.815   3.549  1.0065  2.3617  0.1006
 6183TIP3    H240041   3.223   3.789   3.698  0.0888  0.2051 -0.2317
 6184TIP3   OH240042   0.121   4.601   4.636 -0.3893  0.0161 -0.2661
 6184TIP3    H140043   0.197   4.574   4.687 -0.8876 -0.9315 -0.0119
 6184TIP3    H240044   0.111   4.534   4.568  1.0391  1.8993 -2.5019
 6185TIP3   OH240045   5.385   1.293  13.127  0.0133 -0.2231  0.4243
 6185TIP3    H140046   5.470   1.287  13.084 -0.0438 -0.9986  0.3963
 6185TIP3    H240047   5.338   1.361  13.079 -0.1105 -1.1829 -0.8625
 6186TIP3   OH240048   1.279   0.325   1.571  0.2890 -0.5526  0.2755
 6186TIP3    H140049   1.368   0.322   1.535 -0.4382 -0.6811 -1.6566
 6186TIP3    H240050   1.234   0.251   1.531 -0.7919 -0.2836  0.9447
 6187TIP3   OH240051   3.624   3.221  11.443  0.0390 -0.2018 -0.4992
 6187TIP3    H140052   3.711   3.251  11.417  0.0469 -1.3243 -1.9141
 6187TIP3    H240053   3.639   3.170  11.522  0.6867 -0.4637 -0.7838
 6188TIP3   OH240054   4.820   5.170   4.243 -0.3635  0.1438 -0.1289
 6188TIP3    H140055   4.902   5.175   4.291  0.1135  1.0808 -0.9893
 6188TIP3    H240056   4.769   5.244   4.276 -0.1761  0.5752 -0.7884
 6189TIP3   OH240057   6.373   4.627  11.996 -0.3475 -0.4510 -0.1440
 6189TIP3    H140058   6.323   4.547  12.010 -0.6864 -0.4223 -1.1105
 6189TIP3    H240059   6.309   4.691  11.967  0.1996 -0.3766 -1.2550
 6190TIP3   OH240060   6.475   0.042   2.921 -0.4227 -0.0157  0.0436
 6190TIP3    H140061   6.429   0.123   2.900 -0.6788 -0.4007 -0.9625
 6190TIP3    H240062   6.532   0.026   2.846  0.5119 -0.1546  0.7621
 6191TIP3   OH240063   4.831   2.556  15.624  0.1375 -0.0577  0.1586
 6191TIP3    H140064   4.760   2.512  15.577  0.1251  0.8339 -0.6928
 6191TIP3    H240065   4.904   2.495  15.618 -0.9911 -1.8198  2.6087
 6192TIP3   OH240066   3.747   3.555  13.765 -0.1585  0.3322  0.0656
 6192TIP3    H140067   3.790   3.513  13.839  0.9746 -0.1260 -0.8158
 6192TIP3    H240068   3.717   3.482  13.710  0.4814  0.6558 -0.7317
 6193TIP3   OH240069   6.558   4.811  12.146 -0.4475  0.2344 -0.2755
 6193TIP3    H140070   6.523   4.746  12.086  0.1965  0.5186 -0.9741
 6193TIP3    H240071   6.488   4.825  12.210 -1.6964  0.9427 -1.7489
 6194TIP3   OH240072   0.909   6.038  15.820 -0.1751  0.0236 -0.6627
 6194TIP3    H140073   0.844   6.108  15.817 -1.4568 -0.9609  1.4965
 6194TIP3    H240074   0.873   5.968  15.765 -0.7717 -0.3431  0.1687
 6195TIP3   OH240075   1.726   1.414  12.672  0.5242  0.7325  0.4340
 6195TIP3    H140076   1.801   1.457  12.630  1.4928  0.5018  1.8719
 6195TIP3    H240077   1.758   1.389  12.758 -1.1861  0.4945  1.0293
 6196TIP3   OH240078   1.099   4.425  16.384 -0.0260 -0.0546  0.2692
 6196TIP3    H140079   1.124   4.387  16.469  2.4750  0.5441 -0.1234
 6196TIP3    H240080   1.099   4.519  16.400  1.6226  0.1284 -0.6260
 6197TIP3   OH240081   2.364   2.553   2.204  0.1228  0.5474  0.7121
 6197TIP3    H140082   2.274   2.585   2.199 -0.4370 -1.0467 -0.2373
 6197TIP3    H240083   2.356   2.458   2.197  1.9258  0.4131 -0.0298
 6198TIP3   OH240084   4.020   4.532   6.260 -0.1341  0.0195  0.3357
 6198TIP3    H140085   4.013   4.505   6.351 -1.8224  1.2590  0.6045
 6198TIP3    H240086   4.102   4.492   6.230  0.0261 -1.1047  2.1289
 6199TIP3   OH240087   6.468   4.802   0.903 -0.8428 -0.0326 -0.3933
 6199TIP3    H140088   6.410   4.862   0.858 -0.8371 -0.5044 -1.0467
 6199TIP3    H240089   6.415   4.724   0.919 -0.4807 -0.3485 -0.7219
 6200TIP3   OH240090   3.586   2.904   2.513  0.1905  0.4600  0.2840
 6200TIP3    H140091   3.513   2.938   2.564  1.2869  1.8329  0.9863
 6200TIP3    H240092   3.602   2.817   2.550 -1.8572 -0.4082 -0.7239
 6201TIP3   OH240093   3.292   5.964   0.892  0.0901 -0.1090 -0.3180
 6201TIP3    H140094   3.366   5.922   0.848  0.0949 -0.9130  0.4142
 6201TIP3    H240095   3.277   5.909   0.969  1.6829  2.5843  2.1214
 6202TIP3   OH240096   3.806   6.198  12.207 -0.7174  0.6621 -0.5333
 6202TIP3    H140097   3.868   6.134  12.174 -0.5506  0.9501 -0.7815
 6202TIP3    H240098   3.752   6.150  12.270  1.1868  0.8980  1.4083
 6203TIP3   OH240099   2.334   3.159  11.648  0.5786  0.1955  0.3243
 6203TIP3    H140100   2.343   3.214  11.726  1.3912  3.2329 -1.7389
 6203TIP3    H240101   2.240   3.141  11.642  0.5879 -0.7075  2.3452
 6204TIP3   OH240102   5.832   4.194  10.972 -0.0304  0.1326  0.6936
 6204TIP3    H140103   5.793   4.144  10.900  0.2588  1.4299 -0.4221
 6204TIP3    H240104   5.902   4.139  11.006  0.2530 -0.2489 -0.4677
 6205TIP3   OH240105   3.033   1.483   0.104  0.0206  0.0058 -0.2404
 6205TIP3    H140106   2.961   1.546   0.100  0.2974  0.4099  0.8524
 6205TIP3    H240107   3.044   1.454   0.013 -1.1800  0.3089 -0.4967
 6206TIP3   OH240108   1.880   3.638  14.717 -0.6141 -0.6248  0.4813
 6206TIP3    H140109   1.844   3.678  14.796 -0.4481 -0.5949  0.5417
 6206TIP3    H240110   1.913   3.553  14.746  0.7620 -0.0269  0.7541
 6207TIP3   OH240111   0.523   2.838   3.106 -0.1049 -0.1832  1.2292
 6207TIP3    H140112   0.551   2.916   3.155 -0.8600 -0.0392  1.4332
 6207TIP3    H240113   0.432   2.824   3.131  0.0659 -1.2395  1.3181
 6208TIP3   OH240114   5.227   1.209  16.497  0.0574 -0.0941  0.8304
 6208TIP3    H140115   5.305   1.241  16.452  0.1284  0.1495  1.1233
 6208TIP3    H240116   5.172   1.287  16.509 -1.8539 -0.7455 -2.4812
 6209TIP3   OH240117   4.744   5.411   1.740 -0.4560  0.0293 -0.0551
 6209TIP3    H140118   4.771   5.320   1.749 -1.1786 -0.1757  0.0832
 6209TIP3    H240119   4.770   5.435   1.651  0.5321 -0.0324  0.2078
 6210TIP3   OH240120   3.101   0.809  15.580 -0.3106  0.0305 -0.3933
 6210TIP3    H140121   3.052   0.743  15.628  0.3920 -0.4749 -0.3498
 6210TIP3    H240122   3.165   0.842  15.643  0.0959 -0.0760 -0.7440
 6211TIP3   OH240123   5.158   6.557   4.191  0.0990 -0.4745 -0.5705
 6211TIP3    H140124   5.196   6.473   4.219  0.3980  0.0150  0.5415
 6211TIP3    H240125   5.180   6.618   4.261  0.9824  0.8583 -1.9553
 6212TIP3   OH240126   5.058   1.581  11.827 -0.3555  0.8072  0.1056
 6212TIP3    H140127   5.003   1.616  11.897 -1.1379 -0.6708  0.2527
 6212TIP3    H240128   5.124   1.529  11.871 -1.6309 -1.2142 -0.2609
 6213TIP3   OH240129   4.927   0.117  13.714  0.3239 -0.0441 -0.0085
 6213TIP3    H140130   4.946   0.210  13.723 -2.2771  0.5593 -0.1861
 6213TIP3    H240131   4.915   0.103  13.620  0.4153 -0.5112  0.0439
 6214TIP3   OH240132   6.316   4.940   0.679 -0.5774 -0.5758  0.3155
 6214TIP3    H140133   6.382   4.971   0.617 -0.3308 -1.5958  0.0496
 6214TIP3    H240134   6.255   4.889   0.626 -1.8540  0.7060  0.4807
 6215TIP3   OH240135   6.181   3.325   4.411  0.1625 -0.4149  0.4021
 6215TIP3    H140136   6.128   3.399   4.381  0.5964  0.5066  1.8329
 6215TIP3    H240137   6.121   3.250   4.407  0.2623 -0.4837 -2.9848
 6216TIP3   OH240138   5.136   5.664  15.595 -0.3364  0.0300  0.7006
 6216TIP3    H140139   5.188   5.733  15.554 -1.2403  0.8681  0.9336
 6216TIP3    H240140   5.142   5.683  15.689 -1.5735  0.5228  0.6940
 6217TIP3   OH240141   4.293   3.430  15.584 -0.0967  0.1216  0.0198
 6217TIP3    H140142   4.353   3.413  15.511 -2.1384 -0.6788 -1.5670
 6217TIP3    H240143   4.256   3.516  15.565  0.1265  0.3688  0.6905
 6218TIP3   OH240144   5.712   3.358   3.950  0.5214 -0.4917 -0.1346
 6218TIP3    H140145   5.798   3.331   3.980  0.6271  0.5687  0.5789
 6218TIP3    H240146   5.727   3.443   3.908 -0.0788 -0.5939 -0.5697
 6219TIP3   OH240147   1.438   4.737  12.586  0.6430  0.5053  0.3422
 6219TIP3    H140148   1.362   4.753  12.643  0.2764 -1.2767  0.4106
 6219TIP3    H240149   1.513   4.744  12.645  0.3686  0.1411  0.7454
 6220TIP3   OH240150   0.691   5.660  12.830 -0.3134 -0.4903 -0.0003
 6220TIP3    H140151   0.621   5.720  12.803  0.0191  1.3804  2.9332
 6220TIP3    H240152   0.652   5.609  12.901 -0.1180 -2.8727 -1.4922
 6221TIP3   OH240153   5.858   3.036  15.571 -0.6079 -0.4229 -0.5723
 6221TIP3    H140154   5.888   3.001  15.487  0.1967 -0.3651 -0.3131
 6221TIP3    H240155   5.811   2.964  15.612  0.0303 -0.8355 -0.5559
 6222TIP3   OH240156   3.145   2.974  15.507 -0.3476 -0.8328 -0.2903
 6222TIP3    H140157   3.079   2.990  15.575  0.7150 -1.8626  1.0262
 6222TIP3    H240158   3.095   2.940  15.433 -1.6668  1.2426 -0.4571
 6223TIP3   OH240159   0.138   2.766  11.465 -0.2024 -0.1653  0.5689
 6223TIP3    H140160   0.114   2.807  11.549 -0.0315  1.7079 -0.2498
 6223TIP3    H240161   0.054   2.756  11.419 -0.2005 -0.3639  0.6094
 6224TIP3   OH240162   0.101   6.342  12.760  0.2892  0.2488 -0.4707
 6224TIP3    H140163   0.043   6.369  12.832  0.8151 -1.1707  0.5439
 6224TIP3    H240164   0.107   6.419  12.704 -1.0533  1.0400  0.4030
 6225TIP3   OH240165   1.532   6.556   5.677  0.4713  0.7421 -0.6405
 6225TIP3    H140166   1.457   6.536   5.622  0.4119  3.0103 -1.5163
 6225TIP3    H240167   1.512   6.642   5.716  1.6568  0.3990  0.8737
 6226TIP3   OH240168   1.200   4.893  10.959  0.0204 -0.1263 -0.2428
 6226TIP3    H140169   1.219   4.871  11.050 -1.0900 -0.6886 -0.1379
 6226TIP3    H240170   1.221   4.986  10.952 -1.4618  0.3466  1.0395
 6227TIP3   OH240171   0.370   5.705  14.825  0.5365  0.3567 -0.4107
 6227TIP3    H140172   0.348   5.629  14.878  0.6525  0.8772  0.4212
 6227TIP3    H240173   0.286   5.735  14.789 -0.0564  1.7210  1.8967
 6228TIP3   OH240174   2.089   1.623   3.735 -0.1946 -0.0695  0.4246
 6228TIP3    H140175   2.133   1.570   3.668 -0.6240  1.7761 -1.4438
 6228TIP3    H240176   2.116   1.584   3.818  2.3619 -1.0039 -0.7206
 6229TIP3   OH240177   5.830   0.858  16.796 -0.2744 -1.0117 -0.2708
 6229TIP3    H140178   5.886   0.903  16.859 -0.4678 -0.9249 -0.1620
 6229TIP3    H240179   5.783   0.928  16.751 -1.2002 -1.1377  0.4792
 6230TIP3   OH240180   1.407   5.662   1.445 -0.6770 -1.0795 -0.6582
 6230TIP3    H140181   1.381   5.590   1.502  0.2121 -1.1926 -0.3743
 6230TIP3    H240182   1.484   5.699   1.487 -2.6820  1.8784  0.7600
 6231TIP3   OH240183   4.435   2.458   1.558 -0.2437  0.0435  0.2307
 6231TIP3    H140184   4.394   2.373   1.543 -1.3157  0.4157  0.8961
 6231TIP3    H240185   4.361   2.516   1.578  0.1395  1.7335 -2.6434
 6232TIP3   OH240186   5.405   2.689   4.290  0.5801 -0.0566  0.3433
 6232TIP3    H140187   5.356   2.744   4.351 -0.0094  1.4214 -1.3763
 6232TIP3    H240188   5.376   2.600   4.309 -0.4483  0.4911  1.4491
 6233TIP3   OH240189   5.181   1.757  13.520  0.3555 -0.0033 -0.1250
 6233TIP3    H140190   5.093   1.731  13.546 -0.8812  2.5564 -1.4716
 6233TIP3    H240191   5.206   1.693  13.454 -1.4278  0.4805 -1.3264
 6234TIP3   OH240192   0.830   2.679  13.744 -0.3124  0.6604  0.1040
 6234TIP3    H140193   0.848   2.641  13.830  1.4258 -0.4767 -0.7139
 6234TIP3    H240194   0.914   2.715  13.715 -0.7885  0.7138 -1.2740
 6235TIP3   OH240195   5.103   3.926  15.475 -0.2154 -0.1346  0.1045
 6235TIP3    H140196   5.008   3.937  15.467 -0.0712  0.4355 -1.0794
 6235TIP3    H240197   5.140   3.998  15.424  0.8562 -0.6789  0.0840
 6236TIP3   OH240198   5.718   2.191   4.650  0.2172  0.1427 -0.5569
 6236TIP3    H140199   5.796   2.168   4.598 -0.1238  1.2564 -1.6044
 6236TIP3    H240200   5.714   2.123   4.717  2.8716  0.8002  0.3994
 6237TIP3   OH240201   1.059   1.836  13.517  0.1043 -0.1778 -0.0917
 6237TIP3    H140202   1.136   1.865  13.468 -1.1943  0.4716 -1.8241
 6237TIP3    H240203   1.067   1.740  13.519  1.3989 -0.0831  0.5646
 6238TIP3   OH240204   5.940   6.499   0.620  0.6375 -0.0021 -0.7033
 6238TIP3    H140205   6.036   6.493   0.621  0.7385  0.9160  1.3944
 6238TIP3    H240206   5.911   6.409   0.633  1.3627  0.0387  1.8510
 6239TIP3   OH240207   4.320   0.909   2.573  0.2562  0.4275  0.3559
 6239TIP3    H140208   4.290   0.838   2.516 -1.2972  0.1284  1.4844
 6239TIP3    H240209   4.258   0.980   2.558 -0.9212 -0.0889  2.5288
 6240TIP3   OH240210   4.660   1.556  11.424  0.6542  0.0190 -0.2924
 6240TIP3    H140211   4.604   1.620  11.380  0.4748  0.2182  0.2248
 6240TIP3    H240212   4.609   1.526  11.499  1.0298 -0.1944 -0.1160
 6241TIP3   OH240213   0.581   5.483  16.467  0.6928  0.2333 -0.0238
 6241TIP3    H140214   0.661   5.518  16.428  0.8959  1.2625  1.2553
 6241TIP3    H240215   0.520   5.557  16.466  0.3077 -0.0758  0.4950
 6242TIP3   OH240216   3.287   5.673  14.351 -0.1314 -0.1412 -0.0221
 6242TIP3    H140217   3.351   5.710  14.412 -1.8248 -0.6475  2.1747
 6242TIP3    H240218   3.221   5.741  14.341 -0.6538 -0.6461 -0.0660
 6243TIP3   OH240219   4.127   2.733   4.327  0.1630 -0.2112 -0.7031
 6243TIP3    H140220   4.098   2.677   4.399  0.0629  0.3394 -0.3101
 6243TIP3    H240221   4.150   2.816   4.369 -0.2302  0.2319 -1.3431
 6244TIP3   OH240222   3.855   1.213   2.420  0.4121  0.0428 -0.4974
 6244TIP3    H140223   3.890   1.289   2.467 -1.3334 -0.2495  1.4459
 6244TIP3    H240224   3.784   1.249   2.367  1.6966  0.2053 -2.1802
 6245TIP3   OH240225   5.785   3.123   5.599  0.0549  0.1636  0.2259
 6245TIP3    H140226   5.715   3.188   5.594 -0.3521 -0.1812  1.0458
 6245TIP3    H240227   5.765   3.061   5.529 -0.8284 -0.2509  0.8113
 6246TIP3   OH240228   4.192   3.156  13.236 -0.1973  0.9530  0.7099
 6246TIP3    H140229   4.273   3.149  13.187 -0.2245 -0.7868  0.8844
 6246TIP3    H240230   4.214   3.211  13.312  0.6095  1.1054  0.3715
 6247TIP3   OH240231   6.463   5.246  12.158  0.2870 -0.0420 -0.0972
 6247TIP3    H140232   6.552   5.243  12.193  0.9439 -0.8093 -1.7129
 6247TIP3    H240233   6.466   5.188  12.082 -1.3069  0.7957 -0.8421
 6248TIP3   OH240234   5.389   2.807   2.110  0.4271  1.0049  0.2741
 6248TIP3    H140235   5.454   2.755   2.063 -1.1832  0.2316 -1.2104
 6248TIP3    H240236   5.335   2.741   2.155 -0.3080  1.5381  0.1748
 6249TIP3   OH240237   2.812   3.075   0.201  0.1185  0.0524 -0.4277
 6249TIP3    H140238   2.750   3.009   0.171  1.0481 -0.7771 -0.5980
 6249TIP3    H240239   2.800   3.150   0.143 -1.8178  0.5554  0.5357
 6250TIP3   OH240240   4.249   1.828  11.794 -0.4936 -0.0964 -0.2952
 6250TIP3    H140241   4.293   1.835  11.709 -2.9411 -0.9103 -1.7586
 6250TIP3    H240242   4.254   1.916  11.831  1.5875  0.0194 -0.7169
 6251TIP3   OH240243   1.496   1.953   1.594  0.0328  0.3466  0.0229
 6251TIP3    H140244   1.405   1.930   1.610 -0.1091  1.3613  0.7229
 6251TIP3    H240245   1.499   2.048   1.599  1.0044  0.3741 -0.6946
 6252TIP3   OH240246   6.590   4.420  14.639  0.2743  0.1756 -0.2898
 6252TIP3    H140247   6.647   4.457  14.705 -0.9160 -0.1059  0.9534
 6252TIP3    H240248   6.505   4.410  14.683  0.3257 -3.4148 -0.6642
 6253TIP3   OH240249   0.422   6.630  13.656  0.1294  0.7692  0.0183
 6253TIP3    H140250   0.470   6.561  13.703  0.4129  1.0474  0.1399
 6253TIP3    H240251   0.335   6.630  13.696 -0.0652  0.0723 -0.3923
 6254TIP3   OH240252   3.723   4.729  12.257  0.2872  0.4050  0.0860
 6254TIP3    H140253   3.628   4.743  12.254  0.1978  0.0110  0.8281
 6254TIP3    H240254   3.746   4.741  12.350  1.1658  1.7532 -0.2662
 6255TIP3   OH240255   1.514   5.380   0.739  0.4491  0.3394 -0.3009
 6255TIP3    H140256   1.428   5.366   0.700  1.0111 -0.4965 -1.2688
 6255TIP3    H240257   1.546   5.292   0.760  1.1627  0.6273 -0.1484
 6256TIP3   OH240258   4.594   3.663   4.230  0.4586  0.2003  0.1158
 6256TIP3    H140259   4.643   3.597   4.180  0.7279  0.3529  0.1749
 6256TIP3    H240260   4.615   3.746   4.187  0.0514  0.2367 -0.0116
 6257TIP3   OH240261   2.182   3.188   5.483 -0.1491 -0.3062  0.0948
 6257TIP3    H140262   2.168   3.263   5.540 -0.8616  1.1653 -1.8792
 6257TIP3    H240263   2.264   3.149   5.514 -1.0921 -0.3343  2.7888
 6258TIP3   OH240264   2.874   4.866   1.201 -0.3506 -0.6055  0.1323
 6258TIP3    H140265   2.791   4.904   1.172 -0.1172 -1.2696 -1.5353
 6258TIP3    H240266   2.927   4.941   1.228 -1.4003 -0.1621  1.0346
 6259TIP3   OH240267   0.959   6.014   1.910 -0.6310  0.5956  0.4092
 6259TIP3    H140268   0.996   5.930   1.935 -0.9615  0.1383 -0.5861
 6259TIP3    H240269   1.034   6.072   1.898 -0.3353  0.1271 -0.0060
 6260TIP3   OH240270   1.770   6.819  14.072  0.3646  0.6127  0.1490
 6260TIP3    H140271   1.730   6.835  13.986 -0.1120  0.3037  0.3057
 6260TIP3    H240272   1.857   6.858  14.066 -0.1786  1.8305 -0.0073
 6261TIP3   OH240273   4.398   4.157   5.965 -0.1215  0.0280 -0.2759
 6261TIP3    H140274   4.468   4.221   5.982 -0.5151  0.4745 -0.3070
 6261TIP3    H240275   4.337   4.169   6.038  0.6776 -1.5798  0.7220
 6262TIP3   OH240276   0.488   3.448   1.637  0.0243 -0.4447  0.0121
 6262TIP3    H140277   0.521   3.435   1.548  0.6501 -4.1442  0.6431
 6262TIP3    H240278   0.527   3.531   1.665  0.8235  0.1816 -2.6849
 6263TIP3   OH240279   3.830   4.848  16.923  0.5225 -0.0308 -0.3961
 6263TIP3    H140280   3.838   4.758  16.889  1.6561 -0.2994  0.5032
 6263TIP3    H240281   3.736   4.862  16.932  0.3287 -1.8149  1.1187
 6264TIP3   OH240282   2.260   5.514   3.220  0.6568 -0.2946  0.0107
 6264TIP3    H140283   2.326   5.564   3.269 -1.4363  0.8275  1.8470
 6264TIP3    H240284   2.256   5.556   3.135 -0.4593  2.2963  1.2344
 6265TIP3   OH240285   5.310   2.554  16.937 -0.0575  0.2181  0.2806
 6265TIP3    H140286   5.360   2.611  16.878 -1.8913  0.5036 -1.0883
 6265TIP3    H240287   5.366   2.544  17.014  0.7733  3.0556  0.1585
 6266TIP3   OH240288   5.295   0.568   3.884  0.2700  0.2271 -0.6603
 6266TIP3    H140289   5.341   0.493   3.847  0.8024  1.3389 -2.3477
 6266TIP3    H240290   5.340   0.584   3.968  1.6045 -0.0016 -1.3047
 6267TIP3   OH240291   5.259   0.797  15.405 -0.2264  0.3488  0.2883
 6267TIP3    H140292   5.306   0.776  15.324 -0.9385  1.1052 -0.3306
 6267TIP3    H240293   5.318   0.855  15.453  0.3210 -0.3323  0.4644
 6268TIP3   OH240294   0.427   5.402   4.539  0.2285  0.4550  0.3398
 6268TIP3    H140295   0.375   5.329   4.573 -0.3044  0.8763  0.4431
 6268TIP3    H240296   0.514   5.388   4.575  0.3935 -0.6827 -0.4652
 6269TIP3   OH240297   1.174   0.229  12.942  0.1333  0.5284 -0.1214
 6269TIP3    H140298   1.216   0.144  12.961 -1.7251 -0.5904 -0.7971
 6269TIP3    H240299   1.143   0.221  12.852  0.6936  2.3012 -0.5085
 6270TIP3   OH240300   5.339   3.991  11.380  0.2013  0.3032  0.8002
 6270TIP3    H140301   5.370   3.966  11.467 -1.8048 -1.5895  1.0768
 6270TIP3    H240302   5.244   3.991  11.388 -0.0514 -0.4947 -1.5167
 6271TIP3   OH240303   6.739   5.732   0.787  0.4244 -0.0886 -0.4845
 6271TIP3    H140304   6.760   5.788   0.861  1.3919  0.2472 -0.9960
 6271TIP3    H240305   6.660   5.686   0.813  0.8814 -0.1468  0.8445
 6272TIP3   OH240306   4.510   6.496  13.263 -0.0545  0.1311 -0.4066
 6272TIP3    H140307   4.575   6.464  13.326 -1.2965  0.7218  1.2069
 6272TIP3    H240308   4.488   6.584  13.293 -1.0785  0.2174 -1.3604
 6273TIP3   OH240309   1.565   2.545   4.061 -0.1080 -0.4885 -0.5467
 6273TIP3    H140310   1.524   2.570   3.978 -0.6738 -1.2700 -0.5064
 6273TIP3    H240311   1.548   2.620   4.119 -0.3663 -0.2623 -0.9086
 6274TIP3   OH240312   2.596   6.314   6.225 -0.1268 -0.1391 -0.6969
 6274TIP3    H140313   2.670   6.357   6.183  0.6697  0.1116  0.8669
 6274TIP3    H240314   2.629   6.291   6.312 -1.5472 -1.0345 -0.3687
 6275TIP3   OH240315   3.062   5.585  14.076  0.3103 -0.1871 -0.1063
 6275TIP3    H140316   3.072   5.674  14.112  1.9269  0.7150 -2.5800
 6275TIP3    H240317   3.086   5.528  14.149  0.2322  1.4162  1.2497
 6276TIP3   OH240318   2.364   5.218   0.495  0.5561  0.0449 -0.3304
 6276TIP3    H140319   2.313   5.138   0.504  0.5701  0.1150  0.4454
 6276TIP3    H240320   2.455   5.190   0.497  0.5894  0.2106  1.5040
 6277TIP3   OH240321   0.480   1.099  11.080  0.1938 -0.1448 -0.2215
 6277TIP3    H140322   0.510   1.087  10.990  0.6505 -1.5271  0.0806
 6277TIP3    H240323   0.407   1.036  11.090 -1.2975  1.5009 -0.2413
 6278TIP3   OH240324   1.864   1.408   1.799 -0.2142 -0.4572  0.3706
 6278TIP3    H140325   1.871   1.313   1.801  1.4694 -0.3924 -0.4292
 6278TIP3    H240326   1.804   1.427   1.726  0.8120 -0.8898 -0.6092
 6279TIP3   OH240327   1.069   6.553  13.267 -0.3055 -0.2488  0.0722
 6279TIP3    H140328   1.102   6.508  13.189  0.7901  1.2371 -0.3863
 6279TIP3    H240329   0.992   6.600  13.237 -0.1559 -0.0544 -0.0142
 6280TIP3   OH240330   4.004   0.075   3.383 -0.4139 -0.2804  0.2397
 6280TIP3    H140331   4.040   0.095   3.470 -0.3768 -0.0090  0.1616
 6280TIP3    H240332   4.079   0.042   3.333 -0.3589 -0.0974  0.2011
 6281TIP3   OH240333   4.262   1.077   4.894 -0.5859 -0.0970  0.4029
 6281TIP3    H140334   4.311   1.083   4.976 -0.3877 -0.2762  0.2962
 6281TIP3    H240335   4.172   1.060   4.922 -0.7005  0.8200  0.6238
 6282TIP3   OH240336   3.211   5.581   3.955  0.0916  0.1315  0.3012
 6282TIP3    H140337   3.147   5.586   3.884 -0.3933 -1.1369  0.6256
 6282TIP3    H240338   3.247   5.670   3.962  1.7831 -0.1326 -3.0254
 6283TIP3   OH240339   2.388   3.083  16.477 -0.7165 -0.2034 -0.0166
 6283TIP3    H140340   2.371   3.043  16.391 -0.7985  0.8530 -0.5131
 6283TIP3    H240341   2.307   3.129  16.498 -0.3012  0.5065  0.0738
 6284TIP3   OH240342   4.637   0.580  14.793 -0.7841  0.2171 -0.2823
 6284TIP3    H140343   4.647   0.489  14.766  1.4468 -0.2206  1.7362
 6284TIP3    H240344   4.686   0.630  14.728 -0.9075 -0.1441 -0.6591
 6285TIP3   OH240345   6.024   5.062   5.885  0.1100  0.1488 -0.6220
 6285TIP3    H140346   6.023   5.050   5.980 -0.4099 -0.2560 -0.6751
 6285TIP3    H240347   5.995   5.153   5.873 -0.8981 -0.1357 -0.4359
 6286TIP3   OH240348   0.740   2.161   4.730 -0.2188 -0.2953 -0.8704
 6286TIP3    H140349   0.813   2.215   4.761 -0.0216 -1.3320  0.5741
 6286TIP3    H240350   0.782   2.084   4.693 -0.5393  0.0098 -1.8981
 6287TIP3   OH240351   0.908   6.603   2.314  0.0144 -0.5691 -0.2393
 6287TIP3    H140352   0.858   6.614   2.395  2.6701 -1.7553  1.6796
 6287TIP3    H240353   0.949   6.517   2.321  1.9663  0.1325 -1.8811
 6288TIP3   OH240354   5.590   4.258  11.604 -0.5922 -0.2664 -0.6913
 6288TIP3    H140355   5.643   4.220  11.674  0.8925  1.1933 -0.9732
 6288TIP3    H240356   5.584   4.351  11.626 -0.4093  0.1536 -2.2830
 6289TIP3   OH240357   0.061   6.603  16.090 -0.1475 -0.6593  0.3875
 6289TIP3    H140358   0.038   6.661  16.163 -1.9429 -2.4769  1.3993
 6289TIP3    H240359   0.116   6.536  16.130  0.0633 -0.8766 -0.2653
 6290TIP3   OH240360   1.923   6.687  14.901  0.0321  1.1738  0.7975
 6290TIP3    H140361   2.005   6.704  14.856  0.5324 -0.1989  1.1405
 6290TIP3    H240362   1.945   6.685  14.994  0.0435 -1.1126  0.8082
 6291TIP3   OH240363   4.353   6.832  16.635  0.0071  0.1259 -0.3638
 6291TIP3    H140364   4.393   6.753  16.671  2.2765  1.2847 -0.1941
 6291TIP3    H240365   4.264   6.832  16.671  0.5853 -1.3583  1.1780
 6292TIP3   OH240366   2.884   6.484   1.475 -0.1683 -0.0215  0.3121
 6292TIP3    H140367   2.977   6.493   1.495 -0.0629  0.8671 -0.5357
 6292TIP3    H240368   2.840   6.508   1.557  0.3290 -0.2437  0.6538
 6293TIP3   OH240369   1.881   1.660  16.641  0.2835 -0.4290 -0.2819
 6293TIP3    H140370   1.935   1.620  16.573 -1.4541 -1.1796 -1.2996
 6293TIP3    H240371   1.918   1.748  16.653  2.0961 -1.1404 -0.4326
 6294TIP3   OH240372   6.220   5.456   1.973  0.6248  0.3261 -0.1154
 6294TIP3    H140373   6.192   5.429   1.885  0.2950  1.0071 -0.2287
 6294TIP3    H240374   6.149   5.512   2.004  0.3035 -0.6311  0.9615
 6295TIP3   OH240375   2.018   2.940   5.464  0.3033  0.3577 -0.5337
 6295TIP3    H140376   2.084   3.004   5.493 -1.7193  1.7868  1.1970
 6295TIP3    H240377   1.945   2.993   5.435 -1.5885 -1.1132  1.2582
 6296TIP3   OH240378   0.816   1.675  15.596  0.3957  0.1256 -0.1107
 6296TIP3    H140379   0.895   1.627  15.573  1.9013  2.6587 -0.6620
 6296TIP3    H240380   0.771   1.690  15.513  0.7305  0.9191 -0.1584
 6297TIP3   OH240381   0.468   2.264  14.851 -0.9742 -0.0560  0.2327
 6297TIP3    H140382   0.495   2.177  14.881  0.8609  0.6704  0.8137
 6297TIP3    H240383   0.464   2.316  14.931 -3.1097  0.1778  0.0300
 6298TIP3   OH240384   1.954   2.143   0.189 -0.1333 -0.5475  0.2115
 6298TIP3    H140385   2.023   2.179   0.133 -0.4419  0.3154  0.3831
 6298TIP3    H240386   1.901   2.089   0.130  0.7943 -1.3977  0.1178
 6299TIP3   OH240387   2.741   4.728   4.463 -0.2070  0.2725 -0.0902
 6299TIP3    H140388   2.801   4.697   4.395 -0.6648 -0.4018 -0.1959
 6299TIP3    H240389   2.654   4.702   4.431 -0.4570  0.2942  0.5707
 6300TIP3   OH240390   3.882   4.869  11.574  0.1349  0.0155 -0.3750
 6300TIP3    H140391   3.873   4.961  11.599 -0.1831  0.0297 -0.5277
 6300TIP3    H240392   3.927   4.827  11.647 -1.5076 -0.1187  0.6072
 6301TIP3   OH240393   6.397   4.894   0.394 -0.8315  0.1867 -0.1944
 6301TIP3    H140394   6.452   4.846   0.456 -0.4342  1.0963  0.1641
 6301TIP3    H240395   6.455   4.959   0.356 -0.8479 -0.8726 -2.1510
 6302TIP3   OH240396   1.680   2.333  15.049  0.0318  0.4573  0.0275
 6302TIP3    H140397   1.636   2.345  15.133  0.8050 -0.9507  0.6657
 6302TIP3    H240398   1.630   2.263  15.005  1.2590 -0.7875  0.5371
 6303TIP3   OH240399   3.968   3.340   0.431 -0.0242  0.7023  0.2855
 6303TIP3    H140400   3.895   3.280   0.452  1.1360 -0.5216  0.9748
 6303TIP3    H240401   3.955   3.361   0.339 -1.3644  0.6831  0.4375
 6304TIP3   OH240402   5.706   3.967   3.891 -0.7092 -0.9973  0.1881
 6304TIP3    H140403   5.755   3.915   3.955  0.3766  0.7211  0.8176
 6304TIP3    H240404   5.772   3.991   3.825 -0.6302  1.3411  1.0312
 6305TIP3   OH240405   6.781   6.646   1.092  0.0402 -0.6593 -0.4424
 6305TIP3    H140406   6.848   6.577   1.092 -0.1974 -0.9222  0.8956
 6305TIP3    H240407   6.705   6.605   1.134 -0.5896 -0.0110 -0.9251
 6306TIP3   OH240408   0.769   2.435   4.527  0.3714  0.0489 -0.2971
 6306TIP3    H140409   0.675   2.451   4.527  0.3829  0.1358  0.0502
 6306TIP3    H240410   0.795   2.445   4.619  0.7231  0.0463 -0.3937
 6307TIP3   OH240411   2.100   3.894   4.514 -0.4852 -0.7641 -0.2351
 6307TIP3    H140412   2.038   3.822   4.503 -0.7833 -0.6822  0.8080
 6307TIP3    H240413   2.096   3.915   4.608 -0.9210  1.0778 -0.6287
 6308TIP3   OH240414   4.543   6.141   4.146  0.4646 -0.3006  0.4921
 6308TIP3    H140415   4.607   6.130   4.217  1.6661 -1.7104 -0.7470
 6308TIP3    H240416   4.595   6.168   4.071 -0.5545 -0.4717 -0.2930
 6309TIP3   OH240417   1.752   0.184   6.375  0.6599 -0.6003  0.1561
 6309TIP3    H140418   1.700   0.221   6.447 -1.0135  1.7460 -2.0506
 6309TIP3    H240419   1.771   0.260   6.319  1.7155 -2.3346 -1.9501
 6310TIP3   OH240420   0.634   0.531  12.497  0.3245  0.2533 -0.5255
 6310TIP3    H140421   0.705   0.509  12.556 -1.1079 -1.2989  0.7090
 6310TIP3    H240422   0.656   0.488  12.414 -0.0281 -1.8175  0.3993
 6311TIP3   OH240423   1.476   0.650   0.891 -0.1854  0.4174  0.0145
 6311TIP3    H140424   1.518   0.633   0.807 -1.8193  1.5215 -1.0857
 6311TIP3    H240425   1.440   0.565   0.917 -0.3303  0.2196 -0.7989
 6312TIP3   OH240426   3.802   3.106   0.288 -0.0024  0.2093  0.3220
 6312TIP3    H140427   3.898   3.107   0.288  0.0178  2.0385 -0.2582
 6312TIP3    H240428   3.778   3.104   0.380  0.5528 -1.0377  0.4697
 6313TIP3   OH240429   4.470   1.374   1.226 -1.2407  0.6798 -0.0054
 6313TIP3    H140430   4.469   1.325   1.308  0.0124 -2.2496 -1.5877
 6313TIP3    H240431   4.433   1.313   1.162 -0.3417  2.1122 -1.9640
 6314TIP3   OH240432   1.402   5.161  10.454  0.3259 -0.4607 -0.2297
 6314TIP3    H140433   1.362   5.212  10.384 -1.1205 -1.9995 -0.5720
 6314TIP3    H240434   1.376   5.206  10.535 -0.1562 -0.1473 -0.5606
 6315TIP3   OH240435   5.888   3.983  12.155 -0.2279  0.2555 -0.6719
 6315TIP3    H140436   5.811   3.931  12.179 -0.4833 -0.0137 -1.9821
 6315TIP3    H240437   5.931   3.931  12.086  0.9895  0.5253 -0.1499
 6316TIP3   OH240438   0.516   4.031  13.658  0.5241 -0.3003 -0.9248
 6316TIP3    H140439   0.603   4.037  13.697  0.2561  0.2869 -0.4026
 6316TIP3    H240440   0.488   3.941  13.675 -0.7359  0.6444  2.7859
 6317TIP3   OH240441   0.768   5.495  15.322 -0.0723 -0.3133  0.7930
 6317TIP3    H140442   0.725   5.452  15.395 -2.0253  0.8364  0.3853
 6317TIP3    H240443   0.779   5.586  15.350 -0.7861  0.1289 -0.2988
 6318TIP3   OH240444   5.323   3.682  10.932 -0.6565 -0.0672  0.3098
 6318TIP3    H140445   5.411   3.707  10.906 -1.2702  0.0615 -1.7880
 6318TIP3    H240446   5.327   3.588  10.946 -0.1670 -0.0449  0.3081
 6319TIP3   OH240447   6.788   2.687   1.047 -0.1114  0.6672  0.1806
 6319TIP3    H140448   6.864   2.640   1.083 -1.0504 -1.3060 -0.2805
 6319TIP3    H240449   6.752   2.734   1.122  1.4512  1.5271  0.4458
 6320TIP3   OH240450   0.777   6.248  11.328  0.0008  0.0637  0.5077
 6320TIP3    H140451   0.846   6.245  11.261  0.6780  1.3988  1.1165
 6320TIP3    H240452   0.792   6.169  11.381 -0.4422 -0.9202 -0.7802
 6321TIP3   OH240453   6.179   1.478   5.242  0.1823  0.0118  0.2538
 6321TIP3    H140454   6.094   1.434   5.243  0.8378 -1.4529 -1.6081
 6321TIP3    H240455   6.228   1.438   5.314 -0.8199  1.2442  1.6826
 6322TIP3   OH240456   1.259   4.562   5.814  0.0828 -0.2410 -0.0245
 6322TIP3    H140457   1.185   4.521   5.769 -0.0027  0.1081 -0.2037
 6322TIP3    H240458   1.267   4.513   5.897 -2.3149  1.6563  1.4544
 6323TIP3   OH240459   5.407   1.672  15.010 -0.0453  0.0377 -0.5739
 6323TIP3    H140460   5.451   1.634  15.087 -2.2920 -0.1388  0.7239
 6323TIP3    H240461   5.469   1.659  14.939  0.9623 -2.5120  0.6020
 6324TIP3   OH240462   3.625   6.199   1.214  0.2166  0.0010 -0.0333
 6324TIP3    H140463   3.566   6.224   1.142  0.7204 -1.0855 -0.8556
 6324TIP3    H240464   3.568   6.191   1.290 -0.5256  0.0471 -0.5699
 6325TIP3   OH240465   4.969   2.153  13.466 -0.2362 -0.1306  0.1954
 6325TIP3    H140466   5.003   2.095  13.535 -1.3206 -1.1200 -0.0615
 6325TIP3    H240467   4.924   2.223  13.514 -0.6324 -0.5925  0.5101
 6326TIP3   OH240468   6.359   4.398  15.713  0.0387 -0.1709 -0.3388
 6326TIP3    H140469   6.377   4.492  15.700  0.1669 -0.2752 -0.9911
 6326TIP3    H240470   6.410   4.355  15.644 -0.1406 -0.7124 -0.1374
 6327TIP3   OH240471   0.121   2.871   4.104 -0.2429 -0.3657  0.0544
 6327TIP3    H140472   0.034   2.844   4.072 -0.1132 -0.7108 -0.0146
 6327TIP3    H240473   0.111   2.877   4.199  0.2962 -2.9121  0.3527
 6328TIP3   OH240474   2.340   0.476  15.004 -0.0792  0.0523  0.3633
 6328TIP3    H140475   2.322   0.561  15.045 -0.8237 -0.5615  1.3412
 6328TIP3    H240476   2.365   0.499  14.914  0.3428  1.3418  0.7767
 6329TIP3   OH240477   4.510   6.833   1.465 -0.0973  0.0930 -0.5305
 6329TIP3    H140478   4.529   6.926   1.477 -1.6312  0.0957  3.3261
 6329TIP3    H240479   4.593   6.796   1.435  0.5808  2.6233 -2.1263
 6330TIP3   OH240480   0.275   0.860   0.867 -0.2442  0.1275 -0.0666
 6330TIP3    H140481   0.204   0.901   0.817 -1.0147 -0.6065  0.3794
 6330TIP3    H240482   0.233   0.836   0.950  0.4969 -0.4551  0.1444
 6331TIP3   OH240483   2.314   3.321   3.114 -0.4176  0.1280  0.1773
 6331TIP3    H140484   2.354   3.234   3.114 -0.8423 -0.0802  0.9045
 6331TIP3    H240485   2.326   3.353   3.025  0.2329 -0.4492  0.0468
 6332TIP3   OH240486   5.712   1.991  17.095 -0.2193  0.6001 -0.8919
 6332TIP3    H140487   5.731   1.972  17.003 -1.4812 -0.5994 -0.9479
 6332TIP3    H240488   5.626   2.034  17.093 -1.2558 -1.3135 -0.1772
 6333TIP3   OH240489   3.254   4.307  16.734  0.3541  0.4200  0.2287
 6333TIP3    H140490   3.274   4.368  16.805 -0.0451  0.2144  0.5276
 6333TIP3    H240491   3.161   4.288  16.745 -0.1127  1.6408 -1.3495
 6334TIP3   OH240492   0.519   5.395   5.565 -0.0347 -0.1170  0.5146
 6334TIP3    H140493   0.466   5.475   5.555 -1.8470 -0.9691  2.4670
 6334TIP3    H240494   0.481   5.351   5.641  2.1707 -1.9009  0.6772
 6335TIP3   OH240495   6.778   5.532  14.224 -0.3158  0.1408 -0.3218
 6335TIP3    H140496   6.791   5.502  14.314  2.2711  1.6650 -0.0598
 6335TIP3    H240497   6.740   5.619  14.233  0.7330  0.6481 -0.6247
 6336TIP3   OH240498   1.125   4.442   4.940  0.2718 -0.7100  0.7878
 6336TIP3    H140499   1.151   4.459   4.850  2.0374  0.3768  1.4450
 6336TIP3    H240500   1.149   4.351   4.956  1.4942 -0.4415  0.6144
 6337TIP3   OH240501   5.551   3.868   6.112  0.1505 -0.1928  0.8340
 6337TIP3    H140502   5.500   3.790   6.091 -1.4907  0.4081  2.3476
 6337TIP3    H240503   5.592   3.848   6.196  0.5579  0.1961  0.7302
 6338TIP3   OH240504   2.668   1.337   3.572 -0.3071  0.5373 -0.3838
 6338TIP3    H140505   2.748   1.323   3.523 -0.0464  0.0145  0.1806
 6338TIP3    H240506   2.673   1.429   3.598  0.6115  0.2581  0.5032
 6339TIP3   OH240507   6.771   1.388   4.189  0.4814 -0.1034 -0.3380
 6339TIP3    H140508   6.788   1.481   4.178  0.5168  0.1185  1.3371
 6339TIP3    H240509   6.676   1.380   4.179  0.1952  0.4722  1.5547
 6340TIP3   OH240510   3.565   0.684  17.200  0.1595 -0.1571 -0.4626
 6340TIP3    H140511   3.644   0.712  17.245 -0.4000  0.3417  0.2497
 6340TIP3    H240512   3.502   0.669  17.270 -0.0266 -1.7291 -0.9366
 6341TIP3   OH240513   4.687   0.051  16.270 -0.2866 -0.4090 -0.0704
 6341TIP3    H140514   4.705   0.106  16.194  1.0562 -1.8857 -0.8994
 6341TIP3    H240515   4.592   0.047  16.275 -0.5621  3.5902  1.3187
 6342TIP3   OH240516   2.551   4.627   5.274 -0.0609  1.1960  0.4535
 6342TIP3    H140517   2.591   4.579   5.202 -1.5595  0.6955 -0.0933
 6342TIP3    H240518   2.596   4.711   5.276  1.5546  0.3630  0.4212
 6343TIP3   OH240519   0.027   4.912  12.370 -0.4656  0.7004 -0.1897
 6343TIP3    H140520  -0.055   4.872  12.398 -1.4951  1.5591 -1.8231
 6343TIP3    H240521   0.047   4.976  12.438  0.0669 -0.9938  1.3474
 6344TIP3   OH240522   2.392   2.624   4.553  0.0298  0.4043  0.1412
 6344TIP3    H140523   2.393   2.632   4.648  0.6934  0.0155  0.1745
 6344TIP3    H240524   2.440   2.543   4.535  1.0295  1.1262 -0.5792
 6345TIP3   OH240525   1.427   1.310   3.227 -0.5346  0.1786 -0.1641
 6345TIP3    H140526   1.505   1.320   3.282  0.0568  3.3599 -1.4043
 6345TIP3    H240527   1.392   1.224   3.252  3.5695 -1.6829  0.1179
 6346TIP3   OH240528   4.799   1.871   4.077 -0.0584  0.7056  0.0533
 6346TIP3    H140529   4.877   1.909   4.036  0.3704 -1.3403 -1.1254
 6346TIP3    H240530   4.801   1.779   4.054 -1.5745  0.0931  2.0219
 6347TIP3   OH240531   3.805   2.662   0.593  0.0734 -0.5251  0.4388
 6347TIP3    H140532   3.880   2.713   0.560 -0.0001 -0.1298  0.8704
 6347TIP3    H240533   3.844   2.590   0.641  0.1807 -0.9362 -0.2575
 6348TIP3   OH240534   0.644   1.471  13.887  0.1978 -0.1936 -0.0556
 6348TIP3    H140535   0.681   1.460  13.799 -1.7757 -0.2051 -0.9243
 6348TIP3    H240536   0.556   1.506  13.872 -0.7981 -1.7111  1.8188
 6349TIP3   OH240537   1.745   4.532   5.474  0.1061  0.0812 -0.3729
 6349TIP3    H140538   1.761   4.437   5.473 -0.8377 -0.0800 -1.4657
 6349TIP3    H240539   1.665   4.544   5.423  0.2042  1.4746 -0.2369
 6350TIP3   OH240540   1.781   6.673   2.243  0.2076  0.2861  0.5571
 6350TIP3    H140541   1.755   6.581   2.231 -0.7259  0.3364  1.8915
 6350TIP3    H240542   1.703   6.715   2.279 -0.0931  2.1531 -2.0573
 6351TIP3   OH240543   6.586   5.834  11.696 -0.5897 -0.1267 -0.4144
 6351TIP3    H140544   6.605   5.836  11.603  2.6081  1.8618  0.1197
 6351TIP3    H240545   6.554   5.745  11.713 -0.5795 -0.7415 -3.2511
 6352TIP3   OH240546   0.587   1.102   1.904  0.0546  0.0015  0.4555
 6352TIP3    H140547   0.500   1.097   1.945 -0.4857 -0.7489 -0.7058
 6352TIP3    H240548   0.582   1.177   1.845  0.6103  0.6783  1.2446
 6353TIP3   OH240549   0.491   3.138  16.726  0.4179  0.9370  0.1748
 6353TIP3    H140550   0.481   3.106  16.816 -0.6192 -0.1259 -0.2951
 6353TIP3    H240551   0.586   3.145  16.714  0.5784  0.8083  1.2556
 6354TIP3   OH240552   3.625   5.552   2.986 -0.2004 -0.1840  0.6589
 6354TIP3    H140553   3.591   5.480   3.039 -2.6016  1.7522  1.9584
 6354TIP3    H240554   3.550   5.585   2.937  0.4211  2.2769  1.1938
 6355TIP3   OH240555   5.062   5.437  11.351  0.0377  0.9949  0.2478
 6355TIP3    H140556   4.969   5.435  11.371  0.3499  0.0325  1.8176
 6355TIP3    H240557   5.066   5.429  11.256 -1.4733  0.6304  0.1858
 6356TIP3   OH240558   2.246   5.554  16.017  0.2872 -0.0914 -0.5627
 6356TIP3    H140559   2.244   5.463  16.047 -0.4564 -0.3524 -1.3628
 6356TIP3    H240560   2.180   5.598  16.072  0.4453 -0.0901 -0.3709
 6357TIP3   OH240561   2.109   3.862   5.199 -0.0663 -0.4652 -0.6593
 6357TIP3    H140562   2.062   3.798   5.252 -1.0943 -0.5963 -1.6883
 6357TIP3    H240563   2.041   3.919   5.164  0.8176  1.2421  0.2414
 6358TIP3   OH240564   3.226   2.352  11.962  0.1075 -0.7607  0.2834
 6358TIP3    H140565   3.203   2.260  11.960 -1.1614 -0.4783  1.1774
 6358TIP3    H240566   3.287   2.363  11.889 -1.0492 -1.9522 -0.9042
 6359TIP3   OH240567   3.922   2.563  17.166 -0.2342  0.2736 -0.3804
 6359TIP3    H140568   3.838   2.607  17.157  0.1372  0.5667 -3.8071
 6359TIP3    H240569   3.899   2.472  17.186 -1.3237  0.5088 -0.5108
 6360TIP3   OH240570   5.729   3.997   4.550 -0.1281 -0.3058 -0.5727
 6360TIP3    H140571   5.767   3.954   4.626 -1.4006  1.0706  0.9001
 6360TIP3    H240572   5.804   4.034   4.503  0.6457 -0.9884  0.1096
 6361TIP3   OH240573   0.816   3.621   3.836  0.0080  0.7394  0.0106
 6361TIP3    H140574   0.727   3.628   3.870 -0.0364 -2.5364  0.9628
 6361TIP3    H240575   0.808   3.563   3.760  1.3650 -0.2118  0.5470
 6362TIP3   OH240576   6.563   2.684  17.134  0.3754 -0.5608  0.1351
 6362TIP3    H140577   6.583   2.690  17.041 -0.5999 -0.9001 -0.1076
 6362TIP3    H240578   6.551   2.775  17.161 -0.0176 -0.4938 -0.2392
 6363TIP3   OH240579   3.715   5.951   0.898 -0.4673 -0.6308 -0.4505
 6363TIP3    H140580   3.745   5.988   0.815 -1.1145 -1.7204 -1.1982
 6363TIP3    H240581   3.789   5.963   0.958  0.2679 -0.4491 -1.3746
 6364TIP3   OH240582   0.232   0.618  11.536  0.0008 -0.4326 -0.2368
 6364TIP3    H140583   0.138   0.625  11.519 -0.2662  0.8157  1.4823
 6364TIP3    H240584   0.265   0.562  11.465 -1.8603 -0.1289 -1.4224
 6365TIP3   OH240585   5.668   5.374   5.821  0.3484 -0.0822 -0.4402
 6365TIP3    H140586   5.659   5.308   5.751  2.0147 -0.2691 -0.5410
 6365TIP3    H240587   5.622   5.451   5.788  3.3840  0.8246 -3.1704
 6366TIP3   OH240588   5.794   0.714   5.486 -0.3577 -0.5268  0.1396
 6366TIP3    H140589   5.742   0.793   5.467  1.4825  0.4925 -1.0006
 6366TIP3    H240590   5.776   0.695   5.578  0.4627  2.3238  0.9988
 6367TIP3   OH240591   6.695   1.434   6.564  0.2360  0.6319  0.1775
 6367TIP3    H140592   6.651   1.467   6.485 -1.3547 -0.3020  0.6136
 6367TIP3    H240593   6.788   1.435   6.542 -0.2434 -1.1361 -2.3486
 6368TIP3   OH240594   5.180   4.116  16.240  0.1320  0.0397 -0.2373
 6368TIP3    H140595   5.266   4.149  16.213 -0.2064  0.6156 -0.6287
 6368TIP3    H240596   5.198   4.028  16.272  0.9487  0.3396  0.1729
 6369TIP3   OH240597   4.025   5.269   0.378  0.0387  0.9540  0.8641
 6369TIP3    H140598   4.113   5.268   0.417  0.6239  0.2688 -0.4230
 6369TIP3    H240599   3.970   5.225   0.443  1.1032 -0.6821  0.7205
 6370TIP3   OH240600   3.697   1.697  11.464 -0.7698  0.0145 -0.4416
 6370TIP3    H140601   3.716   1.607  11.491  1.1759  0.8792  1.3419
 6370TIP3    H240602   3.618   1.721  11.512  0.1594  0.0540  1.1357
 6371TIP3   OH240603   0.762   1.128   4.938 -0.4657  0.1292 -0.2438
 6371TIP3    H140604   0.842   1.109   4.889 -0.1130  1.5051 -0.2321
 6371TIP3    H240605   0.719   1.043   4.947  1.3943 -0.7912  0.4816
 6372TIP3   OH240606   2.275   6.362  13.852 -0.0741 -0.0509  0.2744
 6372TIP3    H140607   2.342   6.330  13.792  0.7026 -0.8669  1.5277
 6372TIP3    H240608   2.318   6.435  13.899 -1.6424  2.6642 -2.1762
 6373TIP3   OH240609   4.699   3.964  17.047 -0.1171 -0.5008  0.4238
 6373TIP3    H140610   4.773   3.904  17.057 -0.0295 -0.5120 -0.2359
 6373TIP3    H240611   4.622   3.907  17.043 -0.0874 -0.5363  0.3583
 6374TIP3   OH240612   0.357   5.225   5.377 -0.2712 -0.4104 -0.1941
 6374TIP3    H140613   0.419   5.272   5.433 -1.5335  0.7990  0.2277
 6374TIP3    H240614   0.285   5.201   5.435 -1.7336  1.1007 -1.2905
 6375TIP3   OH240615   3.443   4.680   3.285 -0.7234 -0.0401 -0.4105
 6375TIP3    H140616   3.457   4.709   3.375 -1.4792  0.5622 -0.4781
 6375TIP3    H240617   3.380   4.608   3.293  0.0727 -0.7382 -0.3648
 6376TIP3   OH240618   4.496   3.913  12.791  0.0388  0.5649  0.6213
 6376TIP3    H140619   4.426   3.870  12.742  1.6232  0.5769 -1.8393
 6376TIP3    H240620   4.451   3.956  12.864 -2.4818  0.3193 -0.6533
 6377TIP3   OH240621   3.866   1.596  16.110  0.4554 -0.5549  0.1652
 6377TIP3    H140622   3.867   1.654  16.186  2.3412  0.3028 -0.4611
 6377TIP3    H240623   3.935   1.532  16.127  0.7936 -0.4443 -0.7235
 6378TIP3   OH240624   1.119   3.046   6.166 -0.1144  0.3149 -0.0591
 6378TIP3    H140625   1.201   3.001   6.149  0.7178  1.7198  0.1205
 6378TIP3    H240626   1.144   3.127   6.211 -1.6949  0.1282  1.2660
 6379TIP3   OH240627   6.241   5.519  11.660  0.6358  0.0780 -0.0964
 6379TIP3    H140628   6.179   5.584  11.627 -0.2360 -0.0777  1.1462
 6379TIP3    H240629   6.225   5.517  11.755  1.2456 -1.3258 -0.0024
 6380TIP3   OH240630   6.505   6.615  14.860  0.4010  0.0189 -0.4125
 6380TIP3    H140631   6.520   6.542  14.920  0.5319 -0.2148 -0.7330
 6380TIP3    H240632   6.426   6.591  14.812 -0.9709  1.1577  1.1452
 6381TIP3   OH240633   4.093   2.103  15.575 -0.6711 -0.6539 -0.0759
 6381TIP3    H140634   4.051   2.172  15.627  1.8842 -1.1229  2.9186
 6381TIP3    H240635   4.077   2.023  15.624  1.5190 -1.2039 -0.1865
 6382TIP3   OH240636   3.380   2.016   1.810  0.1604  0.3549  0.2745
 6382TIP3    H140637   3.301   1.993   1.760  0.1040 -0.9725  0.9567
 6382TIP3    H240638   3.347   2.066   1.885  0.0319  0.3372  0.2302
 6383TIP3   OH240639   3.143   5.360  11.311 -0.3906  0.2716 -0.2182
 6383TIP3    H140640   3.092   5.302  11.255 -0.9118  1.4199 -0.9517
 6383TIP3    H240641   3.080   5.423  11.345  0.0901  0.1620  0.9187
 6384TIP3   OH240642   0.777   3.664   0.662 -0.0807 -0.5761 -0.0355
 6384TIP3    H140643   0.731   3.748   0.662  0.6856 -0.1377 -0.7527
 6384TIP3    H240644   0.732   3.614   0.593  0.0962 -0.3802 -0.2984
 6385TIP3   OH240645   3.460   3.844  14.341 -0.3052 -0.0254 -0.3807
 6385TIP3    H140646   3.389   3.802  14.389 -0.0955  0.4370  0.3420
 6385TIP3    H240647   3.535   3.786  14.354  0.1008  0.7588  0.9859
 6386TIP3   OH240648   0.097   5.641   0.189 -0.4044 -0.2794  0.6879
 6386TIP3    H140649   0.040   5.582   0.139 -0.5929 -1.0312  1.7544
 6386TIP3    H240650   0.115   5.594   0.270  1.7915 -0.0877  0.3882
 6387TIP3   OH240651   3.832   4.380   0.459  0.1367  0.3562  0.2603
 6387TIP3    H140652   3.872   4.398   0.374 -0.6298  4.2067  0.5633
 6387TIP3    H240653   3.900   4.332   0.507  1.7384  0.7392 -1.5027
 6388TIP3   OH240654   4.026   3.421  12.028 -0.3142 -0.0085  0.2853
 6388TIP3    H140655   4.039   3.389  11.939  1.0342 -1.6990  1.0311
 6388TIP3    H240656   4.072   3.505  12.030 -1.1031  0.4658 -0.8270
 6389TIP3   OH240657   5.569   0.768   1.437  0.3451  0.2079 -0.2080
 6389TIP3    H140658   5.570   0.831   1.510 -0.5768 -0.6934  0.6227
 6389TIP3    H240659   5.492   0.714   1.454  1.3129 -1.3859 -0.6790
 6390TIP3   OH240660   4.313   4.817  11.153 -0.2998  0.1933  0.3424
 6390TIP3    H140661   4.235   4.798  11.205 -1.2292  1.2246 -0.6437
 6390TIP3    H240662   4.363   4.735  11.156 -1.6087 -0.6349  0.6449
 6391TIP3   OH240663   6.513   2.932   0.065  0.4295  0.4160 -0.4978
 6391TIP3    H140664   6.596   2.978   0.075 -0.0165  1.4420 -1.3248
 6391TIP3    H240665   6.447   3.001   0.057 -0.4723 -0.3758 -0.1675
 6392TIP3   OH240666   2.681   5.437   1.546 -0.0395  0.4533 -0.5756
 6392TIP3    H140667   2.600   5.388   1.534  0.2083  0.0373 -0.5674
 6392TIP3    H240668   2.658   5.527   1.525 -0.0461  0.0485 -2.4096
 6393TIP3   OH240669   0.699   0.142  12.324 -0.0892 -0.1079  0.8239
 6393TIP3    H140670   0.791   0.117  12.314 -0.5278 -0.9210 -1.9539
 6393TIP3    H240671   0.698   0.236  12.303 -0.0003 -0.3273 -0.2318
 6394TIP3   OH240672   0.227   1.940  12.225  0.1570 -0.1343  0.5131
 6394TIP3    H140673   0.141   1.914  12.260 -0.3840  0.3830 -0.3727
 6394TIP3    H240674   0.215   2.031  12.199  1.5319  0.5359  2.0412
 6395TIP3   OH240675   3.761   1.210   6.190  0.2161 -0.6198 -0.2776
 6395TIP3    H140676   3.713   1.181   6.268  1.6638 -1.4157  0.3452
 6395TIP3    H240677   3.803   1.291   6.216 -0.4129 -0.1576 -0.6816
 6396TIP3   OH240678   2.244   2.172  16.078  0.4225  0.0920  0.3222
 6396TIP3    H140679   2.202   2.244  16.032  0.5128 -0.4184 -0.5665
 6396TIP3    H240680   2.310   2.139  16.017  0.6841 -0.4630  0.8888
 6397TIP3   OH240681   4.793   5.874  16.793  0.2880  0.1110 -0.3240
 6397TIP3    H140682   4.870   5.818  16.800 -0.2195 -0.5715 -0.0352
 6397TIP3    H240683   4.816   5.954  16.839  0.7948 -0.1249 -0.1673
 6398TIP3   OH240684   6.359   4.867  16.083  0.8198  0.2950  0.3476
 6398TIP3    H140685   6.359   4.948  16.032  1.2638  0.9694  1.3809
 6398TIP3    H240686   6.303   4.808  16.034  1.0284  1.0001 -0.7855
 6399TIP3   OH240687   0.738   4.352  14.903 -0.0458  0.1745  0.2349
 6399TIP3    H140688   0.814   4.329  14.849  0.0832  1.6544 -0.2521
 6399TIP3    H240689   0.673   4.285  14.881  0.3127  0.2234 -1.1200
 6400TIP3   OH240690   2.875   3.092   1.131  0.5872 -0.3024  0.3896
 6400TIP3    H140691   2.908   3.018   1.080 -0.6301 -1.2625  0.9295
 6400TIP3    H240692   2.795   3.119   1.085  1.2093  0.9498 -0.0131
 6401TIP3   OH240693   5.675   0.852   0.182 -0.1500 -0.2041  0.3510
 6401TIP3    H140694   5.604   0.859   0.119  0.7642 -0.9430 -0.8096
 6401TIP3    H240695   5.754   0.867   0.130  0.5847 -0.1088  1.4686
 6402TIP3   OH240696   4.611   0.488   6.188 -0.1570 -0.0626 -0.8100
 6402TIP3    H140697   4.539   0.541   6.222 -0.7211 -0.6814 -1.0161
 6402TIP3    H240698   4.685   0.508   6.246 -0.7175 -0.0372 -0.0897
 6403TIP3   OH240699   0.281   0.329  10.835 -0.3637  0.1179  0.1752
 6403TIP3    H140700   0.241   0.300  10.753 -2.4806  0.4852  1.0074
 6403TIP3    H240701   0.306   0.420  10.818  0.3480 -0.1762 -0.4193
 6404TIP3   OH240702   3.970   0.881  15.360  0.9097  0.4085 -0.4994
 6404TIP3    H140703   3.888   0.896  15.312  0.3020 -0.7577  0.1232
 6404TIP3    H240704   4.039   0.903  15.298  0.1297  1.1127 -1.1459
 6405TIP3   OH240705   3.051   4.934  11.136 -0.1894  0.0787  0.7886
 6405TIP3    H140706   3.105   4.973  11.068 -0.6693 -0.6510 -0.0213
 6405TIP3    H240707   3.103   4.944  11.216 -0.1053  1.9434  0.5371
 6406TIP3   OH240708   2.455   5.971  14.111  0.3800 -0.0803  0.1288
 6406TIP3    H140709   2.422   5.985  14.200  0.3202 -0.0524  0.1032
 6406TIP3    H240710   2.388   6.010  14.055  0.5701  0.1805  0.0823
 6407TIP3   OH240711   6.716   2.053   1.086 -0.3187 -0.3431 -0.4904
 6407TIP3    H140712   6.754   2.141   1.079  1.6939 -1.1775 -0.6766
 6407TIP3    H240713   6.636   2.066   1.138 -0.2547  1.6286 -0.7880
 6408TIP3   OH240714   5.070   6.168   4.749  0.2670  0.1334  0.4775
 6408TIP3    H140715   4.995   6.194   4.803 -1.8280 -1.4750 -1.4123
 6408TIP3    H240716   5.103   6.088   4.790  0.8888  0.7684  1.2382
 6409TIP3   OH240717   4.413   1.940  16.571 -0.2552 -0.2506  0.4785
 6409TIP3    H140718   4.456   1.891  16.641  0.0297 -0.6623  0.0215
 6409TIP3    H240719   4.460   2.023  16.568  0.6798 -0.7844 -0.1666
 6410TIP3   OH240720   5.802   3.225   3.362 -0.0348  0.4514  0.2565
 6410TIP3    H140721   5.830   3.306   3.405 -0.1322  1.0629 -0.8000
 6410TIP3    H240722   5.883   3.173   3.354 -0.0916  0.1354  1.5426
 6411TIP3   OH240723   2.781   3.015  16.446  0.5121  0.3136  0.6518
 6411TIP3    H140724   2.789   2.967  16.528  0.5364  0.3253  0.6570
 6411TIP3    H240725   2.743   3.099  16.471 -1.3584 -0.4101  0.3956
 6412TIP3   OH240726   2.932   0.949  16.239  0.4475  0.3108 -0.3180
 6412TIP3    H140727   3.020   0.945  16.275  1.3834 -0.8511 -2.5317
 6412TIP3    H240728   2.874   0.941  16.315  2.1632  2.5728  1.3577
 6413TIP3   OH240729   6.143   5.013  12.881  0.1612  0.3367 -0.1540
 6413TIP3    H140730   6.131   4.948  12.812 -0.0916 -0.8462  0.9631
 6413TIP3    H240731   6.084   5.084  12.857  1.0612  0.5536 -1.8465
 6414TIP3   OH240732   4.916   0.302   2.861  0.0908 -0.6405 -0.1067
 6414TIP3    H140733   5.003   0.342   2.863  0.5807 -1.6549 -0.2683
 6414TIP3    H240734   4.933   0.208   2.849 -1.0106 -0.9127  0.3167
 6415TIP3   OH240735   5.332   4.523   0.308 -0.6524 -0.5847  0.3134
 6415TIP3    H140736   5.342   4.477   0.392  1.3441 -1.9349 -0.5957
 6415TIP3    H240737   5.300   4.456   0.248 -1.4689  0.2208 -0.1728
 6416TIP3   OH240738   6.582   6.345  15.642 -0.3531  0.0404 -0.3997
 6416TIP3    H140739   6.675   6.367  15.636 -0.8579  2.3432 -0.6196
 6416TIP3    H240740   6.566   6.336  15.736  0.4878 -2.5840 -0.4238
 6417TIP3   OH240741   1.187   6.180   1.729 -0.5731 -0.8017  0.0076
 6417TIP3    H140742   1.253   6.113   1.742  0.9229  0.4763 -0.7055
 6417TIP3    H240743   1.135   6.149   1.655 -0.9170 -1.8997  0.6892
 6418TIP3   OH240744   0.469   5.609  13.380  0.0622 -0.0202  0.6954
 6418TIP3    H140745   0.541   5.557  13.416  1.1020  1.1767  0.4066
 6418TIP3    H240746   0.412   5.627  13.454  0.9690  0.4629  1.2934
 6419TIP3   OH240747   4.894   2.539  15.103  0.5565  0.2128 -0.3948
 6419TIP3    H140748   4.857   2.596  15.171 -0.4124 -1.5502  0.6351
 6419TIP3    H240749   4.872   2.582  15.021 -1.5362  0.5740  0.2835
 6420TIP3   OH240750   0.255   2.279  10.946 -0.3012  0.7125  0.4586
 6420TIP3    H140751   0.331   2.328  10.977  0.5951 -1.1177  1.3425
 6420TIP3    H240752   0.281   2.244  10.861 -0.5066  0.8550  0.3372
 6421TIP3   OH240753   2.390   5.840   2.310  0.3096 -0.2161 -0.6477
 6421TIP3    H140754   2.305   5.843   2.266 -0.3612  1.9272  0.6253
 6421TIP3    H240755   2.445   5.900   2.261  0.5543 -0.2672 -0.4388
 6422TIP3   OH240756   3.217   1.498   4.230  0.4886  0.6905 -0.0008
 6422TIP3    H140757   3.297   1.494   4.178  1.1147 -2.4366  1.0033
 6422TIP3    H240758   3.245   1.481   4.320 -1.0623  1.9396  0.7824
 6423TIP3   OH240759   5.756   3.653   6.725  0.0789  0.2174  0.3840
 6423TIP3    H140760   5.824   3.612   6.671  1.5252  1.0855  1.4648
 6423TIP3    H240761   5.679   3.598   6.712  0.8308 -0.5284 -1.2763
 6424TIP3   OH240762   0.236   1.869   0.085 -0.6019  0.0841 -0.2367
 6424TIP3    H140763   0.246   1.823   0.002 -1.8897 -0.1570 -0.2786
 6424TIP3    H240764   0.236   1.800   0.151  1.5210  0.3501  0.1009
 6425TIP3   OH240765   3.325   0.639  11.905 -0.0572  0.5063  0.1914
 6425TIP3    H140766   3.376   0.615  11.982  0.0098  0.3294  0.0929
 6425TIP3    H240767   3.350   0.575  11.839 -0.5488  0.3054  0.2000
 6426TIP3   OH240768   4.714   0.468  14.169 -0.2341 -0.3213 -0.3507
 6426TIP3    H140769   4.805   0.489  14.191 -0.8215  1.1288  0.8909
 6426TIP3    H240770   4.699   0.515  14.087  0.6031 -1.9882 -1.5215
 6427TIP3   OH240771   1.565   0.843   5.105 -0.3043 -0.4362 -1.0363
 6427TIP3    H140772   1.561   0.809   5.195 -0.4679 -0.6675 -1.1308
 6427TIP3    H240773   1.653   0.879   5.097  0.0580 -1.3242 -1.1079
 6428TIP3   OH240774   1.459   0.875   1.497 -0.2271 -0.4096  0.0814
 6428TIP3    H140775   1.494   0.880   1.586  0.3085 -0.1968 -0.1381
 6428TIP3    H240776   1.443   0.966   1.473  0.5111 -0.3957 -0.3821
 6429TIP3   OH240777   5.716   1.657   3.378 -0.5181 -0.0182 -0.5299
 6429TIP3    H140778   5.762   1.578   3.408  0.2133  0.3986 -0.5491
 6429TIP3    H240779   5.674   1.691   3.457 -0.5022 -0.2031 -0.4394
 6430TIP3   OH240780   0.515   2.859  12.106 -0.0513 -0.2213 -0.6144
 6430TIP3    H140781   0.446   2.923  12.088  0.6165  1.4589  2.2017
 6430TIP3    H240782   0.470   2.788  12.153 -0.1162  0.3177  0.1678
 6431TIP3   OH240783   6.528   4.605  13.762  0.0830  0.2084  0.2550
 6431TIP3    H140784   6.498   4.625  13.673  1.0246  2.7603  0.4324
 6431TIP3    H240785   6.527   4.509  13.766 -2.2049  0.0281 -1.7037
 6432TIP3   OH240786   1.915   0.260   2.913 -0.1433 -1.2295  0.8183
 6432TIP3    H140787   1.844   0.251   2.849 -0.0244  1.7461  0.1166
 6432TIP3    H240788   1.994   0.234   2.865 -0.1413  0.3641 -0.1246
 6433TIP3   OH240789   5.690   1.385  11.368 -0.2691 -0.4798  0.2929
 6433TIP3    H140790   5.741   1.320  11.320 -1.9416 -0.4538 -1.6442
 6433TIP3    H240791   5.742   1.404  11.446  1.1424 -2.7475 -0.0185
 6434TIP3   OH240792   6.776   2.403  11.902 -0.1791 -0.1087  0.1704
 6434TIP3    H140793   6.843   2.426  11.837 -0.9698 -0.6004 -0.8408
 6434TIP3    H240794   6.826   2.372  11.978  0.7628  0.7257 -0.0877
 6435TIP3   OH240795   4.553   5.650   3.047 -0.3795 -0.1760 -0.4500
 6435TIP3    H140796   4.594   5.670   2.963 -1.3693  1.0300 -0.6653
 6435TIP3    H240797   4.461   5.635   3.026 -0.7229  0.5475  0.4631
 6436TIP3   OH240798   4.906   1.312   1.839 -0.2744 -0.5767  0.4047
 6436TIP3    H140799   4.881   1.356   1.757 -0.2156 -0.5103  0.4211
 6436TIP3    H240800   4.907   1.383   1.904  1.8831 -0.1667  0.0081
 6437TIP3   OH240801   3.756   0.696   2.813  0.2677  0.0497 -0.0825
 6437TIP3    H140802   3.672   0.738   2.796 -0.3562 -1.1492 -0.0902
 6437TIP3    H240803   3.743   0.651   2.897  1.2481  0.6956  0.4371
 6438TIP3   OH240804   4.529   1.013   4.676  0.4473 -0.1839  0.0920
 6438TIP3    H140805   4.545   1.107   4.672  1.5923 -0.4035 -1.6428
 6438TIP3    H240806   4.520   0.994   4.769 -0.8932  1.7893  0.4139
 6439TIP3   OH240807   3.063   2.016  14.935 -0.2924 -0.0346  0.2015
 6439TIP3    H140808   2.981   2.063  14.917 -0.3940  0.3419  1.5150
 6439TIP3    H240809   3.129   2.085  14.942 -0.2980 -0.1270  1.3775
 6440TIP3   OH240810   4.577   3.759  13.001 -1.1080  0.7764 -0.1183
 6440TIP3    H140811   4.565   3.806  12.919  0.3436 -1.7073 -1.8939
 6440TIP3    H240812   4.671   3.756  13.014 -1.1915 -0.8094  0.3819
 6441TIP3   OH240813   5.808   5.629  17.175  0.5771 -0.1361 -0.7216
 6441TIP3    H140814   5.802   5.534  17.184  1.4320 -0.2524 -1.2650
 6441TIP3    H240815   5.880   5.654  17.234 -0.7849  0.4168  0.7962
 6442TIP3   OH240816   3.323   1.366   3.158 -0.7690 -0.0962  0.3165
 6442TIP3    H140817   3.405   1.415   3.148 -0.4777 -1.0310 -3.0209
 6442TIP3    H240818   3.341   1.280   3.120 -2.2188 -1.7994  3.0834
 6443TIP3   OH240819   5.666   1.459  12.377  0.1956  0.3988 -0.0300
 6443TIP3    H140820   5.728   1.508  12.432 -0.5708  1.0194  0.3200
 6443TIP3    H240821   5.716   1.434  12.300  0.3804  2.7022 -0.7414
 6444TIP3   OH240822   3.337   4.726  14.718 -0.1933  0.3771  0.6108
 6444TIP3    H140823   3.258   4.766  14.754 -0.6095  0.5883 -0.4956
 6444TIP3    H240824   3.406   4.792  14.731 -0.6723  1.0926 -0.3532
 6445TIP3   OH240825   1.695   1.057  12.301  0.3071  0.4624  0.5260
 6445TIP3    H140826   1.729   0.993  12.240  0.0942 -0.0704  0.9567
 6445TIP3    H240827   1.772   1.097  12.341  0.4423  0.6763  0.0607
 6446TIP3   OH240828   5.576   5.436  12.491 -0.1591 -0.2784  0.3768
 6446TIP3    H140829   5.602   5.488  12.415  0.8278 -0.0429  0.8483
 6446TIP3    H240830   5.539   5.356  12.455 -1.2601  0.5437 -0.3588
 6447TIP3   OH240831   3.694   0.659  13.353  0.2960 -0.1770 -0.0384
 6447TIP3    H140832   3.738   0.697  13.276 -0.5415 -0.8623 -0.8760
 6447TIP3    H240833   3.732   0.571  13.361  0.4373 -0.0792  0.3894
 6448TIP3   OH240834   0.407   1.316   3.967  0.2143 -0.4620  0.3025
 6448TIP3    H140835   0.492   1.305   3.925  1.2152 -0.3868  2.1633
 6448TIP3    H240836   0.359   1.375   3.910  0.8791 -1.5752 -1.4892
 6449TIP3   OH240837   2.255   2.358  11.986 -0.2548 -0.3065  0.1010
 6449TIP3    H140838   2.213   2.312  11.914  0.1458  0.0865 -0.3956
 6449TIP3    H240839   2.240   2.303  12.063 -0.3006 -0.9477 -0.3665
 6450TIP3   OH240840   5.075   4.176   3.026 -0.3932  0.1123 -0.2824
 6450TIP3    H140841   5.110   4.217   2.947  1.1927 -1.5890 -0.5310
 6450TIP3    H240842   5.003   4.121   2.995  0.9324 -1.4396 -0.8098
 6451TIP3   OH240843   0.621   5.365  16.859  0.0210  0.1604 -0.6013
 6451TIP3    H140844   0.545   5.367  16.800  0.3161  1.0341 -0.9510
 6451TIP3    H240845   0.681   5.303  16.818  0.7420  1.6467 -1.8877
 6452TIP3   OH240846   6.397   4.125   0.812  0.0656 -0.0258  0.1935
 6452TIP3    H140847   6.447   4.068   0.754  1.8663  0.2508  1.3707
 6452TIP3    H240848   6.456   4.141   0.886 -0.7342  2.5837  0.3712
 6453TIP3   OH240849   4.510   5.186   1.997  0.1103 -0.1664  0.2673
 6453TIP3    H140850   4.600   5.210   2.018  0.3704 -1.0875  0.2249
 6453TIP3    H240851   4.482   5.130   2.069 -0.2371 -0.3446 -0.0019
 6454TIP3   OH240852   3.185   5.021  12.474  0.7880 -0.1379 -0.0504
 6454TIP3    H140853   3.111   5.024  12.535 -0.1900 -0.2585 -1.1821
 6454TIP3    H240854   3.238   4.948  12.505  0.9160  0.4860  1.2961
 6455TIP3   OH240855   1.460   5.690   0.154 -0.4839  0.0637  0.6066
 6455TIP3    H140856   1.497   5.652   0.074  0.5007  0.2653  0.9449
 6455TIP3    H240857   1.368   5.664   0.153 -0.7282  0.8823 -1.0815
 6456TIP3   OH240858   0.653   1.334   5.737  0.1359 -0.3117 -0.1058
 6456TIP3    H140859   0.683   1.244   5.756 -1.2554 -0.8760 -0.4657
 6456TIP3    H240860   0.587   1.323   5.669  0.1293  1.0313 -0.3311
 6457TIP3   OH240861   2.016   1.456   0.350  0.4878  0.0945 -0.3331
 6457TIP3    H140862   1.926   1.460   0.382  0.5273 -2.1063  0.1882
 6457TIP3    H240863   2.014   1.393   0.279  1.9223 -1.5720  1.0081
 6458TIP3   OH240864   3.604   6.004  14.368 -0.3087  0.4303  0.2295
 6458TIP3    H140865   3.518   6.039  14.345 -0.6481 -0.3141  0.3374
 6458TIP3    H240866   3.613   5.925  14.315 -0.1307 -0.0577  0.9776
 6459TIP3   OH240867   0.488   0.722  10.466 -0.1564 -0.3113 -0.1685
 6459TIP3    H140868   0.579   0.737  10.442  0.0002 -2.1883 -0.9306
 6459TIP3    H240869   0.442   0.801  10.438  1.1152  0.3728 -0.4052
 6460TIP3   OH240870   4.570   1.985  13.652  0.3937  0.1594  0.5782
 6460TIP3    H140871   4.582   2.066  13.601 -0.3425 -0.6686 -0.9852
 6460TIP3    H240872   4.524   2.013  13.731  0.2732  1.2859  0.1276
 6461TIP3   OH240873   6.260   3.395  14.237 -0.1861  0.5759  0.1852
 6461TIP3    H140874   6.284   3.415  14.328 -1.2314  0.4153  0.5073
 6461TIP3    H240875   6.231   3.304  14.240 -0.5782  0.6896 -0.2424
 6462TIP3   OH240876   0.589   3.056  11.210 -0.3499  0.5497  0.5907
 6462TIP3    H140877   0.636   2.973  11.202 -1.9662 -0.4583  0.8913
 6462TIP3    H240878   0.657   3.123  11.213  1.0961 -0.8884  2.0635
 6463TIP3   OH240879   0.919   6.645   0.443  0.3113  0.3783 -0.5009
 6463TIP3    H140880   0.988   6.634   0.378  1.1369  0.6148  0.3295
 6463TIP3    H240881   0.959   6.620   0.526 -0.1372  1.9220  0.2144
 6464TIP3   OH240882   2.458   4.717  15.164 -0.4005 -0.3658  0.0096
 6464TIP3    H140883   2.454   4.740  15.257 -1.1183  1.7346 -0.4759
 6464TIP3    H240884   2.402   4.782  15.122 -1.2676 -2.1571 -1.7600
 6465TIP3   OH240885   0.629   3.270  14.318 -0.4623  0.2431  0.2846
 6465TIP3    H140886   0.659   3.326  14.246  0.3470  0.4159  0.7498
 6465TIP3    H240887   0.674   3.304  14.395 -1.9737  0.6169  1.0493
 6466TIP3   OH240888   1.717   5.832   1.578 -0.2447  0.6844 -0.7306
 6466TIP3    H140889   1.783   5.828   1.509 -0.6428  0.8224 -1.1185
 6466TIP3    H240890   1.677   5.918   1.569 -1.9662 -0.1686 -1.8835
 6467TIP3   OH240891   2.581   1.982   6.111  0.4434  0.0881  0.1212
 6467TIP3    H140892   2.553   1.945   6.028 -0.8669  0.0831  0.5538
 6467TIP3    H240893   2.673   2.007   6.096  0.3525 -0.2929 -1.1809
 6468TIP3   OH240894   6.570   3.525  16.792  0.2450  0.3035 -0.2861
 6468TIP3    H140895   6.604   3.614  16.798  2.0054 -0.4446  1.8529
 6468TIP3    H240896   6.604   3.492  16.709 -0.0664  1.4263 -0.8932
 6469TIP3   OH240897   3.570   4.870  13.041  0.2924 -0.5763  0.9376
 6469TIP3    H140898   3.648   4.840  13.089  0.2278 -0.9134  0.8348
 6469TIP3    H240899   3.548   4.797  12.983 -1.9215 -1.8052  3.1402
 6470TIP3   OH240900   3.807   4.548  15.854  0.2988  0.6314  0.0863
 6470TIP3    H140901   3.859   4.471  15.878  1.6716  0.8674 -1.9292
 6470TIP3    H240902   3.868   4.604  15.807 -1.6403  1.2031 -1.8635
 6471TIP3   OH240903   3.325   5.802  15.854  0.4330 -0.2368 -0.8639
 6471TIP3    H140904   3.268   5.798  15.931  0.2685 -0.0645 -0.9747
 6471TIP3    H240905   3.284   5.867  15.797 -1.1177 -2.4185 -2.4257
 6472TIP3   OH240906   2.332   0.007  14.122 -0.0787  0.9837 -0.1781
 6472TIP3    H140907   2.392   0.011  14.196 -0.7084  2.0648  0.2817
 6472TIP3    H240908   2.257   0.060  14.147 -0.1062  1.7695 -1.7588
 6473TIP3   OH240909   2.795   5.846  15.380  0.4537 -0.3563 -0.0301
 6473TIP3    H140910   2.733   5.843  15.307  1.2366  0.6942 -0.7591
 6473TIP3    H240911   2.833   5.758  15.382  0.1325 -0.5134 -0.6249
 6474TIP3   OH240912   6.706   2.908   6.568  0.3484 -0.1938  0.2304
 6474TIP3    H140913   6.704   2.817   6.539  0.0840  0.5669 -2.3452
 6474TIP3    H240914   6.625   2.946   6.534 -0.5616  0.6111  2.9618
 6475TIP3   OH240915   5.422   1.549  16.042  0.3803  0.3426  0.1545
 6475TIP3    H140916   5.333   1.564  16.073  0.4409  0.9855  0.0175
 6475TIP3    H240917   5.442   1.459  16.070 -1.3569 -0.9408 -2.2935
 6476TIP3   OH240918   1.898   2.662   0.156 -0.6596 -0.0009  0.2947
 6476TIP3    H140919   1.808   2.631   0.153 -1.0394  1.1024 -0.2134
 6476TIP3    H240920   1.950   2.585   0.180 -1.7305 -0.6458  0.5717
 6477TIP3   OH240921   5.304   3.038  15.939 -0.1205 -0.2993 -0.2992
 6477TIP3    H140922   5.249   2.982  15.884 -0.8335 -0.1983  0.3096
 6477TIP3    H240923   5.249   3.113  15.962  0.5702  0.2767 -0.4525
 6478TIP3   OH240924   1.941   5.881  16.596  0.8179 -0.1412 -0.0069
 6478TIP3    H140925   1.862   5.899  16.647  1.9731  1.1549  1.3870
 6478TIP3    H240926   1.936   5.942  16.522 -0.3096 -1.2777 -0.9359
 6479TIP3   OH240927   6.218   1.008   2.253  0.3258  0.2719 -0.1192
 6479TIP3    H140928   6.181   0.947   2.318  0.5108 -0.9803 -1.1407
 6479TIP3    H240929   6.142   1.052   2.216  0.1143  0.0291  0.0219
 6480TIP3   OH240930   6.584   1.465  12.833  0.2781 -0.1949 -0.5425
 6480TIP3    H140931   6.577   1.481  12.927  2.3246 -0.5846 -0.2801
 6480TIP3    H240932   6.508   1.411  12.812  0.3212 -0.9543  1.0962
 6481TIP3   OH240933   1.887   5.072   0.649 -0.2222  0.0310  0.5403
 6481TIP3    H140934   1.844   5.139   0.700  0.1019 -0.0168  0.8823
 6481TIP3    H240935   1.910   5.004   0.712 -0.3891 -0.3245  0.2295
 6482TIP3   OH240936   6.225   6.820   1.835  0.0028  0.7491  0.2612
 6482TIP3    H140937   6.202   6.872   1.759 -0.9590  1.6685  1.1651
 6482TIP3    H240938   6.273   6.745   1.799 -1.3734  0.5889 -1.3504
 6483TIP3   OH240939   2.961   1.248  16.553 -0.1616  0.0788 -0.1418
 6483TIP3    H140940   2.871   1.226  16.531  0.5455 -1.1573 -1.9928
 6483TIP3    H240941   3.013   1.178  16.515  1.5918  0.6194  1.1201
 6484TIP3   OH240942   0.418   3.193   0.223 -1.0311  0.0689  0.5126
 6484TIP3    H140943   0.455   3.240   0.148 -1.0858  0.2749  0.6161
 6484TIP3    H240944   0.336   3.238   0.243 -1.5923 -0.6929 -0.0289
 6485TIP3   OH240945   4.823   6.131   4.088  0.0064  0.2803  0.4518
 6485TIP3    H140946   4.846   6.213   4.044 -0.4073  0.6253  0.8565
 6485TIP3    H240947   4.867   6.063   4.037  0.1356  0.7287 -0.0507
 6486TIP3   OH240948   0.982   3.550   1.309 -0.0771  0.3424 -0.3179
 6486TIP3    H140949   1.051   3.532   1.374  0.5029 -1.7463 -1.4158
 6486TIP3    H240950   1.018   3.622   1.256  1.8810 -1.4524 -1.5981
 6487TIP3   OH240951   4.262   3.891  12.006 -0.3440 -0.4254  0.1483
 6487TIP3    H140952   4.199   3.964  11.998 -0.1540 -0.4491 -2.0739
 6487TIP3    H240953   4.347   3.934  12.017 -0.1361 -0.2183 -1.8525
 6488TIP3   OH240954   5.266   6.158   1.287  0.1873  0.0676 -0.3761
 6488TIP3    H140955   5.341   6.198   1.331  0.1319  0.6965 -0.8403
 6488TIP3    H240956   5.227   6.230   1.237  0.0288 -0.5493 -1.1434
 6489TIP3   OH240957   4.728   2.707  11.805  0.2647 -0.5740 -0.3431
 6489TIP3    H140958   4.645   2.751  11.823  0.5180 -0.2843  0.1657
 6489TIP3    H240959   4.735   2.639  11.872  1.1331  0.3934  0.5938
 6490TIP3   OH240960   0.961   4.348   2.623  0.3456 -0.9986 -0.5677
 6490TIP3    H140961   0.895   4.286   2.590  0.0472 -0.4629 -1.0105
 6490TIP3    H240962   0.919   4.434   2.614  0.8205 -0.7167 -0.1342
 6491TIP3   OH240963   2.584   6.419  15.442  0.1635  0.2210 -0.3962
 6491TIP3    H140964   2.543   6.381  15.364  0.6352  0.2287 -0.6518
 6491TIP3    H240965   2.546   6.370  15.515  0.9351 -0.9228 -0.7279
 6492TIP3   OH240966   3.017   2.818   0.230  0.0302 -0.2709  0.0316
 6492TIP3    H140967   3.056   2.851   0.311 -0.6270 -0.2585  0.3548
 6492TIP3    H240968   3.072   2.853   0.161 -0.1075  0.7323  0.4150
 6493TIP3   OH240969   3.350   3.834   2.390 -0.6738  0.1922  0.0652
 6493TIP3    H140970   3.311   3.916   2.419 -1.1695 -0.0070 -0.0199
 6493TIP3    H240971   3.286   3.797   2.329  0.8336  1.1667 -2.2585
 6494TIP3   OH240972   1.073   3.397  14.120  0.8934 -0.6511  0.2934
 6494TIP3    H140973   1.126   3.440  14.187  0.5657 -0.8708  0.6989
 6494TIP3    H240974   1.083   3.304  14.138  1.0477 -0.7253 -0.1553
 6495TIP3   OH240975   4.834   2.287   1.950  0.4839 -0.4148 -0.2936
 6495TIP3    H140976   4.894   2.320   2.016  0.3772 -2.1885  0.7448
 6495TIP3    H240977   4.757   2.258   1.999 -0.7690  0.7196 -1.4800
 6496TIP3   OH240978   2.011   6.834   0.074  0.5396 -0.1635 -0.2368
 6496TIP3    H140979   1.916   6.831   0.072  0.3695  2.2816  0.2267
 6496TIP3    H240980   2.036   6.784   0.151 -0.6771  1.9727  1.6619
 6497TIP3   OH240981   1.715   3.635  16.920 -0.2360 -0.5709  0.3926
 6497TIP3    H140982   1.750   3.595  16.841  1.8745  1.2323  0.3170
 6497TIP3    H240983   1.751   3.584  16.992  3.7801  1.8164  0.3736
 6498TIP3   OH240984   2.169   0.627  16.723 -0.1360 -0.0869  0.1535
 6498TIP3    H140985   2.188   0.705  16.672  1.5592 -0.6383 -0.1337
 6498TIP3    H240986   2.090   0.591  16.684  0.4483  0.1750 -1.3281
 6499TIP3   OH240987   6.423   0.771   1.231 -0.3573 -0.1460 -0.0009
 6499TIP3    H140988   6.377   0.734   1.156 -0.8398  3.3140 -1.6304
 6499TIP3    H240989   6.516   0.756   1.212 -0.5232 -0.1811 -0.8196
 6500TIP3   OH240990   2.526   6.188  17.113 -0.2106 -0.2169  0.6039
 6500TIP3    H140991   2.583   6.252  17.156  1.8978 -0.7099 -1.3170
 6500TIP3    H240992   2.581   6.111  17.099 -1.5757 -1.0378 -0.5800
 6501TIP3   OH240993   0.991   4.521   1.613 -0.0813  0.2962  0.1694
 6501TIP3    H140994   0.898   4.533   1.631 -0.2779 -0.3613 -0.3854
 6501TIP3    H240995   1.005   4.427   1.621  0.6765  0.4563  0.8735
 6502TIP3   OH240996   6.755   1.231  17.213 -0.2369  0.5343  0.0969
 6502TIP3    H140997   6.820   1.164  17.193 -0.5449  0.1633  0.3102
 6502TIP3    H240998   6.698   1.232  17.136 -0.1572  0.6397  0.0403
 6503TIP3   OH240999   4.382   2.617   6.361  0.2559  0.0026 -0.4467
 6503TIP3    H141000   4.376   2.562   6.439 -0.9615  2.4944  1.3500
 6503TIP3    H241001   4.439   2.690   6.386 -1.0896  1.4708 -1.4332
 6504TIP3   OH241002   0.759   6.149   1.293  0.5091  0.1400 -0.5598
 6504TIP3    H141003   0.691   6.216   1.297  1.2408  0.9067 -0.8677
 6504TIP3    H241004   0.825   6.184   1.234  1.3880 -0.4025  0.0697
 6505TIP3   OH241005   4.596   0.684  14.435  0.7410  0.0150 -0.3277
 6505TIP3    H141006   4.530   0.683  14.504  0.3116 -0.3406 -0.7298
 6505TIP3    H241007   4.679   0.694  14.480  0.4197  0.3323  0.1977
 6506TIP3   OH241008   0.385   2.508   1.076 -0.5368 -0.1648 -0.0396
 6506TIP3    H141009   0.375   2.413   1.076  0.2873 -0.2627 -0.2240
 6506TIP3    H241010   0.344   2.536   0.994  0.6451 -0.5533 -0.8035
 6507TIP3   OH241011   1.550   6.421   3.815  0.5082  0.4849  0.4541
 6507TIP3    H141012   1.593   6.498   3.852  2.0035  1.0330 -2.2017
 6507TIP3    H241013   1.593   6.347   3.857 -0.1121  1.0416  2.1523
 6508TIP3   OH241014   4.421   3.226   0.968 -0.2401 -0.1656 -0.2549
 6508TIP3    H141015   4.483   3.258   0.902  0.8025  0.9000  1.2023
 6508TIP3    H241016   4.385   3.305   1.008 -0.7577 -0.8002  0.5554
 6509TIP3   OH241017   5.580   0.486   6.115 -0.2900  0.1786 -0.0022
 6509TIP3    H141018   5.544   0.416   6.169  0.2570  1.3694  2.0219
 6509TIP3    H241019   5.629   0.442   6.046 -3.0405 -1.4497 -1.0810
 6510TIP3   OH241020   2.556   5.681  14.095  0.5113 -0.2970  0.2107
 6510TIP3    H141021   2.574   5.615  14.027 -0.9781 -1.7122  1.1320
 6510TIP3    H241022   2.545   5.763  14.046  0.5575 -1.0640 -1.1449
 6511TIP3   OH241023   4.930   2.878  11.886 -0.3173  0.4043  0.3693
 6511TIP3    H141024   4.857   2.824  11.856  0.2434 -0.7665  1.0283
 6511TIP3    H241025   4.912   2.965  11.850 -0.2427 -0.6298 -2.4711
 6512TIP3   OH241026   3.648   2.461  16.710 -0.2315 -0.8469 -0.1763
 6512TIP3    H141027   3.659   2.439  16.802 -2.7744 -0.5638  0.2760
 6512TIP3    H241028   3.721   2.521  16.691 -0.9010  0.9313  2.3207
 6513TIP3   OH241029   0.334   4.877  16.150  0.4875  0.2694  0.2057
 6513TIP3    H141030   0.429   4.881  16.166  0.0024  0.3284  4.0260
 6513TIP3    H241031   0.311   4.966  16.122  1.6007  0.0915 -1.3783
 6514TIP3   OH241032   3.612   0.620   5.605 -0.3445 -0.4883 -0.4317
 6514TIP3    H141033   3.616   0.671   5.524 -0.3611 -1.3684 -1.0124
 6514TIP3    H241034   3.595   0.684   5.674 -1.2030  0.1699 -1.2394
 6515TIP3   OH241035   1.614   3.158  14.164 -0.3103  0.4400 -0.4202
 6515TIP3    H141036   1.573   3.240  14.193  1.2223  1.6881 -1.5746
 6515TIP3    H241037   1.590   3.150  14.072  0.5090  0.2445 -0.6306
 6516TIP3   OH241038   4.185   6.551  11.012 -0.0463 -1.4874 -0.2082
 6516TIP3    H141039   4.229   6.628  10.976 -2.3563 -0.0614 -0.2312
 6516TIP3    H241040   4.120   6.529  10.946  0.5892 -3.5243 -0.2047
 6517TIP3   OH241041   2.376   1.533   5.120  0.1700  0.3200  0.1045
 6517TIP3    H141042   2.354   1.540   5.027 -1.0070 -0.2612  0.3268
 6517TIP3    H241043   2.369   1.440   5.140  0.6380  0.4090  0.7360
 6518TIP3   OH241044   3.451   6.745  13.900  0.2423  0.0670  0.1778
 6518TIP3    H141045   3.475   6.751  13.808 -1.6376  0.2612 -0.3425
 6518TIP3    H241046   3.382   6.810  13.911 -0.7270 -1.0928  1.3078
 6519TIP3   OH241047   0.841   3.440   6.610 -0.2152 -0.2333  0.1534
 6519TIP3    H141048   0.830   3.348   6.636 -0.1615 -0.0897  0.7095
 6519TIP3    H241049   0.932   3.446   6.582 -0.7362 -0.7843 -1.7619
 6520TIP3   OH241050   4.219   1.699  16.624  0.5296 -1.1299 -0.3533
 6520TIP3    H141051   4.260   1.771  16.576  0.8812 -1.7858 -1.0435
 6520TIP3    H241052   4.149   1.741  16.674  0.6373 -0.3267 -0.8604
 6521TIP3   OH241053   2.262   1.504  16.047  0.0828  0.2662 -0.2167
 6521TIP3    H141054   2.249   1.521  16.140  1.1133  0.1028 -0.0374
 6521TIP3    H241055   2.216   1.576  16.003 -0.7875  0.1049  0.3924
 6522TIP3   OH241056   6.156   1.230  14.579 -0.3480  1.0254  0.5387
 6522TIP3    H141057   6.188   1.243  14.669  0.0646 -1.9160  0.9252
 6522TIP3    H241058   6.234   1.233  14.525 -0.0163 -0.9258  0.8236
 6523TIP3   OH241059   3.986   2.145   2.925  0.7131  0.2035 -0.6644
 6523TIP3    H141060   3.936   2.091   2.986 -0.7703  1.5711 -0.5978
 6523TIP3    H241061   4.070   2.100   2.917  1.3079  0.2886  2.9941
 6524TIP3   OH241062   5.417   3.977  13.303 -0.0654  0.1982  0.3265
 6524TIP3    H141063   5.465   4.034  13.363 -0.1069 -1.2924  1.8558
 6524TIP3    H241064   5.464   3.894  13.307 -0.6262 -0.2015 -1.0148
 6525TIP3   OH241065   2.437   5.611  16.235 -0.0192  0.0215  0.2267
 6525TIP3    H141066   2.402   5.604  16.324  2.9145 -1.5782  1.3883
 6525TIP3    H241067   2.364   5.582  16.179 -0.9178 -2.3185  2.3938
 6526TIP3   OH241068   0.511   5.550  12.063 -0.0120 -0.1279  0.1335
 6526TIP3    H141069   0.522   5.616  12.132 -1.2765  0.4537 -0.2100
 6526TIP3    H241070   0.562   5.584  11.989 -0.0008  0.0598  0.2275
 6527TIP3   OH241071   2.006   5.490   4.193 -0.0123 -0.5861  0.2146
 6527TIP3    H141072   1.984   5.408   4.148 -0.8923  1.2655 -3.0645
 6527TIP3    H241073   1.929   5.509   4.246 -0.1061 -1.5014  0.4213
 6528TIP3   OH241074   4.620   3.242   0.725  0.1151  0.0518 -0.4861
 6528TIP3    H141075   4.645   3.331   0.751  0.2960  0.3229 -1.5359
 6528TIP3    H241076   4.598   3.250   0.632 -1.3440 -0.7067 -0.2254
 6529TIP3   OH241077   6.681   6.762   5.421 -0.7649  0.6872  0.0863
 6529TIP3    H141078   6.688   6.857   5.405 -1.8566  1.2981  2.6447
 6529TIP3    H241079   6.595   6.752   5.462 -0.2754 -1.3036  0.6990
 6530TIP3   OH241080   3.434   0.945  15.537 -0.2634 -0.2454 -0.0212
 6530TIP3    H141081   3.521   0.916  15.564 -0.4447 -0.5858  0.1995
 6530TIP3    H241082   3.374   0.905  15.600 -0.6154 -0.3504 -0.4161
 6531TIP3   OH241083   6.539   0.011   0.534 -0.3179  0.2386  0.4142
 6531TIP3    H141084   6.560   0.065   0.458 -1.6167 -0.4145 -0.4543
 6531TIP3    H241085   6.620   0.006   0.584  0.3842  1.2218 -0.5929
 6532TIP3   OH241086   6.427   4.421   0.959 -0.0850 -0.2575  0.0161
 6532TIP3    H141087   6.415   4.341   1.010 -0.8365 -0.0614  0.1709
 6532TIP3    H241088   6.338   4.445   0.932  0.1875  0.2549 -0.4401
 6533TIP3   OH241089   1.762   6.667  12.930  0.1479  0.3262 -0.0898
 6533TIP3    H141090   1.828   6.670  12.999  0.1315 -0.6093 -0.0162
 6533TIP3    H241091   1.707   6.744  12.946  1.3284  1.2422 -0.2848
 6534TIP3   OH241092   5.341   4.384  16.845 -0.1915 -0.1272 -0.4122
 6534TIP3    H141093   5.369   4.306  16.891  0.6131  0.0193 -0.6441
 6534TIP3    H241094   5.345   4.454  16.910  0.0075 -0.0996 -0.4551
 6535TIP3   OH241095   6.471   3.301  16.885 -0.5783 -0.1308  0.3725
 6535TIP3    H141096   6.497   3.304  16.977  1.6152  0.8818 -0.2123
 6535TIP3    H241097   6.503   3.384  16.848 -1.4985 -0.4687 -1.2993
 6536TIP3   OH241098   4.094   2.219  12.494 -0.2981 -0.2390 -0.3333
 6536TIP3    H141099   4.036   2.194  12.566 -0.3968 -1.0660 -0.6841
 6536TIP3    H241100   4.145   2.140  12.475  2.1787  0.9180  1.0653
 6537TIP3   OH241101   4.941   2.509   4.260  0.2717  0.2279 -0.1876
 6537TIP3    H141102   4.885   2.535   4.187 -0.8062  1.7548  1.1101
 6537TIP3    H241103   4.941   2.413   4.256  0.0777  0.2646 -2.0299
 6538TIP3   OH241104   5.116   2.870   5.144 -0.2138 -0.3829 -0.3300
 6538TIP3    H141105   5.023   2.878   5.122  0.0670  0.1523 -1.3776
 6538TIP3    H241106   5.139   2.781   5.116 -0.6912 -0.9914  1.1060
 6539TIP3   OH241107   5.565   1.017   4.763  0.3881  0.1861 -0.4743
 6539TIP3    H141108   5.527   1.047   4.681 -0.1886  1.9527  0.3999
 6539TIP3    H241109   5.579   0.923   4.750 -4.9478 -0.8762 -0.6483
 6540TIP3   OH241110   1.181   4.788   4.277  0.2305  0.1657 -0.0535
 6540TIP3    H141111   1.108   4.733   4.307 -0.0853  2.0296  3.1041
 6540TIP3    H241112   1.139   4.861   4.232 -0.0820  1.5725  2.3160
 6541TIP3   OH241113   4.343   0.204   3.273  0.3196  0.6124 -0.1845
 6541TIP3    H141114   4.309   0.292   3.259 -1.2629 -0.0069 -0.3524
 6541TIP3    H241115   4.299   0.150   3.207 -0.4743 -0.7083  1.3616
 6542TIP3   OH241116   5.765   0.346   2.100  0.0439  0.4315 -0.2008
 6542TIP3    H141117   5.689   0.297   2.070 -1.4457  2.2218  0.4732
 6542TIP3    H241118   5.824   0.348   2.024  0.2139 -2.3174 -0.2566
 6543TIP3   OH241119   5.583   5.013   0.886 -0.0170 -0.3255  0.3965
 6543TIP3    H141120   5.562   5.036   0.976 -0.5674  1.8216 -0.2185
 6543TIP3    H241121   5.671   5.050   0.872 -0.6003  0.8498 -0.3844
 6544TIP3   OH241122   0.444   0.826   1.796 -0.0035  0.3566 -0.0698
 6544TIP3    H141123   0.415   0.913   1.766 -1.0049 -0.0997 -0.4700
 6544TIP3    H241124   0.453   0.836   1.891 -0.3095  0.8476 -0.0847
 6545TIP3   OH241125   1.860   3.929  12.035  0.2699  0.2175  0.4825
 6545TIP3    H141126   1.891   3.963  12.119 -1.7744  0.4133  1.2074
 6545TIP3    H241127   1.798   3.860  12.058 -1.1679  1.0161 -0.8308
 6546TIP3   OH241128   4.277   3.979   3.240  0.5814 -0.2875  0.1184
 6546TIP3    H141129   4.370   3.999   3.250  0.5273  0.2330 -0.3788
 6546TIP3    H241130   4.240   4.056   3.198 -0.4914  0.3720  2.1429
 6547TIP3   OH241131   5.897   4.194  15.010  0.0614  0.6608 -0.5622
 6547TIP3    H141132   5.890   4.149  14.926  0.0668 -0.1754 -0.1229
 6547TIP3    H241133   5.854   4.279  14.995 -0.0395  0.4789 -1.3716
 6548TIP3   OH241134   0.102   0.202   0.951 -0.1560  0.4728  0.4165
 6548TIP3    H141135   0.120   0.256   1.028  1.0210  1.9923 -0.8489
 6548TIP3    H241136   0.007   0.191   0.952 -0.1720  0.4844  2.0476
 6549TIP3   OH241137   3.541   3.420  12.723  0.1831  0.4273  0.6065
 6549TIP3    H141138   3.528   3.509  12.692  0.7390  0.6909  1.1162
 6549TIP3    H241139   3.513   3.422  12.815 -1.0297 -0.2346  0.2740
 6550TIP3   OH241140   6.771   6.738   1.821 -0.5966 -0.5230  0.1341
 6550TIP3    H141141   6.722   6.794   1.882 -1.9943 -0.6647 -0.7945
 6550TIP3    H241142   6.859   6.774   1.821 -0.9741  0.4725  1.0214
 6551TIP3   OH241143   3.935   3.666  14.843  0.2132 -0.0044 -0.1331
 6551TIP3    H141144   4.003   3.732  14.852 -0.0094  0.1464  0.5002
 6551TIP3    H241145   3.885   3.693  14.766 -0.4171  1.0846  0.6191
 6552TIP3   OH241146   3.187   5.386  15.141  0.2412 -0.0946  0.2030
 6552TIP3    H141147   3.173   5.476  15.114  0.9149 -0.3028 -0.9002
 6552TIP3    H241148   3.111   5.338  15.110  0.1458 -0.0091  0.3045
 6553TIP3   OH241149   6.785   1.977   3.368 -0.6583  0.0355  0.5413
 6553TIP3    H141150   6.852   1.909   3.366  0.5372  0.9185  3.9229
 6553TIP3    H241151   6.806   2.033   3.293  2.5132  0.2849  1.4608
 6554TIP3   OH241152   1.715   1.674   2.625  0.2022  0.2928  0.1410
 6554TIP3    H141153   1.806   1.651   2.608  0.2544  1.6219 -1.5552
 6554TIP3    H241154   1.665   1.610   2.573  0.1802  0.0891  0.4103
 6555TIP3   OH241155   1.181   5.780  15.181  0.5099  0.2633  0.4281
 6555TIP3    H141156   1.242   5.781  15.107  0.0986  1.1507  0.0939
 6555TIP3    H241157   1.229   5.822  15.252  0.9370 -0.6662  0.7108
 6556TIP3   OH241158   0.213   4.461   0.921 -0.5530 -0.1381 -0.1361
 6556TIP3    H141159   0.177   4.442   1.008  2.2122  1.7148  1.5869
 6556TIP3    H241160   0.234   4.554   0.924  2.4180 -0.6500 -1.6076
 6557TIP3   OH241161   1.067   5.833  15.490 -0.1830  0.5499 -0.2834
 6557TIP3    H141162   1.142   5.883  15.457 -0.3170  0.5555 -0.5894
 6557TIP3    H241163   1.093   5.804  15.577  1.5241 -2.1602 -1.5459
 6558TIP3   OH241164   2.769   4.359   3.305  0.3651 -0.6073  1.0497
 6558TIP3    H141165   2.704   4.363   3.235  1.9248  0.5804 -0.4149
 6558TIP3    H241166   2.830   4.431   3.286  0.8647 -0.2325  3.6378
 6559TIP3   OH241167   3.046   6.452  13.929  0.2321  0.0811  0.2125
 6559TIP3    H141168   2.966   6.419  13.887  1.0146 -0.3265 -0.9904
 6559TIP3    H241169   3.103   6.478  13.857  0.8426  1.2457  1.0766
 6560TIP3   OH241170   4.733   3.073   2.209 -0.5692  0.4763  0.1004
 6560TIP3    H141171   4.781   3.131   2.268  0.0472  0.3219 -0.2413
 6560TIP3    H241172   4.645   3.111   2.205 -0.3473  1.0308  0.3698
 6561TIP3   OH241173   2.052   1.311   3.453  0.1062  0.0235  0.1118
 6561TIP3    H141174   2.071   1.265   3.371 -1.9784  1.2722 -1.1580
 6561TIP3    H241175   2.108   1.268   3.518  0.3747 -2.3377 -1.5548
 6562TIP3   OH241176   6.510   1.395   5.630  0.3753  0.0855 -0.0804
 6562TIP3    H141177   6.518   1.449   5.708  0.5682  0.0992 -0.1081
 6562TIP3    H241178   6.458   1.448   5.569 -0.6020 -0.3171  0.3856
 6563TIP3   OH241179   5.751   5.030  16.603 -0.0427 -0.0587  0.0145
 6563TIP3    H141180   5.754   4.983  16.687 -1.1385 -1.0317 -0.4621
 6563TIP3    H241181   5.680   5.093  16.613  1.9270  2.1563  0.9317
 6564TIP3   OH241182   3.736   0.316   0.306  0.4488 -0.3722 -0.5443
 6564TIP3    H141183   3.820   0.279   0.333  0.6909  1.5431  1.6406
 6564TIP3    H241184   3.679   0.303   0.382 -0.0849  1.6299 -0.5423
 6565TIP3   OH241185   2.902   2.137  16.402  0.0250  0.1005  0.8168
 6565TIP3    H141186   2.858   2.222  16.412 -1.9094 -0.8479  0.7061
 6565TIP3    H241187   2.872   2.105  16.317  1.4616 -0.3119  0.4403
 6566TIP3   OH241188   2.683   3.517  14.991  0.5692 -0.2651 -0.2700
 6566TIP3    H141189   2.659   3.610  14.998 -0.3481 -0.6187  3.3577
 6566TIP3    H241190   2.742   3.502  15.065 -1.2147 -3.0207  0.7548
 6567TIP3   OH241191   3.771   2.339  14.783  0.1685  0.0626  0.0273
 6567TIP3    H141192   3.687   2.317  14.824  0.3964 -4.0579 -1.2487
 6567TIP3    H241193   3.748   2.360  14.692  0.4216  0.0783 -0.0333
 6568TIP3   OH241194   4.058   3.200  14.505  0.0701  0.1048  0.5537
 6568TIP3    H141195   4.102   3.255  14.441  0.4742 -0.9114 -0.0805
 6568TIP3    H241196   4.026   3.125  14.454  0.0501 -0.5328  1.4670
 6569TIP3   OH241197   4.723   5.136  14.000 -0.3067  0.2275 -0.7328
 6569TIP3    H141198   4.805   5.135  13.950  0.7443  1.9354  0.8152
 6569TIP3    H241199   4.703   5.044  14.016  0.9117 -0.2440 -1.7267
 6570TIP3   OH241200   4.834   3.651  15.083  0.3448 -0.6067 -0.2311
 6570TIP3    H141201   4.927   3.669  15.071  0.1053  0.2209 -0.9795
 6570TIP3    H241202   4.831   3.568  15.131  1.4637 -0.4208  0.1758
 6571TIP3   OH241203   0.047   5.520   4.565  0.1322  0.4909  0.3316
 6571TIP3    H141204   0.071   5.463   4.639  0.5346  1.1881  0.7425
 6571TIP3    H241205  -0.013   5.584   4.602 -1.0041 -0.1659 -0.3190
 6572TIP3   OH241206   2.202   1.791   0.736  0.2817 -0.1380  0.6381
 6572TIP3    H141207   2.150   1.839   0.672  0.9020  0.7702  0.7916
 6572TIP3    H241208   2.210   1.703   0.701  0.2577  0.2372 -0.3250
 6573TIP3   OH241209   1.794   2.729  14.336 -0.0731 -0.0173 -0.2184
 6573TIP3    H141210   1.764   2.675  14.409 -1.7861 -0.0186 -0.8923
 6573TIP3    H241211   1.762   2.817  14.357 -1.0669 -0.1271 -1.2275
 6574TIP3   OH241212   0.349   2.921   3.777 -0.0319 -0.3146  0.1166
 6574TIP3    H141213   0.373   2.870   3.700 -1.7074 -0.8537 -0.0813
 6574TIP3    H241214   0.328   2.855   3.843 -2.1464  0.0640 -0.1227
 6575TIP3   OH241215   3.861   2.841   4.683 -0.1848 -0.7292 -0.4479
 6575TIP3    H141216   3.940   2.806   4.643  0.6563  0.9036 -0.3054
 6575TIP3    H241217   3.891   2.883   4.764 -1.2428 -0.4025 -0.2013
 6576TIP3   OH241218   4.855   2.281  12.234 -0.0460  0.4866 -0.4215
 6576TIP3    H141219   4.900   2.206  12.271  0.2769  0.4461 -0.8812
 6576TIP3    H241220   4.853   2.264  12.140  0.0424  1.0550 -0.5340
 6577TIP3   OH241221   1.655   4.015   1.201 -0.0781 -0.4664  0.2927
 6577TIP3    H141222   1.573   4.061   1.220 -0.2692 -1.2534  1.4517
 6577TIP3    H241223   1.640   3.972   1.117 -0.6310 -0.1262  0.2133
 6578TIP3   OH241224   1.959   6.412   3.105 -0.4095 -0.0323 -0.1457
 6578TIP3    H141225   1.974   6.447   3.018 -3.4082 -1.1417 -1.2642
 6578TIP3    H241226   2.027   6.346   3.117 -0.1419 -0.1037 -1.8288
 6579TIP3   OH241227   1.640   5.871  17.203 -0.5577  0.3784 -0.9152
 6579TIP3    H141228   1.701   5.897  17.272 -1.8401  2.9184 -0.6436
 6579TIP3    H241229   1.560   5.845  17.249 -0.5822 -0.3724 -1.3630
 6580TIP3   OH241230   4.882   0.144  14.507 -0.0872  0.4935  0.4228
 6580TIP3    H141231   4.828   0.223  14.514  0.8983  1.3099 -0.7600
 6580TIP3    H241232   4.968   0.176  14.482  1.0892 -0.7545  2.5922
 6581TIP3   OH241233   1.805   4.450   2.965 -0.2868 -0.0918 -0.1429
 6581TIP3    H141234   1.723   4.455   3.013 -0.6583 -0.0015 -0.7695
 6581TIP3    H241235   1.870   4.425   3.030 -0.5215  1.3584  0.6764
 6582TIP3   OH241236   3.633   0.609  12.312  0.2000  0.2156 -0.2501
 6582TIP3    H141237   3.682   0.643  12.387  2.1281 -0.8620 -0.9337
 6582TIP3    H241238   3.611   0.519  12.336  2.9586 -1.0139 -1.7577
 6583TIP3   OH241239   2.396   1.055   0.214 -0.1091 -0.0402  0.6056
 6583TIP3    H141240   2.418   1.114   0.286 -1.0294  1.6550 -0.4463
 6583TIP3    H241241   2.402   1.110   0.136 -4.0085 -0.4568 -0.1571
 6584TIP3   OH241242   6.470   4.409   6.870 -0.0160 -0.6826 -0.3689
 6584TIP3    H141243   6.520   4.332   6.896  0.0096 -0.4336  0.3359
 6584TIP3    H241244   6.424   4.382   6.790  0.1964 -1.3403 -0.2746
 6585TIP3   OH241245   6.746   1.213   1.504 -0.3755  0.2366 -0.4499
 6585TIP3    H141246   6.817   1.152   1.485  0.4182  1.3069 -1.0854
 6585TIP3    H241247   6.750   1.276   1.431 -0.1905  1.8852  0.9167
 6586TIP3   OH241248   0.197   1.424  13.026  0.2421 -0.2232 -0.0191
 6586TIP3    H141249   0.178   1.334  13.054 -0.2353 -0.3681 -0.7857
 6586TIP3    H241250   0.281   1.418  12.981  2.1254  0.3681  3.1151
 6587TIP3   OH241251   4.089   0.625   0.264  0.2668  0.0751 -0.1697
 6587TIP3    H141252   4.158   0.566   0.233  0.2051 -0.3181  0.4244
 6587TIP3    H241253   4.074   0.685   0.191  0.9311 -0.1110 -0.4658
 6588TIP3   OH241254   3.906   3.755  16.068  0.3204  0.0166 -0.2457
 6588TIP3    H141255   3.995   3.757  16.104 -0.8386  1.5789  2.8743
 6588TIP3    H241256   3.900   3.834  16.015  0.8047 -0.1405 -0.5409
 6589TIP3   OH241257   5.864   3.387   2.011  0.7351  0.1335 -0.4824
 6589TIP3    H141258   5.807   3.310   2.009  2.1734 -0.9660 -2.1515
 6589TIP3    H241259   5.819   3.448   2.070 -0.8296 -1.6657  0.3112
 6590TIP3   OH241260   6.001   3.950   2.649 -0.1444 -0.6678 -0.4362
 6590TIP3    H141261   6.002   4.033   2.601 -1.6271  0.7067  1.7398
 6590TIP3    H241262   6.064   3.962   2.720 -2.1232 -0.3444  1.3862
 6591TIP3   OH241263   5.847   0.006  12.933 -0.3084  0.1107  0.3196
 6591TIP3    H141264   5.930   0.030  12.973  0.2542 -1.1446 -0.0447
 6591TIP3    H241265   5.864   0.008  12.839 -0.6932 -0.0976  0.2428
 6592TIP3   OH241266   5.653   4.076   6.345  0.6620  0.2361 -0.0008
 6592TIP3    H141267   5.666   3.991   6.385 -0.1288  0.0655 -0.0889
 6592TIP3    H241268   5.695   4.070   6.259 -0.5971 -0.5435 -0.5844
 6593TIP3   OH241269   4.725   5.325  14.211 -0.4419  0.6679  0.3662
 6593TIP3    H141270   4.759   5.248  14.165  2.3385  1.5852  0.7048
 6593TIP3    H241271   4.803   5.374  14.236 -2.1034  3.3513  0.6408
 6594TIP3   OH241272   0.435   2.067   1.458  0.3107 -0.1825  0.2136
 6594TIP3    H141273   0.471   2.091   1.373  0.6528 -1.2474  0.0471
 6594TIP3    H241274   0.355   2.120   1.466 -0.9231 -1.6125 -1.7491
 6595TIP3   OH241275   4.468   1.565   5.550 -0.1129 -0.0281 -0.3187
 6595TIP3    H141276   4.518   1.547   5.470 -1.5431  1.3807 -1.5851
 6595TIP3    H241277   4.403   1.630   5.524 -1.8183 -0.8713  1.5644
 6596TIP3   OH241278   0.902   0.616   4.616 -0.0152 -0.5078  0.1534
 6596TIP3    H141279   0.983   0.660   4.589 -0.0722 -0.3541  0.2262
 6596TIP3    H241280   0.928   0.564   4.692 -0.5242  1.7452  2.0129
 6597TIP3   OH241281   3.161   3.579  15.137  0.3993 -0.1653  0.6379
 6597TIP3    H141282   3.194   3.498  15.097  0.3510 -0.2317  0.7284
 6597TIP3    H241283   3.205   3.582  15.222  0.6965  0.1085  0.4735
 6598TIP3   OH241284   2.851   6.247   1.353  0.3681 -0.2431  0.1797
 6598TIP3    H141285   2.759   6.259   1.330  0.7601  1.8687 -0.4766
 6598TIP3    H241286   2.881   6.334   1.376  2.3258 -0.8320  0.0084
 6599TIP3   OH241287   3.170   3.866   4.338 -0.1561 -0.1994 -0.1360
 6599TIP3    H141288   3.109   3.926   4.381  1.3495  1.0526  0.3349
 6599TIP3    H241289   3.202   3.914   4.262  1.9531  0.1311  0.8799
 6600TIP3   OH241290   4.407   4.522  12.658 -0.2660 -0.0762  0.1674
 6600TIP3    H141291   4.497   4.552  12.666 -0.8227  1.5121  0.9102
 6600TIP3    H241292   4.356   4.601  12.642 -1.6656 -0.7964  0.8141
 6601TIP3   OH241293   6.521   2.899   5.577 -0.1687 -0.5348  0.4411
 6601TIP3    H141294   6.449   2.839   5.561 -1.5376  0.8778  1.0545
 6601TIP3    H241295   6.493   2.952   5.652  1.7114 -0.2523  1.0148
 6602TIP3   OH241296   5.025   1.238  12.522 -0.6444 -0.1335  0.1899
 6602TIP3    H141297   5.085   1.312  12.530  1.3614 -1.8284  2.3434
 6602TIP3    H241298   4.946   1.267  12.567 -0.2948  1.0345  0.1009
 6603TIP3   OH241299   3.148   6.201  15.519  0.2543  0.2116 -0.5112
 6603TIP3    H141300   3.078   6.184  15.456 -0.1707 -2.4309  0.5462
 6603TIP3    H241301   3.145   6.296  15.532 -1.7278  0.4499 -2.0681
 6604TIP3   OH241302   2.494   4.141   3.484  0.4435 -0.3816 -0.0835
 6604TIP3    H141303   2.440   4.074   3.526 -0.6827 -0.1646 -1.1068
 6604TIP3    H241304   2.539   4.095   3.414 -0.0758 -0.1498 -0.5777
 6605TIP3   OH241305   6.827   3.710   6.106  0.1443  0.4036  0.0550
 6605TIP3    H141306   6.908   3.748   6.138  0.6943  0.6965 -1.5708
 6605TIP3    H241307   6.758   3.751   6.158  0.9970  0.4862  1.1511
 6606TIP3   OH241308   4.204   3.211   4.367 -0.0619 -0.3583  0.0895
 6606TIP3    H141309   4.182   3.251   4.283 -0.0357 -1.1814 -0.3274
 6606TIP3    H241310   4.135   3.239   4.426 -0.0777  0.2375 -0.2045
 6607TIP3   OH241311   0.247   0.875   5.631  0.3700 -0.1092 -0.2360
 6607TIP3    H141312   0.240   0.902   5.722 -0.0548 -2.1008  0.3494
 6607TIP3    H241313   0.333   0.908   5.603  0.8261 -0.1230  1.0918
 6608TIP3   OH241314   4.938   2.224  14.577  0.5780  0.6926  0.1107
 6608TIP3    H141315   4.988   2.157  14.624  1.5947  0.2989 -1.4767
 6608TIP3    H241316   4.849   2.189  14.571  0.8913 -0.0995  0.0696
 6609TIP3   OH241317   4.330   2.019  11.604 -0.6450  0.6641  0.2980
 6609TIP3    H141318   4.415   2.058  11.584 -1.4912  2.2242 -0.3806
 6609TIP3    H241319   4.310   1.964  11.529 -1.0410  1.7421 -0.4125
 6610TIP3   OH241320   0.761   3.728   4.182  0.3249 -0.2108 -0.0321
 6610TIP3    H141321   0.686   3.768   4.226  0.5612  0.7823 -0.5158
 6610TIP3    H241322   0.780   3.650   4.234 -0.1325  0.3091  0.9394
 6611TIP3   OH241323   3.404   5.580  15.719 -0.0210  0.1320 -0.0865
 6611TIP3    H141324   3.496   5.596  15.696 -0.1401  1.2820  0.1571
 6611TIP3    H241325   3.383   5.648  15.783 -1.1028  0.0302 -0.3099
 6612TIP3   OH241326   6.209   4.132  12.415 -0.3368  0.6859  0.0723
 6612TIP3    H141327   6.234   4.216  12.453  2.6647 -0.0217 -0.1012
 6612TIP3    H241328   6.261   4.067  12.463 -1.1110 -0.8656 -1.0958
 6613TIP3   OH241329   4.282   5.364  13.618  0.3950 -0.1071 -0.4859
 6613TIP3    H141330   4.245   5.286  13.576 -0.6084 -0.8891  1.7000
 6613TIP3    H241331   4.221   5.384  13.689  0.4080  2.9575 -1.2204
 6614TIP3   OH241332   6.475   4.777  16.339  0.1295  0.0392 -0.0864
 6614TIP3    H141333   6.502   4.844  16.275 -1.2572  0.0787 -0.6580
 6614TIP3    H241334   6.388   4.750  16.310  0.1996 -1.2074  0.8035
 6615TIP3   OH241335   1.747   4.933  11.529  0.1368  0.0568 -0.1090
 6615TIP3    H141336   1.837   4.966  11.542  0.2655 -0.3207 -0.0432
 6615TIP3    H241337   1.741   4.856  11.585 -0.3390  0.2714  0.1313
 6616TIP3   OH241338   2.685   5.180   0.829 -0.0241  0.3467 -0.6681
 6616TIP3    H141339   2.636   5.121   0.886  1.4878  1.0589  1.5064
 6616TIP3    H241340   2.775   5.177   0.862  0.3784  2.8558 -1.2740
 6617TIP3   OH241341   6.269   2.907  13.999  0.5111  0.2450 -0.6695
 6617TIP3    H141342   6.257   2.812  14.002  0.5454  0.2221  2.8292
 6617TIP3    H241343   6.180   2.942  13.993  0.4617  0.0253 -1.3078
 6618TIP3   OH241344   1.415   3.416  16.944  0.0417  0.4231 -0.3509
 6618TIP3    H141345   1.351   3.454  16.883  0.1244 -2.0940 -2.1337
 6618TIP3    H241346   1.478   3.487  16.959 -0.4339  1.3956 -2.5586
 6619TIP3   OH241347   3.246   3.423   4.784 -0.1784 -0.4118  0.1607
 6619TIP3    H141348   3.165   3.402   4.738  0.1707 -0.7881 -0.2970
 6619TIP3    H241349   3.297   3.475   4.722 -0.2711  0.2464  0.6256
 6620TIP3   OH241350   2.462   0.681   5.196 -0.1014  0.3898 -0.1253
 6620TIP3    H141351   2.514   0.704   5.119  0.6714  3.7067  1.1766
 6620TIP3    H241352   2.507   0.726   5.268 -0.8325 -2.4904  2.2975
 6621TIP3   OH241353   6.515   2.815   6.230  0.2108  0.1965  0.0838
 6621TIP3    H141354   6.514   2.882   6.298  1.0158  0.9539 -0.6194
 6621TIP3    H241355   6.557   2.739   6.271 -0.9459 -0.0043  0.9677
 6622TIP3   OH241356   2.553   5.169  15.332  0.3494 -0.5702 -0.0967
 6622TIP3    H141357   2.609   5.093  15.348  1.1171 -0.0267 -0.1572
 6622TIP3    H241358   2.464   5.133  15.328  0.7405 -1.5272 -0.5366
 6623TIP3   OH241359   0.134   4.127   3.143  0.3207 -0.5978  0.4457
 6623TIP3    H141360   0.081   4.196   3.103 -0.6486 -1.3545  0.3709
 6623TIP3    H241361   0.222   4.163   3.148  0.0644  0.2141 -0.6287
 6624TIP3   OH241362   3.798   5.688  16.226  0.3183  0.3911 -0.2049
 6624TIP3    H141363   3.743   5.741  16.284  1.0036  1.1778 -0.2472
 6624TIP3    H241364   3.749   5.681  16.145  0.2071  0.9469 -0.1896
 6625TIP3   OH241365   2.868   1.401   2.542 -0.3627  0.1323  0.2139
 6625TIP3    H141366   2.870   1.454   2.621 -1.7915  0.3113  0.1649
 6625TIP3    H241367   2.777   1.407   2.512 -0.3192 -1.5374 -0.3386
 6626TIP3   OH241368   5.777   0.110  12.384 -0.0464  1.0201  0.2884
 6626TIP3    H141369   5.789   0.205  12.381  1.1303  0.8625 -1.7917
 6626TIP3    H241370   5.856   0.077  12.428 -1.0614  1.0320  2.2308
 6627TIP3   OH241371   5.550   6.647  14.055 -0.6615  0.3367 -0.0218
 6627TIP3    H141372   5.562   6.571  14.113  0.8933  0.4707 -0.1239
 6627TIP3    H241373   5.456   6.665  14.058 -0.9157 -0.9894  0.7686
 6628TIP3   OH241374   3.669   5.139   0.131  0.2502  0.8757  0.1727
 6628TIP3    H141375   3.587   5.090   0.128 -1.3952  3.3347  1.1753
 6628TIP3    H241376   3.705   5.121   0.218 -0.4848  1.6019  0.6403
 6629TIP3   OH241377   1.731   4.223  14.653  0.1399 -0.1659 -0.5985
 6629TIP3    H141378   1.776   4.308  14.651 -0.7909  0.4400 -4.0837
 6629TIP3    H241379   1.797   4.160  14.624 -0.0182 -0.0301 -1.2814
 6630TIP3   OH241380   0.704   4.138   3.398 -0.2445  0.2611  0.1346
 6630TIP3    H141381   0.719   4.140   3.492 -0.0492  0.1008  0.1089
 6630TIP3    H241382   0.616   4.174   3.386 -0.1100  0.6530  0.3443
 6631TIP3   OH241383   6.841   5.282  15.574  0.1520  0.4704 -0.0158
 6631TIP3    H141384   6.833   5.282  15.478 -1.1335 -1.5348  0.0191
 6631TIP3    H241385   6.918   5.229  15.591  1.5029  2.3674  0.0817
 6632TIP3   OH241386   0.409   5.213   6.142 -0.1809 -0.4902  0.3189
 6632TIP3    H141387   0.352   5.223   6.218  0.7938 -0.0087  1.0041
 6632TIP3    H241388   0.404   5.298   6.098  3.2152  1.1573  2.7010
 6633TIP3   OH241389   2.621   2.591   4.905  0.4845 -0.6119 -0.8399
 6633TIP3    H141390   2.669   2.599   4.987  0.1378 -0.8410 -0.6120
 6633TIP3    H241391   2.529   2.588   4.931  0.2987  0.4760 -1.3113
 6634TIP3   OH241392   3.484   4.262   2.817  0.3974  0.6190  0.5792
 6634TIP3    H141393   3.523   4.338   2.860  0.9860  1.5744 -1.5342
 6634TIP3    H241394   3.539   4.247   2.740  0.4750 -2.1404  1.0547
 6635TIP3   OH241395   3.265   0.182   4.397 -0.3630 -0.5133  0.3845
 6635TIP3    H141396   3.271   0.106   4.455 -0.3855  0.0110  1.0931
 6635TIP3    H241397   3.336   0.240   4.426  0.7874 -1.0193 -1.2995
 6636TIP3   OH241398   5.841   3.496  13.925 -0.0190 -0.4547 -0.4554
 6636TIP3    H141399   5.785   3.557  13.972 -0.6871 -0.1510 -1.6056
 6636TIP3    H241400   5.919   3.488  13.980 -1.2451 -1.0431  1.2575
 6637TIP3   OH241401   5.302   6.222   2.362 -0.0454 -0.0769 -0.3958
 6637TIP3    H141402   5.359   6.160   2.317  0.7842  0.0762  0.4020
 6637TIP3    H241403   5.257   6.170   2.428 -1.9013 -0.4730 -1.8927
 6638TIP3   OH241404   2.862   5.424  12.689 -0.1980  0.8150  0.1793
 6638TIP3    H141405   2.816   5.350  12.730  0.9225  0.7581  1.4367
 6638TIP3    H241406   2.831   5.425  12.599  0.0038 -1.4221  0.0173
 6639TIP3   OH241407   4.977   0.240  14.099  0.2416  0.2135  0.4509
 6639TIP3    H141408   5.054   0.291  14.073 -0.2266  0.1073 -1.2392
 6639TIP3    H241409   4.903   0.298  14.083 -0.0700  0.1534  1.6354
 6640TIP3   OH241410   6.535   6.804   4.987  0.0565 -0.0893  0.1501
 6640TIP3    H141411   6.626   6.810   5.016  0.8401 -1.7258 -1.7459
 6640TIP3    H241412   6.516   6.710   4.988 -0.2196 -0.1758 -3.3198
 6641TIP3   OH241413   6.130   4.807  13.508 -0.1305  0.3943 -0.1631
 6641TIP3    H141414   6.165   4.831  13.422 -1.3794  0.5300 -0.6518
 6641TIP3    H241415   6.181   4.730  13.534  0.7655  0.7975 -0.6723
 6642TIP3   OH241416   2.728   5.067   2.810 -0.1538  0.1360 -0.3298
 6642TIP3    H141417   2.718   5.162   2.809  0.4698  0.2183  0.3987
 6642TIP3    H241418   2.808   5.052   2.859 -0.0587 -0.7585 -0.7387
 6643TIP3   OH241419   3.172   0.910  11.358  0.0611 -0.0952  0.4782
 6643TIP3    H141420   3.202   0.896  11.448  2.5708 -2.2193 -0.5746
 6643TIP3    H241421   3.252   0.923  11.307 -1.1501 -0.8927 -1.7603
 6644TIP3   OH241422   0.146   0.638   3.424  0.4684  0.1701 -0.1988
 6644TIP3    H141423   0.069   0.593   3.458  1.3040 -0.7819  0.4808
 6644TIP3    H241424   0.206   0.567   3.398  0.9691  0.8906 -1.0710
 6645TIP3   OH241425   0.677   1.718  12.610 -0.1101 -0.0674  0.5236
 6645TIP3    H141426   0.648   1.707  12.701 -1.0326 -1.6754  0.0678
 6645TIP3    H241427   0.597   1.740  12.562  0.5150  1.6939  0.2008
 6646TIP3   OH241428   4.836   6.337  12.905 -0.7450 -0.3562 -0.0815
 6646TIP3    H141429   4.775   6.405  12.933  0.4022  0.6001  0.2073
 6646TIP3    H241430   4.831   6.339  12.809  0.3835  1.2682 -0.1616
 6647TIP3   OH241431   3.734   4.661  13.530 -0.3622  0.5916  0.5323
 6647TIP3    H141432   3.667   4.633  13.593 -0.4288  0.1992  0.2930
 6647TIP3    H241433   3.683   4.693  13.455 -0.3464 -1.9349 -0.6623
 6648TIP3   OH241434   4.346   1.109  16.465  0.2810 -0.0208 -0.3316
 6648TIP3    H141435   4.372   1.026  16.505 -0.1205  0.5580  1.1925
 6648TIP3    H241436   4.383   1.176  16.523  0.0946  0.8669 -1.2150
 6649TIP3   OH241437   6.311   1.651  17.096 -0.2926  0.1034 -0.3534
 6649TIP3    H141438   6.286   1.736  17.059 -0.1783 -0.1145 -0.9509
 6649TIP3    H241439   6.339   1.671  17.185 -1.8048  0.4735  0.0629
 6650TIP3   OH241440   0.117   5.766  12.438 -0.4010 -0.8325 -0.1323
 6650TIP3    H141441   0.040   5.731  12.393 -0.3081 -0.9088 -0.2323
 6650TIP3    H241442   0.169   5.806  12.368 -0.7152 -0.1083  0.0426
 6651TIP3   OH241443   3.061   6.424   1.192 -0.1632 -0.1656  0.0631
 6651TIP3    H141444   3.072   6.329   1.193 -1.2777 -0.3037  1.0483
 6651TIP3    H241445   3.041   6.445   1.101 -0.6135 -0.9635 -0.0306
 6652TIP3   OH241446   5.763   3.642  15.702  0.1203  0.2401 -0.6052
 6652TIP3    H141447   5.676   3.660  15.737 -1.1616 -2.3283 -2.2377
 6652TIP3    H241448   5.774   3.707  15.632 -0.2925  0.7972 -0.1680
 6653TIP3   OH241449   5.497   5.778  15.677  0.3691  0.1971 -0.2231
 6653TIP3    H141450   5.552   5.823  15.741  0.0287 -0.2707  0.4062
 6653TIP3    H241451   5.540   5.693  15.663  0.2900  0.1857 -0.4062
 6654TIP3   OH241452   4.045   6.459  15.632 -0.9501  0.5256  0.5847
 6654TIP3    H141453   4.081   6.371  15.642 -1.4468  0.3973  1.3291
 6654TIP3    H241454   4.085   6.510  15.702 -0.9830  0.7899  0.4137
 6655TIP3   OH241455   1.037   0.489   5.593  0.3527  0.3387 -0.3929
 6655TIP3    H141456   0.998   0.435   5.525  0.9499 -0.8119  0.1443
 6655TIP3    H241457   0.982   0.474   5.670 -0.2637  1.5545 -0.5784
 6656TIP3   OH241458   2.212   2.266  12.946 -0.6688  0.1267  0.1305
 6656TIP3    H141459   2.166   2.191  12.984 -0.2255  0.3112  1.0890
 6656TIP3    H241460   2.149   2.338  12.952 -0.3640  0.3270  1.2327
 6657TIP3   OH241461   5.582   6.056  11.713  0.1242  0.1523 -0.2528
 6657TIP3    H141462   5.650   6.046  11.780  1.4739  1.9766 -1.2364
 6657TIP3    H241463   5.519   6.117  11.752 -0.2220 -0.4339  0.1224
 6658TIP3   OH241464   2.267   1.790  14.734 -0.1310 -0.9514 -0.1683
 6658TIP3    H141465   2.327   1.847  14.783 -0.9064 -0.0111 -0.2672
 6658TIP3    H241466   2.307   1.782  14.647  0.2188 -0.9398 -0.0121
 6659TIP3   OH241467   2.497   2.118   0.132 -0.0665  0.3083  0.6284
 6659TIP3    H141468   2.476   2.028   0.108  0.1496  0.5624 -0.5913
 6659TIP3    H241469   2.479   2.123   0.226  0.5437 -1.1852  0.8612
 6660TIP3   OH241470   1.120   4.040  16.217 -0.5343  0.0589 -0.7815
 6660TIP3    H141471   1.080   4.011  16.298  0.3739 -1.1249 -0.7369
 6660TIP3    H241472   1.074   4.121  16.195 -0.3277  0.7854  1.2755
 6661TIP3   OH241473   5.765   4.329   4.438  0.0250 -0.3885  0.3821
 6661TIP3    H141474   5.785   4.240   4.410 -0.8941 -0.4571 -0.0912
 6661TIP3    H241475   5.810   4.339   4.522 -0.0562 -1.3708  0.5446
 6662TIP3   OH241476   2.728   1.736   3.424  0.5444 -0.3880 -0.2063
 6662TIP3    H141477   2.758   1.743   3.334  0.1029 -0.5699 -0.3697
 6662TIP3    H241478   2.804   1.703   3.472  1.0439  0.5305 -0.3525
 6663TIP3   OH241479   1.150   4.116  14.699  0.6620 -0.2989  0.1164
 6663TIP3    H141480   1.224   4.055  14.708  1.4529  0.8076  1.4350
 6663TIP3    H241481   1.191   4.201  14.681 -0.3690  0.1103 -0.3724
 6664TIP3   OH241482   1.353   0.811   5.343  0.1878 -0.2408 -0.1589
 6664TIP3    H141483   1.444   0.794   5.316 -0.2706 -0.5155 -1.6509
 6664TIP3    H241484   1.346   0.906   5.344  1.1486 -0.1280  2.4412
 6665TIP3   OH241485   6.232   2.371   5.685 -0.6751 -0.3827  0.4809
 6665TIP3    H141486   6.161   2.336   5.739  0.0952 -1.0729  1.0661
 6665TIP3    H241487   6.299   2.303   5.686  0.2851  0.5346  0.5033
 6666TIP3   OH241488   6.438   4.372  12.864  0.0448 -0.0458 -0.1239
 6666TIP3    H141489   6.494   4.343  12.793  0.3251  0.0028  0.0759
 6666TIP3    H241490   6.407   4.459  12.837  2.3091  1.2109  0.9847
 6667TIP3   OH241491   0.170   6.674  11.668 -0.5681 -0.0896 -0.0600
 6667TIP3    H141492   0.082   6.651  11.699 -0.3200 -1.3371 -0.2647
 6667TIP3    H241493   0.215   6.591  11.658  0.6698  0.5471  0.0797
 6668TIP3   OH241494   5.745   3.481  12.290  0.1872 -0.0476 -0.3000
 6668TIP3    H141495   5.722   3.422  12.219  0.5454  0.1134 -0.5498
 6668TIP3    H241496   5.831   3.453  12.319  0.4072  0.4185 -0.4946
 6669TIP3   OH241497   1.165   5.459  11.038  0.2614  0.3591  0.0792
 6669TIP3    H141498   1.238   5.512  11.006 -0.8291  0.6627 -2.1377
 6669TIP3    H241499   1.168   5.379  10.985  1.1575 -1.3421  2.5582
 6670TIP3   OH241500   2.549   6.116  16.613  0.3860 -0.1486  0.2875
 6670TIP3    H141501   2.476   6.061  16.585  0.3735  0.0974 -0.1737
 6670TIP3    H241502   2.511   6.175  16.678 -0.1085  0.7404 -0.7629
 6671TIP3   OH241503   1.653   2.372   2.513  0.0814  0.3262  0.1769
 6671TIP3    H141504   1.747   2.368   2.529  0.1277 -1.1865 -0.3262
 6671TIP3    H241505   1.625   2.280   2.510 -1.2955  0.7355 -0.3412
 6672TIP3   OH241506   4.696   2.455  13.152 -0.2244  0.2508  0.5273
 6672TIP3    H141507   4.730   2.475  13.065  0.9934  1.2600  1.1901
 6672TIP3    H241508   4.642   2.531  13.175 -0.2426  0.1607  0.7870
 6673TIP3   OH241509   5.971   3.565   4.025 -0.2201  0.2340 -0.2095
 6673TIP3    H141510   5.982   3.654   3.992 -0.2559  0.7141  0.9889
 6673TIP3    H241511   5.997   3.508   3.952 -0.3207  1.2201 -1.0317
 6674TIP3   OH241512   4.342   3.945  16.365 -0.3475 -0.1293  0.1215
 6674TIP3    H141513   4.417   3.985  16.411  0.8138  0.2199 -1.9567
 6674TIP3    H241514   4.327   3.863  16.411  1.6107 -0.4108  0.3444
 6675TIP3   OH241515   2.175   3.342   1.341  0.0506 -0.1158  0.1772
 6675TIP3    H141516   2.082   3.319   1.351 -0.3035  0.7805 -0.8476
 6675TIP3    H241517   2.195   3.320   1.250  0.7835 -0.0621  0.3203
 6676TIP3   OH241518   1.427   4.409   4.531 -0.3390  0.1555 -0.2617
 6676TIP3    H141519   1.388   4.497   4.533  1.7112  1.1308  1.1675
 6676TIP3    H241520   1.520   4.425   4.518  0.0502 -1.8352 -0.1657
 6677TIP3   OH241521   6.454   6.267   1.239 -0.3434  0.2527  0.0228
 6677TIP3    H141522   6.386   6.315   1.287 -1.2943  0.2524 -1.2851
 6677TIP3    H241523   6.476   6.194   1.297 -1.7482  0.0243  0.3119
 6678TIP3   OH241524   6.654   5.440   0.105  0.2641  0.2632  1.0008
 6678TIP3    H141525   6.695   5.471   0.024  0.3744 -0.2064  0.8705
 6678TIP3    H241526   6.568   5.481   0.107  0.2558  0.2650  0.6352
 6679TIP3   OH241527   3.547   6.266  17.196 -0.7770  0.2296  0.6313
 6679TIP3    H141528   3.609   6.212  17.245  1.1597  0.8328 -1.0280
 6679TIP3    H241529   3.597   6.344  17.171 -1.8600  0.2389 -1.7261
 6680TIP3   OH241530   2.416   1.951  15.301 -0.1865  0.0757 -0.0558
 6680TIP3    H141531   2.375   1.874  15.261 -1.8474  0.0427  1.5527
 6680TIP3    H241532   2.343   2.000  15.339  0.8686  2.2693 -0.6691
 6681TIP3   OH241533   2.710   1.604   5.098 -0.5585  0.1575 -0.7015
 6681TIP3    H141534   2.801   1.599   5.128 -0.5172  0.3723 -0.7875
 6681TIP3    H241535   2.659   1.581   5.175 -0.4237 -0.2207 -0.7231
 6682TIP3   OH241536   2.978   3.407   4.994  0.3604 -0.0057  0.0819
 6682TIP3    H141537   2.926   3.398   4.914  1.6497  0.1692 -0.8075
 6682TIP3    H241538   3.021   3.322   5.003  2.5784  0.9043 -1.1543
 6683TIP3   OH241539   2.015   2.635  12.631  0.0464 -0.2317 -0.4119
 6683TIP3    H141540   1.950   2.675  12.688  1.8491  2.0140  0.2280
 6683TIP3    H241541   1.987   2.658  12.542 -0.0909  0.6750 -0.1430
 6684TIP3   OH241542   0.990   0.275   1.365 -0.0211 -0.2259 -0.1070
 6684TIP3    H141543   0.973   0.328   1.443 -0.9169  2.0148 -1.7247
 6684TIP3    H241544   1.085   0.266   1.363  0.2805  2.3401 -0.3398
 6685TIP3   OH241545   1.832   3.824   0.089 -0.4500  0.6939 -0.7857
 6685TIP3    H141546   1.761   3.760   0.091 -1.9162  2.2921  0.9807
 6685TIP3    H241547   1.802   3.897   0.143  1.6052  2.4438 -1.8258
 6686TIP3   OH241548   6.128   1.977   0.598 -0.2044  0.4461  0.4251
 6686TIP3    H141549   6.101   1.887   0.581  2.1788 -0.3667  0.4423
 6686TIP3    H241550   6.057   2.016   0.648 -1.7553 -1.0831 -0.5167
 6687TIP3   OH241551   1.867   2.666  10.840  0.1958  0.2396 -0.7351
 6687TIP3    H141552   1.841   2.739  10.896  0.6044 -0.7300  0.7630
 6687TIP3    H241553   1.962   2.674  10.831  0.1700  0.2168 -1.0631
 6688TIP3   OH241554   5.525   2.641   0.765  0.5321 -0.0017  0.4822
 6688TIP3    H141555   5.469   2.568   0.793 -0.0555  0.7274  1.2440
 6688TIP3    H241556   5.600   2.638   0.825  0.4585  0.0895  0.5777
 6689TIP3   OH241557   5.845   1.724  14.165  0.2461 -0.2622  0.5430
 6689TIP3    H141558   5.799   1.808  14.169 -1.0923 -0.9740  0.5785
 6689TIP3    H241559   5.878   1.719  14.075  0.4774  0.3773  0.5912
 6690TIP3   OH241560   0.837   0.963   4.350  0.2540 -0.3919 -0.1590
 6690TIP3    H141561   0.899   1.035   4.362  2.0843 -2.0376  0.7189
 6690TIP3    H241562   0.788   0.959   4.432 -0.0335  0.0018 -0.3083
 6691TIP3   OH241563   6.051   6.021  14.990  0.3967 -0.0814  0.0576
 6691TIP3    H141564   6.110   6.028  14.915  2.3837  0.9837  1.6195
 6691TIP3    H241565   6.022   6.111  15.005  3.5393  0.6447  3.1079
 6692TIP3   OH241566   3.453   6.436  15.917  0.3227 -0.0657 -0.6063
 6692TIP3    H141567   3.360   6.460  15.910  0.4751  0.1299 -2.9588
 6692TIP3    H241568   3.457   6.345  15.887  0.9536  0.1649 -1.2603
 6693TIP3   OH241569   4.063   3.850   1.320  0.0404  0.5306  0.2108
 6693TIP3    H141570   4.032   3.782   1.380  2.8360  0.1331  1.3394
 6693TIP3    H241571   3.996   3.918   1.324 -2.0112 -1.3887  0.3419
 6694TIP3   OH241572   6.807   2.517   2.784  0.7929 -0.5957  0.7862
 6694TIP3    H141573   6.851   2.560   2.711 -0.5549  0.4768  0.5530
 6694TIP3    H241574   6.785   2.430   2.750 -0.1707  0.0278 -0.2642
 6695TIP3   OH241575   1.529   5.112  14.473  0.0286  0.4997 -0.2600
 6695TIP3    H141576   1.515   5.018  14.466 -0.7721  0.3126  2.5708
 6695TIP3    H241577   1.444   5.150  14.452  0.0977  0.5300 -0.4844
 6696TIP3   OH241578   6.467   5.438  16.144 -0.1799  0.5491 -0.8410
 6696TIP3    H141579   6.557   5.413  16.125  0.2356 -0.5537  2.0406
 6696TIP3    H241580   6.473   5.529  16.173 -0.3646  1.1755 -2.6401
 6697TIP3   OH241581   6.148   4.453  15.097 -0.9291  0.6260 -0.1817
 6697TIP3    H141582   6.117   4.445  15.188 -0.3963  0.8827  0.0257
 6697TIP3    H241583   6.238   4.483  15.105 -0.5494 -0.2965 -0.7687
 6698TIP3   OH241584   3.284   5.702   4.510  0.1341  0.3200 -0.2635
 6698TIP3    H141585   3.287   5.730   4.419 -0.0711  0.5655 -0.1955
 6698TIP3    H241586   3.209   5.642   4.514  1.9068 -2.0942 -0.9189
 6699TIP3   OH241587   6.439   6.335   0.945  0.5935  0.2217 -0.3312
 6699TIP3    H141588   6.371   6.279   0.909  1.6409 -0.3749 -1.4495
 6699TIP3    H241589   6.478   6.283   1.015 -1.1479  1.2115  1.4942
 6700TIP3   OH241590   5.068   0.597  11.157  0.3965  0.3687 -0.0539
 6700TIP3    H141591   5.086   0.522  11.100  1.0016  1.1495 -0.9292
 6700TIP3    H241592   5.151   0.646  11.159  0.1609  0.7585  0.8980
 6701TIP3   OH241593   6.678   2.612  12.957 -0.0738 -0.3200  0.3201
 6701TIP3    H141594   6.653   2.686  12.902  0.6850  0.5835  1.1654
 6701TIP3    H241595   6.747   2.645  13.013 -0.0700 -1.5296  1.0776
 6702TIP3   OH241596   4.743   5.720  14.883  0.4738 -0.4311  0.0195
 6702TIP3    H141597   4.722   5.722  14.790 -0.6866  1.6552  0.2749
 6702TIP3    H241598   4.673   5.668  14.922  1.6543 -2.4287 -0.3512
 6703TIP3   OH241599   6.827   5.757  13.821 -0.3235 -0.3367 -0.1530
 6703TIP3    H141600   6.816   5.733  13.729 -0.1537  0.0854 -0.2871
 6703TIP3    H241601   6.813   5.676  13.869 -1.2953 -0.3771 -0.4927
 6704TIP3   OH241602   4.727   1.756  13.771 -0.0210  0.0315 -0.1419
 6704TIP3    H141603   4.784   1.795  13.837  0.0733 -1.2805  0.5783
 6704TIP3    H241604   4.689   1.831  13.726 -0.4441  0.9823  1.6956
 6705TIP3   OH241605   3.121   2.508   0.773  0.2411 -0.2847 -0.2531
 6705TIP3    H141606   3.157   2.482   0.858 -1.0053  1.0783  0.7312
 6705TIP3    H241607   3.039   2.459   0.765  0.5108 -0.6567 -0.8380
 6706TIP3   OH241608   0.226   6.419   3.962  0.4006 -0.1370  0.5747
 6706TIP3    H141609   0.230   6.504   3.917  1.8065 -0.8142 -0.6869
 6706TIP3    H241610   0.171   6.435   4.039 -0.7773  1.4823 -0.5285
 6707TIP3   OH241611   3.051   0.521   2.358  0.4267  0.0882 -0.1068
 6707TIP3    H141612   3.119   0.506   2.425  1.9518 -0.7779 -1.7663
 6707TIP3    H241613   3.096   0.506   2.275 -1.2479  1.7774 -1.3888
 6708TIP3   OH241614   3.355   1.721  11.407  0.0004  0.3231 -1.1727
 6708TIP3    H141615   3.277   1.691  11.361 -1.4500  1.7721  0.2138
 6708TIP3    H241616   3.365   1.812  11.380 -0.3911  0.9500  0.6187
 6709TIP3   OH241617   2.270   0.144   3.973  0.4295  0.0547  0.1807
 6709TIP3    H141618   2.262   0.103   3.887  0.2896 -0.3762  0.3964
 6709TIP3    H241619   2.358   0.120   4.003 -0.2679 -1.5936  1.0600
 6710TIP3   OH241620   6.693   1.178   5.737 -0.5895  0.1981  0.7936
 6710TIP3    H141621   6.628   1.108   5.743 -1.2431  0.3105 -2.7083
 6710TIP3    H241622   6.641   1.256   5.716  0.3445  1.3327  2.4726
 6711TIP3   OH241623   0.140   4.447  11.432 -0.0495 -0.1127 -0.2268
 6711TIP3    H141624   0.207   4.483  11.373 -1.6955  0.1406 -2.0142
 6711TIP3    H241625   0.140   4.353  11.413 -0.1378 -0.1270 -0.1555
 6712TIP3   OH241626   4.017   0.491  14.928  0.0362  0.3986 -0.5664
 6712TIP3    H141627   3.999   0.569  14.980 -2.6217  0.0671 -0.8555
 6712TIP3    H241628   3.992   0.418  14.984 -0.5699 -0.0722 -1.4234
 6713TIP3   OH241629   2.167   3.299  17.148  0.9011  0.3916  0.2729
 6713TIP3    H141630   2.234   3.235  17.123 -0.6306 -1.4363  0.6125
 6713TIP3    H241631   2.109   3.304  17.071 -1.3371 -1.9208  1.6422
 6714TIP3   OH241632   3.035   5.592   0.828 -0.5912  0.2235 -0.6359
 6714TIP3    H141633   2.997   5.584   0.741 -1.5786 -1.3336 -0.1065
 6714TIP3    H241634   3.124   5.558   0.819 -0.6789  0.0999 -1.0405
 6715TIP3   OH241635   0.217   3.062  10.963  0.1187  0.4708  0.8139
 6715TIP3    H141636   0.175   3.137  10.921  0.6887  0.4721  0.2236
 6715TIP3    H241637   0.302   3.055  10.920  0.3671 -0.0709  1.3713
 6716TIP3   OH241638   4.179   0.020   0.044  0.7308  0.1161 -0.0359
 6716TIP3    H141639   4.126  -0.034  -0.014  1.7388  0.2452 -1.1235
 6716TIP3    H241640   4.193  -0.035   0.121  1.3411 -1.0283 -0.9241
 6717TIP3   OH241641   4.413   3.570  14.680  0.1978 -0.0678  0.1466
 6717TIP3    H141642   4.491   3.584  14.733  0.3412  1.0768 -0.3565
 6717TIP3    H241643   4.348   3.630  14.717 -0.2051 -0.4451  0.0585
 6718TIP3   OH241644   1.530   3.399   0.501 -0.1989 -0.2027  0.4238
 6718TIP3    H141645   1.598   3.396   0.567  1.7714 -1.4638 -1.5175
 6718TIP3    H241646   1.551   3.476   0.447  1.0197 -1.6940 -1.3750
 6719TIP3   OH241647   2.512   1.431   4.244  0.0763  0.1345  0.2350
 6719TIP3    H141648   2.597   1.427   4.289 -0.3170  0.4214  1.0128
 6719TIP3    H241649   2.459   1.365   4.289 -0.2074  0.1637 -0.0572
 6720TIP3   OH241650   0.219   0.702   6.052 -0.2561 -0.1710  0.1513
 6720TIP3    H141651   0.280   0.769   6.021  1.7035 -1.1465  1.6903
 6720TIP3    H241652   0.215   0.638   5.980  0.4731 -0.0491 -0.0025
 6721TIP3   OH241653   5.509   0.405  16.538  0.1163 -0.0231  0.6954
 6721TIP3    H141654   5.558   0.389  16.619  0.7255  0.6248  0.4617
 6721TIP3    H241655   5.431   0.452  16.566  0.2388  0.0461  0.9303
 6722TIP3   OH241656   0.922   1.292  15.501  0.1376  0.0970  0.3647
 6722TIP3    H141657   0.967   1.376  15.502  2.2395 -0.9521  0.0124
 6722TIP3    H241658   0.968   1.239  15.566  0.1728 -1.4040 -0.8256
 6723TIP3   OH241659   1.568   0.737  15.808 -0.4444 -0.4621 -0.2900
 6723TIP3    H141660   1.490   0.714  15.859  1.2617 -0.5001  2.5033
 6723TIP3    H241661   1.583   0.829  15.828  0.5752 -0.6144 -0.3083
 6724TIP3   OH241662   0.814   3.050   3.317  0.2134  0.3045  0.8631
 6724TIP3    H141663   0.883   3.106   3.280  0.2875  0.2481  0.9157
 6724TIP3    H241664   0.753   3.111   3.359 -0.6391  0.4976 -0.5834
 6725TIP3   OH241665   1.069   5.062   3.549  0.1522  0.1347  0.0112
 6725TIP3    H141666   1.104   5.124   3.612  0.0437  0.1729  0.0351
 6725TIP3    H241667   1.092   4.976   3.585  2.6803  0.1443 -1.3599
 6726TIP3   OH241668   5.299   4.310  15.011  0.6924  0.0489  0.2020
 6726TIP3    H141669   5.324   4.284  14.922  1.2765 -0.0527  0.3902
 6726TIP3    H241670   5.235   4.244  15.038 -0.1403  0.5638 -0.4511
 6727TIP3   OH241671   1.061   1.561  15.485 -0.3805  0.2822  0.3151
 6727TIP3    H141672   1.055   1.643  15.436  0.4939 -0.4090 -1.0045
 6727TIP3    H241673   1.149   1.560  15.520  0.1903 -0.7885 -1.0337
 6728TIP3   OH241674   4.591   4.751  12.892 -0.1283  0.3096  0.0384
 6728TIP3    H141675   4.591   4.802  12.812 -0.2131  0.9656  0.4497
 6728TIP3    H241676   4.536   4.675  12.873  1.2337 -0.4407 -1.0760
 6729TIP3   OH241677   1.661   3.464  14.265 -0.2492  0.0164 -0.0285
 6729TIP3    H141678   1.665   3.512  14.347  2.0202  0.3659 -0.2878
 6729TIP3    H241679   1.729   3.397  14.272 -1.7921 -1.6789 -0.6092
 6730TIP3   OH241680   4.474   3.687  15.498  0.2422 -0.2503 -0.8102
 6730TIP3    H141681   4.495   3.602  15.461  1.5319 -0.4765  0.3586
 6730TIP3    H241682   4.380   3.697  15.484  0.0926 -1.8160 -1.0627
 6731TIP3   OH241683   5.139   1.687  15.793 -0.5186  0.3433 -0.1609
 6731TIP3    H141684   5.158   1.664  15.884  0.0181  0.3258 -0.2741
 6731TIP3    H241685   5.190   1.624  15.742 -0.7488  0.4102 -0.4750
 6732TIP3   OH241686   6.636   6.374   2.732 -0.2116 -0.3127 -0.4684
 6732TIP3    H141687   6.568   6.353   2.795 -0.9012  1.1536 -0.6787
 6732TIP3    H241688   6.688   6.294   2.725 -0.1285 -0.5420  1.9217
 6733TIP3   OH241689   3.158   5.029  15.888 -0.1350  0.0918  0.6345
 6733TIP3    H141690   3.234   5.020  15.946  0.1431 -2.4090  0.0023
 6733TIP3    H241691   3.089   4.978  15.931 -1.0965  1.3206  0.5835
 6734TIP3   OH241692   1.399   6.651  11.551 -0.2194 -0.1886 -0.0453
 6734TIP3    H141693   1.357   6.635  11.466  0.5305 -0.4705 -0.3785
 6734TIP3    H241694   1.407   6.564  11.590  0.5086 -0.1994 -0.2127
 6735TIP3   OH241695   5.969   4.979  15.243  0.1295 -0.4953 -0.2789
 6735TIP3    H141696   6.057   4.954  15.215  0.0156 -1.2441  0.0077
 6735TIP3    H241697   5.915   4.970  15.165  0.1554 -0.8328 -0.2598
 6736TIP3   OH241698   4.614   2.211   2.960  0.4484 -0.2065  0.0838
 6736TIP3    H141699   4.599   2.118   2.977 -1.8570  0.3344  1.4260
 6736TIP3    H241700   4.581   2.224   2.871 -0.3480 -0.4635  0.3303
 6737TIP3   OH241701   4.547   0.967   0.357  0.2273  0.4213 -0.2972
 6737TIP3    H141702   4.457   0.938   0.347 -0.0259  1.1414 -0.1905
 6737TIP3    H241703   4.558   1.035   0.290  0.6344  0.4682 -0.1878
 6738TIP3   OH241704   0.756   1.630   3.922 -0.2141 -0.3410 -0.5847
 6738TIP3    H141705   0.832   1.663   3.969  1.0327 -0.6071 -2.3133
 6738TIP3    H241706   0.700   1.593   3.990 -0.6441  3.2159  1.1914
 6739TIP3   OH241707   5.590   1.161   0.946 -0.4410  0.3461 -0.1764
 6739TIP3    H141708   5.655   1.107   0.990  0.3085  0.0021 -1.6170
 6739TIP3    H241709   5.506   1.127   0.976  0.0292 -0.7208 -0.0113
 6740TIP3   OH241710   1.963   5.980  16.957  0.0800  0.2045 -0.1547
 6740TIP3    H141711   1.938   6.015  16.872  0.0639  0.8810  0.1208
 6740TIP3    H241712   2.047   6.022  16.977  1.4285 -1.9350 -1.0058
 6741TIP3   OH241713   3.488   1.336  14.900  0.1412  0.1634 -0.7206
 6741TIP3    H141714   3.453   1.323  14.987  0.4691  2.2469 -0.2230
 6741TIP3    H241715   3.537   1.256  14.881 -1.9438 -1.3466 -0.0447
 6742TIP3   OH241716   4.100   0.638  13.236  0.5164  0.5269 -0.5329
 6742TIP3    H141717   4.022   0.593  13.204  0.2419 -0.4093  1.2953
 6742TIP3    H241718   4.106   0.717  13.183 -1.0256  0.0716 -1.4526
 6743TIP3   OH241719   0.123   0.329   1.217  0.1834 -0.0743  0.3311
 6743TIP3    H141720   0.038   0.373   1.224  0.5414  0.6265  0.3047
 6743TIP3    H241721   0.167   0.349   1.299 -0.2162 -1.6349  0.9759
 6744TIP3   OH241722   4.827   3.576   2.068 -0.4924  1.0132 -0.0719
 6744TIP3    H141723   4.907   3.530   2.092 -0.2082  1.8905  0.7165
 6744TIP3    H241724   4.774   3.510   2.023 -0.0044 -0.0095  0.8147
 6745TIP3   OH241725   1.357   0.153   1.898 -0.1852  0.1777  0.1885
 6745TIP3    H141726   1.400   0.072   1.924  0.6752  0.2610 -0.9050
 6745TIP3    H241727   1.267   0.127   1.876  0.1365 -0.5110 -0.3233
 6746TIP3   OH241728   2.705   0.085  13.609  0.0990  0.0090  0.2128
 6746TIP3    H141729   2.737   0.005  13.566  0.6167  0.4998 -0.3303
 6746TIP3    H241730   2.712   0.152  13.542 -0.1707  0.5547  0.7238
 6747TIP3   OH241731   6.187   3.306   0.588 -0.0474  0.3831  0.2247
 6747TIP3    H141732   6.153   3.387   0.627  0.4779  0.9498 -0.4745
 6747TIP3    H241733   6.278   3.302   0.617 -0.2684 -0.3632  0.8720
 6748TIP3   OH241734   5.655   0.347   5.288  0.0777 -0.0265  0.6431
 6748TIP3    H141735   5.693   0.351   5.200 -1.2673 -1.0932 -0.0328
 6748TIP3    H241736   5.644   0.438   5.314  0.1736  0.3126 -0.4537
 6749TIP3   OH241737   2.803   4.458   2.974 -0.2026  0.4625 -0.2315
 6749TIP3    H141738   2.891   4.427   2.998 -0.3161  1.2451  1.3415
 6749TIP3    H241739   2.744   4.399   3.020 -0.5278 -0.3046 -1.6055
 6750TIP3   OH241740   6.814   2.357  14.616 -0.3569 -0.2957 -0.4315
 6750TIP3    H141741   6.876   2.390  14.681  0.6073 -1.4101 -0.7623
 6750TIP3    H241742   6.728   2.372  14.656  0.1571  0.4891  0.4043
 6751TIP3   OH241743   0.288   3.705   3.641 -0.4208  0.5002  0.5691
 6751TIP3    H141744   0.238   3.637   3.596  0.9106  0.2349 -0.6184
 6751TIP3    H241745   0.377   3.697   3.604  1.1610 -0.6336  4.2222
 6752TIP3   OH241746   3.404   6.800   5.974 -0.1975  0.1469 -0.0535
 6752TIP3    H141747   3.465   6.814   5.902 -0.6186  3.8921  0.1278
 6752TIP3    H241748   3.459   6.782   6.050  0.4887  0.4471 -0.4789
 6753TIP3   OH241749   4.605   2.298   6.566  0.3472 -0.4732 -0.4288
 6753TIP3    H141750   4.625   2.375   6.618  0.9817 -0.0113 -1.3329
 6753TIP3    H241751   4.542   2.249   6.619 -1.3090  1.4380 -0.5227
 6754TIP3   OH241752   1.425   3.685  15.376 -0.3993 -0.3722 -0.2635
 6754TIP3    H141753   1.450   3.761  15.324 -1.5030  0.2814  0.1325
 6754TIP3    H241754   1.340   3.708  15.414 -0.3066 -1.4162  0.6433
 6755TIP3   OH241755   4.390   4.685   6.210  0.1739 -0.1836 -0.1719
 6755TIP3    H141756   4.340   4.746   6.264  2.3587  1.0483  0.5819
 6755TIP3    H241757   4.382   4.601   6.256 -1.8958 -0.2596 -0.5800
 6756TIP3   OH241758   1.378   0.455  14.113  0.4595  0.0211  0.5071
 6756TIP3    H141759   1.305   0.507  14.078  0.6575 -0.3324 -0.4766
 6756TIP3    H241760   1.399   0.394  14.042  2.3211  0.7333  0.4110
 6757TIP3   OH241761   6.589   4.456   2.360 -0.4105  0.0571 -0.0076
 6757TIP3    H141762   6.580   4.447   2.265 -0.4517 -2.7560  0.1862
 6757TIP3    H241763   6.593   4.551   2.375 -1.5171  0.6042 -2.6824
 6758TIP3   OH241764   1.786   0.690  15.999  0.2145  0.1378 -0.3003
 6758TIP3    H141765   1.737   0.695  15.917 -0.5737  0.2646  0.1601
 6758TIP3    H241766   1.757   0.609  16.039 -1.2923  1.2485  0.9842
 6759TIP3   OH241767   4.635   0.038  13.806 -0.0621  0.8539 -0.2976
 6759TIP3    H141768   4.711   0.094  13.796 -0.0961  0.8192 -0.7871
 6759TIP3    H241769   4.658  -0.042  13.758 -0.4338  0.8721 -0.5085
 6760TIP3   OH241770   5.360   4.488  11.030 -0.0127 -0.0567  0.4557
 6760TIP3    H141771   5.342   4.520  10.942  0.7417  1.4886  0.8213
 6760TIP3    H241772   5.451   4.513  11.047  0.4010 -1.8036  1.0757
 6761TIP3   OH241773   6.305   0.793  10.583 -0.7614 -0.3385  0.2752
 6761TIP3    H141774   6.331   0.885  10.585  0.7277 -0.7142 -0.6280
 6761TIP3    H241775   6.213   0.794  10.612 -0.0188  1.1166  2.8315
 6762TIP3   OH241776   2.632   1.527  15.285 -0.0291 -0.3712  0.0634
 6762TIP3    H141777   2.681   1.452  15.252  1.5633  1.2831 -1.6187
 6762TIP3    H241778   2.617   1.507  15.377 -1.1819 -3.4637 -0.6700
 6763TIP3   OH241779   4.354   5.390  16.824  0.0900  0.5211  0.0387
 6763TIP3    H141780   4.368   5.468  16.878  1.2826  0.5607 -0.3241
 6763TIP3    H241781   4.408   5.322  16.864 -0.7026 -0.0604  0.1683
 6764TIP3   OH241782   2.008   5.263   3.201 -0.7579  0.3362 -0.7284
 6764TIP3    H141783   1.929   5.309   3.173 -1.4922 -1.1268 -1.1702
 6764TIP3    H241784   2.041   5.314   3.274 -2.4322  0.6848 -0.1644
 6765TIP3   OH241785   1.833   0.797  14.520 -0.6276  0.4632 -0.1707
 6765TIP3    H141786   1.799   0.866  14.577  2.7070  0.6802  1.8351
 6765TIP3    H241787   1.835   0.719  14.575 -1.5344 -0.5069 -1.4697
 6766TIP3   OH241788   4.488   5.881   2.716  0.1115  0.0051  0.4057
 6766TIP3    H141789   4.544   5.940   2.767  0.8796 -1.4881  1.3429
 6766TIP3    H241790   4.399   5.906   2.740  0.4477 -0.1799  1.9459
 6767TIP3   OH241791   2.808   0.352   6.520  0.1532  0.2279 -0.2703
 6767TIP3    H141792   2.787   0.299   6.442 -0.5065 -1.3322  0.9015
 6767TIP3    H241793   2.902   0.369   6.513 -0.1742  1.5572 -2.2258
 6768TIP3   OH241794   3.848   1.498  13.266 -0.3797 -0.4380 -0.1027
 6768TIP3    H141795   3.813   1.481  13.178 -2.2850 -2.0407  0.8882
 6768TIP3    H241796   3.819   1.588  13.285 -0.3566 -0.2465 -0.9189
 6769TIP3   OH241797   6.575   4.893  11.112  0.4350 -0.0173 -0.4316
 6769TIP3    H141798   6.518   4.836  11.061  0.0828 -0.9622  0.9417
 6769TIP3    H241799   6.664   4.862  11.092  0.4521  0.9132 -1.9336
 6770TIP3   OH241800   0.457   1.268  16.348 -0.6347 -0.2349  0.0371
 6770TIP3    H141801   0.527   1.329  16.368  1.2340 -1.7340 -1.5763
 6770TIP3    H241802   0.386   1.292  16.408  1.3146  1.1881  1.8914
 6771TIP3   OH241803   0.424   2.431  12.021  0.0947  0.0423  1.0334
 6771TIP3    H141804   0.513   2.401  12.039  0.4683  0.0344 -0.6680
 6771TIP3    H241805   0.401   2.390  11.937 -1.0882  0.9040  0.9107
 6772TIP3   OH241806   1.185   3.492   3.405 -0.6052  0.1102 -0.3365
 6772TIP3    H141807   1.131   3.436   3.461 -0.4135  0.6279  0.3896
 6772TIP3    H241808   1.275   3.468   3.429 -0.4713 -1.2070 -1.9951
 6773TIP3   OH241809   1.249   6.819   5.280 -0.2854 -0.3792  0.1067
 6773TIP3    H141810   1.299   6.880   5.227 -0.0970 -0.5039  0.1404
 6773TIP3    H241811   1.164   6.813   5.237 -0.4198  0.1598  0.2867
 6774TIP3   OH241812   1.599   4.770   5.600  0.5053 -0.6427  0.0748
 6774TIP3    H141813   1.669   4.799   5.658  0.6823  2.3784 -1.4622
 6774TIP3    H241814   1.633   4.788   5.512 -2.5983  2.2235 -0.7182
 6775TIP3   OH241815   1.882   1.531  14.111  0.7425 -0.2897  0.1315
 6775TIP3    H141816   1.946   1.589  14.072  0.8050 -1.5743 -1.8105
 6775TIP3    H241817   1.925   1.445  14.114 -0.4408 -0.9307 -0.1178
 6776TIP3   OH241818   0.047   4.106   5.501  0.2581 -0.5005  0.6203
 6776TIP3    H141819   0.033   4.011   5.493  0.2017 -0.4492  0.0738
 6776TIP3    H241820  -0.041   4.143   5.494  0.2611 -0.4155  1.0108
 6777TIP3   OH241821   3.442   5.812   4.315 -0.3483 -0.4415 -0.3125
 6777TIP3    H141822   3.461   5.786   4.405 -1.7172  1.8466  0.7053
 6777TIP3    H241823   3.492   5.750   4.262  0.6507 -1.7446  1.9923
 6778TIP3   OH241824   3.451   1.631  14.884  0.2345 -0.2430  0.5179
 6778TIP3    H141825   3.376   1.651  14.940  0.0135  1.3875 -0.2784
 6778TIP3    H241826   3.469   1.539  14.899 -1.1572 -0.3657  1.6518
 6779TIP3   OH241827   4.667   5.904  11.587  0.2735  0.0625  0.2674
 6779TIP3    H141828   4.618   5.986  11.585  2.4706  1.4688  0.2459
 6779TIP3    H241829   4.640   5.861  11.668 -1.3562  0.4740 -0.0169
 6780TIP3   OH241830   4.874   1.587   5.048  0.4882 -0.4120 -0.1774
 6780TIP3    H141831   4.922   1.601   4.967 -0.4093 -1.5205 -0.9363
 6780TIP3    H241832   4.782   1.582   5.020  0.1572 -0.6913  0.9213
 6781TIP3   OH241833   0.593   2.994   2.884  0.2654 -0.2359 -0.6499
 6781TIP3    H141834   0.569   2.922   2.942 -2.0841 -0.2461 -1.5397
 6781TIP3    H241835   0.681   2.971   2.853 -0.4365 -2.7778 -0.9645
 6782TIP3   OH241836   4.841   3.757  12.175 -0.0968 -0.4424 -0.0768
 6782TIP3    H141837   4.806   3.733  12.261 -1.3166 -0.2829 -0.5166
 6782TIP3    H241838   4.872   3.674  12.138  1.0432 -0.4201  0.7592
 6783TIP3   OH241839   0.788   0.305  11.168  0.8868 -0.3394  0.2551
 6783TIP3    H141840   0.840   0.286  11.090 -1.4865  0.6251 -1.7413
 6783TIP3    H241841   0.776   0.220  11.211  2.9133 -0.7635  0.0484
 6784TIP3   OH241842   5.449   4.886   4.880  1.0332  0.5209 -0.3185
 6784TIP3    H141843   5.407   4.802   4.858 -0.5559  1.3973 -0.8197
 6784TIP3    H241844   5.542   4.868   4.873  0.7734 -1.4392  0.4311
 6785TIP3   OH241845   5.043   1.569  12.369 -0.1199 -0.4336  0.3716
 6785TIP3    H141846   5.017   1.568  12.462  1.1049 -0.6101  0.7229
 6785TIP3    H241847   5.063   1.478  12.349  0.5005 -0.2565  0.1883
 6786TIP3   OH241848   6.554   5.336  15.510 -0.6154  0.2100 -0.8757
 6786TIP3    H141849   6.553   5.275  15.436 -1.4871 -0.6966 -0.1586
 6786TIP3    H241850   6.642   5.328  15.547 -0.6262 -0.3966 -0.9726
 6787TIP3   OH241851   1.408   1.213   0.383 -0.5189 -0.0621  0.3781
 6787TIP3    H141852   1.465   1.152   0.336 -0.1631  1.1594 -0.8829
 6787TIP3    H241853   1.349   1.158   0.434 -0.2807 -1.4550 -0.7794
 6788TIP3   OH241854   6.518   4.101   3.581 -0.5756  0.3434  0.0983
 6788TIP3    H141855   6.460   4.166   3.540 -0.3058  1.1486  0.9541
 6788TIP3    H241856   6.479   4.017   3.558 -1.6215  0.8393 -0.0303
 6789TIP3   OH241857   5.431   2.944   5.761 -0.4402  0.2417 -0.1737
 6789TIP3    H141858   5.419   2.996   5.681  0.1337 -0.2621 -0.5938
 6789TIP3    H241859   5.366   2.874   5.754  0.2330 -0.3487 -0.6657
 6790TIP3   OH241860   0.833   6.412  15.605  0.4705 -0.5337  0.1963
 6790TIP3    H141861   0.868   6.485  15.553  2.1940 -0.3333  1.5721
 6790TIP3    H241862   0.875   6.420  15.690 -1.9374 -1.1279  1.5297
 6791TIP3   OH241863   2.147   6.352   3.668 -0.1405  0.6826 -0.2545
 6791TIP3    H141864   2.060   6.385   3.647  0.5817  2.4797 -0.6409
 6791TIP3    H241865   2.137   6.306   3.751 -1.1740  2.3084  0.5648
 6792TIP3   OH241866   4.511   5.774   1.880  0.6210 -0.3269  0.0999
 6792TIP3    H141867   4.504   5.682   1.857 -1.3695  0.0155 -0.9568
 6792TIP3    H241868   4.602   5.797   1.862  0.5770 -1.5299 -1.9057
 6793TIP3   OH241869   6.244   4.867  11.206 -0.0014  0.1692  0.3484
 6793TIP3    H141870   6.282   4.910  11.129 -0.6160  0.9841  0.4902
 6793TIP3    H241871   6.312   4.806  11.236  0.8519  0.9824  0.0924
 6794TIP3   OH241872   5.392   2.885  14.072  0.1835 -0.1479  0.0114
 6794TIP3    H141873   5.416   2.807  14.022  0.2256  0.2210 -0.5519
 6794TIP3    H241874   5.311   2.860  14.117  0.0498 -0.4265 -0.3762
 6795TIP3   OH241875   6.837   6.331  16.841  0.7663  0.6783 -0.0583
 6795TIP3    H141876   6.751   6.331  16.882  0.2055  0.7423 -1.1874
 6795TIP3    H241877   6.830   6.396  16.771  0.9328 -1.0048 -1.7264
 6796TIP3   OH241878   2.774   0.682   1.928  0.1382  0.2686  0.1645
 6796TIP3    H141879   2.682   0.707   1.923  0.0709  0.1609  0.8011
 6796TIP3    H241880   2.795   0.649   1.840 -0.5743 -0.2167  0.1679
 6797TIP3   OH241881   1.212   4.233   1.189  0.8954  0.3030  0.2453
 6797TIP3    H141882   1.231   4.290   1.114  0.3453  0.9787  0.6079
 6797TIP3    H241883   1.147   4.171   1.156 -0.2750  1.3606  0.4652
 6798TIP3   OH241884   1.408   5.332   2.833 -0.1103  0.1597  0.2895
 6798TIP3    H141885   1.416   5.425   2.810 -2.1217  0.3621  0.2098
 6798TIP3    H241886   1.470   5.320   2.905  1.1643  1.2172 -0.5734
 6799TIP3   OH241887   1.719   1.416  15.120 -0.5479 -0.3115  0.2586
 6799TIP3    H141888   1.708   1.323  15.097 -0.8978  0.1948 -1.7967
 6799TIP3    H241889   1.644   1.459  15.080  0.4886  1.0773 -0.2535
 6800TIP3   OH241890   3.991   1.169   1.167  0.8596  0.2513  0.4013
 6800TIP3    H141891   3.990   1.254   1.211  0.2759  1.3848 -1.6889
 6800TIP3    H241892   3.924   1.176   1.099  2.8026 -0.7856 -1.7419
 6801TIP3   OH241893   5.878   5.146  16.367 -0.1306  0.8520 -0.9162
 6801TIP3    H141894   5.804   5.144  16.306  0.3430  0.7236 -1.4959
 6801TIP3    H241895   5.838   5.133  16.453 -0.5695 -1.4235 -1.4125
 6802TIP3   OH241896   4.577   6.612  11.691  0.4159  0.4352  0.3918
 6802TIP3    H141897   4.649   6.641  11.747  0.3793  3.4027 -0.8997
 6802TIP3    H241898   4.553   6.690  11.641 -2.8662 -0.7758 -0.1659
 6803TIP3   OH241899   2.914   4.220  10.716  0.1855  0.1355  0.1976
 6803TIP3    H141900   2.882   4.184  10.633 -0.9124 -1.1505  1.1387
 6803TIP3    H241901   3.000   4.181  10.728  0.4313  0.4717 -0.4093
 6804TIP3   OH241902   4.383   5.645   3.427  0.5347 -0.0784  0.0029
 6804TIP3    H141903   4.447   5.581   3.397  0.9624  0.5450 -0.4521
 6804TIP3    H241904   4.300   5.598   3.429  0.5216 -0.2100 -1.9780
 6805TIP3   OH241905   1.967   3.706  11.367 -0.3638  0.8087 -0.1964
 6805TIP3    H141906   1.992   3.615  11.349 -0.7697  0.4700  0.8883
 6805TIP3    H241907   1.920   3.734  11.288 -2.4904 -0.7655  0.4196
 6806TIP3   OH241908   5.392   6.252   2.855  0.3521  0.5239  0.0674
 6806TIP3    H141909   5.404   6.236   2.948 -2.3378 -0.4746  0.3419
 6806TIP3    H241910   5.416   6.344   2.842  3.8971 -0.1247  1.0153
 6807TIP3   OH241911   6.644   4.350   0.610 -0.0978 -0.0054  0.2215
 6807TIP3    H141912   6.552   4.353   0.638 -0.1070  0.1802  0.1710
 6807TIP3    H241913   6.691   4.322   0.689 -0.2692 -0.7388  0.0704
 6808TIP3   OH241914   0.228   5.529  15.535 -0.0798 -0.3229 -0.2999
 6808TIP3    H141915   0.224   5.471  15.459  2.0905 -1.6542  0.5005
 6808TIP3    H241916   0.263   5.475  15.605  0.8000  1.6095  0.8532
 6809TIP3   OH241917   3.251   6.047   2.586  0.2148 -0.0759  0.4178
 6809TIP3    H141918   3.201   6.128   2.584 -2.2321 -1.5001  0.1755
 6809TIP3    H241919   3.332   6.069   2.632 -1.6493  1.8025  3.0330
 6810TIP3   OH241920   1.219   2.793  11.861  0.3962 -0.7051  0.6220
 6810TIP3    H141921   1.234   2.886  11.875  0.4115 -0.1216 -2.5196
 6810TIP3    H241922   1.125   2.782  11.873 -0.1534  0.4477 -1.9138
 6811TIP3   OH241923   6.168   6.154   1.202 -0.4809  0.0874 -0.0879
 6811TIP3    H141924   6.254   6.143   1.161  0.5133  1.0126  1.6210
 6811TIP3    H241925   6.186   6.205   1.281 -2.5037 -0.3308  0.6994
 6812TIP3   OH241926   2.642   6.562  11.549  0.5612  0.0355 -0.2276
 6812TIP3    H141927   2.652   6.475  11.511 -2.1867  0.7270 -2.8992
 6812TIP3    H241928   2.731   6.595  11.558  1.5342 -1.9051 -2.0143
 6813TIP3   OH241929   1.857   4.723   4.925 -0.3089  0.3069  0.1067
 6813TIP3    H141930   1.862   4.742   4.831  0.3789 -0.2881  0.0084
 6813TIP3    H241931   1.884   4.631   4.932 -2.2973 -0.2660  0.6832
 6814TIP3   OH241932   5.101   1.995   4.652  0.1383  0.3934  0.6949
 6814TIP3    H141933   5.088   2.083   4.617  1.1692  0.3923  0.2895
 6814TIP3    H241934   5.193   1.974   4.633  0.0012 -0.6360  1.0862
 6815TIP3   OH241935   1.436   3.276  10.876  0.1506  0.0382  0.3503
 6815TIP3    H141936   1.413   3.198  10.826  0.3268  0.7083 -0.7920
 6815TIP3    H241937   1.354   3.323  10.887  0.2504  0.3089 -0.0442
 6816TIP3   OH241938   2.932   2.988  15.747  0.2258  0.0257 -0.0737
 6816TIP3    H141939   2.944   2.895  15.769 -0.6814  0.2011  1.2388
 6816TIP3    H241940   2.929   3.032  15.831  2.6309  1.5532 -0.6787
 6817TIP3   OH241941   5.325   2.336   2.651  0.0883 -0.0133  0.8328
 6817TIP3    H141942   5.305   2.407   2.712 -0.0870 -1.1057  2.0885
 6817TIP3    H241943   5.254   2.337   2.588 -0.3030  0.4595  1.2726
 6818TIP3   OH241944   1.478   2.504   5.550 -0.0209 -0.5556 -0.1060
 6818TIP3    H141945   1.542   2.570   5.577 -0.1199 -0.7841  0.7231
 6818TIP3    H241946   1.394   2.538   5.582  0.1901 -2.0704  2.2962
 6819TIP3   OH241947   5.433   5.352   0.831 -0.5679 -0.1043 -0.2134
 6819TIP3    H141948   5.417   5.260   0.810  0.2951  0.2605 -2.7831
 6819TIP3    H241949   5.528   5.357   0.842 -0.5709  0.5289 -0.4353
 6820TIP3   OH241950   5.930   1.051  15.732  0.5209 -0.0357  0.3068
 6820TIP3    H141951   5.977   1.091  15.805  1.6146 -1.2020  0.2615
 6820TIP3    H241952   5.983   1.073  15.655 -0.0449  0.2559 -0.0077
 6821TIP3   OH241953   3.116   0.788   2.311 -0.3970  0.4330  0.4164
 6821TIP3    H141954   3.157   0.702   2.319  0.3352  0.6089 -1.1145
 6821TIP3    H241955   3.034   0.771   2.265  0.3515  0.6720 -1.0716
 6822TIP3   OH241956   2.773   2.741  11.698 -0.2272  0.5110  0.1677
 6822TIP3    H141957   2.757   2.753  11.605 -1.0856  1.8173  0.4600
 6822TIP3    H241958   2.704   2.681  11.727 -0.7716  1.1506  0.2093
 6823TIP3   OH241959   0.291   3.291  17.041 -0.5035 -0.3802  0.6409
 6823TIP3    H141960   0.289   3.202  17.006 -0.7211  0.1380 -0.7092
 6823TIP3    H241961   0.201   3.309  17.067 -1.2031  0.5728 -2.1241
 6824TIP3   OH241962   2.566   1.612   5.937  0.1149  0.0454  0.0435
 6824TIP3    H141963   2.566   1.595   6.032  0.8709  1.0048  0.2213
 6824TIP3    H241964   2.644   1.567   5.905 -0.3617 -0.6317 -0.2131
 6825TIP3   OH241965   1.693   3.047   2.592  0.3467  0.3891  0.0045
 6825TIP3    H141966   1.667   3.107   2.661 -0.7903 -1.3266  1.1372
 6825TIP3    H241967   1.750   2.983   2.636  2.3088  1.1112 -1.3571
 6826TIP3   OH241968   5.200   4.902  12.341  0.0932 -0.1955 -0.2160
 6826TIP3    H141969   5.115   4.925  12.302  1.3400 -0.4898 -3.3739
 6826TIP3    H241970   5.257   4.975  12.319  0.8409 -0.1918  1.5352
 6827TIP3   OH241971   3.336   4.266   1.968 -0.4947  0.0657 -0.2158
 6827TIP3    H141972   3.302   4.201   1.907 -3.7232  2.1581 -0.9077
 6827TIP3    H241973   3.282   4.254   2.047  1.2101 -0.2643  0.9499
 6828TIP3   OH241974   3.290   2.859   4.005 -0.0575 -0.0790 -0.5051
 6828TIP3    H141975   3.370   2.911   4.002 -0.0912  0.0569  0.6278
 6828TIP3    H241976   3.293   2.814   4.089 -2.0124  1.3195  0.3857
 6829TIP3   OH241977   2.293   0.760   6.089  0.4067  0.1870  0.3078
 6829TIP3    H141978   2.351   0.694   6.127  1.0907  0.9362  0.5993
 6829TIP3    H241979   2.220   0.710   6.052  2.2776 -0.9773 -2.0362
 6830TIP3   OH241980   3.215   5.071   1.082  0.9980  0.1994  0.3653
 6830TIP3    H141981   3.246   5.025   1.004 -1.6648 -2.8184  0.8748
 6830TIP3    H241982   3.192   5.159   1.050  0.0580 -0.8934 -2.2934
 6831TIP3   OH241983   2.253   3.086  13.324 -0.3604 -0.0105 -0.0542
 6831TIP3    H141984   2.281   3.138  13.250  0.0447  0.1957  0.2421
 6831TIP3    H241985   2.285   2.998  13.305  0.8546  0.2968  0.4626
 6832TIP3   OH241986   2.545   6.431   3.969  0.0101 -0.3428 -0.5498
 6832TIP3    H141987   2.598   6.456   4.045  0.7564 -0.8626 -0.8729
 6832TIP3    H241988   2.475   6.377   4.006  0.9554 -1.4674 -0.2996
 6833TIP3   OH241989   1.798   4.876  12.510  0.2661 -0.6875  0.5485
 6833TIP3    H141990   1.874   4.821  12.530  0.9462  0.6390  1.7581
 6833TIP3    H241991   1.748   4.879  12.592  0.6576  1.1043  0.7583
 6834TIP3   OH241992   1.224   4.615   0.556 -0.3542 -0.3616 -0.0270
 6834TIP3    H141993   1.151   4.581   0.607 -0.5462  1.8857  1.3344
 6834TIP3    H241994   1.198   4.603   0.465 -1.9642 -0.5319  0.4295
 6835TIP3   OH241995   6.469   2.111   3.328  0.3910 -0.2338 -0.4145
 6835TIP3    H141996   6.526   2.036   3.344 -0.0831 -0.4837  0.1540
 6835TIP3    H241997   6.468   2.120   3.232  1.0337 -0.4947 -0.4475
 6836TIP3   OH241998   0.961   1.704   2.949  0.2972  0.7420 -0.3180
 6836TIP3    H141999   1.027   1.730   3.012  0.9440 -0.9737 -0.2292
 6836TIP3    H242000   1.009   1.688   2.868  0.0077 -0.3916 -0.2914
 6837TIP3   OH242001   1.726   1.873   5.246  0.2399 -0.1459  0.2989
 6837TIP3    H142002   1.772   1.807   5.194  0.0340 -1.3280  1.5563
 6837TIP3    H242003   1.747   1.851   5.337  0.4921  1.7854  0.7440
 6838TIP3   OH242004   4.857   5.166   1.759  0.0118  0.4491  0.7253
 6838TIP3    H142005   4.835   5.139   1.848 -0.0690  2.0586  1.2333
 6838TIP3    H242006   4.876   5.085   1.713 -1.1557 -0.5114  1.8768
 6839TIP3   OH242007   3.446   3.218  14.169 -0.2375  0.2112 -1.1271
 6839TIP3    H142008   3.424   3.249  14.257  1.2323 -1.8424  0.0557
 6839TIP3    H242009   3.362   3.215  14.123 -1.1480  0.6152  0.4455
 6840TIP3   OH242010   4.706   1.880  11.287  0.2189 -0.1145 -0.6747
 6840TIP3    H142011   4.763   1.818  11.242 -1.2197 -1.6112 -0.5063
 6840TIP3    H242012   4.703   1.956  11.228  2.8125  0.2946 -0.3999
 6841TIP3   OH242013   1.547   0.641  14.265  0.2270 -0.2686 -0.3256
 6841TIP3    H142014   1.623   0.587  14.245  0.4451 -0.1071  0.0552
 6841TIP3    H242015   1.472   0.591  14.233  0.3356 -1.2218  0.8243
 6842TIP3   OH242016   4.108   1.856  12.746 -0.0116 -0.3435 -0.7174
 6842TIP3    H142017   4.193   1.813  12.738 -0.0261 -0.2106 -1.6656
 6842TIP3    H242018   4.105   1.917  12.673 -1.1131 -0.6776 -0.9740
 6843TIP3   OH242019   6.525   6.749  12.331 -0.8072  0.0790  0.0891
 6843TIP3    H142020   6.597   6.692  12.307  0.1533  1.2727  0.0664
 6843TIP3    H242021   6.505   6.725  12.421 -0.3486 -0.2086  0.1191
 6844TIP3   OH242022   3.744   4.804   1.268 -0.3644  0.2736  0.1183
 6844TIP3    H142023   3.715   4.855   1.192  0.1971  0.9899  0.3696
 6844TIP3    H242024   3.715   4.854   1.344 -0.0664  0.0696  0.3708
 6845TIP3   OH242025   0.843   3.804   4.621  0.0334  0.3453 -0.2660
 6845TIP3    H142026   0.776   3.869   4.600 -1.4537 -1.3206 -1.0262
 6845TIP3    H242027   0.831   3.736   4.554  0.8187 -1.1778  1.0748
 6846TIP3   OH242028   6.157   2.639  14.008  0.1030  0.2915 -0.4947
 6846TIP3    H142029   6.099   2.664  14.080  1.3535  0.4733  0.4874
 6846TIP3    H242030   6.098   2.621  13.935 -1.5430 -3.0784  1.3981
 6847TIP3   OH242031   6.822   2.084   5.825  0.6767 -0.5458  0.1323
 6847TIP3    H142032   6.895   2.102   5.766  0.9155 -0.0577  0.5678
 6847TIP3    H242033   6.789   2.171   5.849 -0.1490 -0.7662 -0.1833
 6848TIP3   OH242034   4.985   4.218   5.580 -0.4078  0.3253  0.4450
 6848TIP3    H142035   5.008   4.222   5.673 -0.3636  1.7384  0.4000
 6848TIP3    H242036   5.014   4.302   5.545 -1.0026  0.0668 -0.7130
 6849TIP3   OH242037   2.824   4.005  14.177  0.2319 -0.1595 -0.0002
 6849TIP3    H142038   2.758   3.972  14.116  0.0987 -1.7604  0.9652
 6849TIP3    H242039   2.888   4.049  14.121  0.2503 -1.7812 -1.3388
 6850TIP3   OH242040   0.780   4.377  15.903  0.3131  0.3394 -0.5467
 6850TIP3    H142041   0.808   4.323  15.977  1.1698 -0.1251 -1.1921
 6850TIP3    H242042   0.706   4.427  15.937  0.2947 -0.3202  0.4387
 6851TIP3   OH242043   4.806   4.068  12.409  0.2326 -0.4504  0.0048
 6851TIP3    H142044   4.718   4.033  12.420  0.3627 -1.6198 -2.2246
 6851TIP3    H242045   4.829   4.048  12.319  2.9411 -0.5261  0.6221
 6852TIP3   OH242046   3.707   3.888   1.786  0.8164  0.0764 -1.0174
 6852TIP3    H142047   3.692   3.828   1.859  0.5002  0.1446 -1.0235
 6852TIP3    H242048   3.666   3.970   1.814  0.5520  0.0582 -1.3336
 6853TIP3   OH242049   6.797   6.097  12.485  0.6463 -0.2518 -0.3785
 6853TIP3    H142050   6.749   6.179  12.490 -0.2213 -0.7779  0.0654
 6853TIP3    H242051   6.886   6.120  12.510  0.2516  0.4150  0.4552
 6854TIP3   OH242052   1.232   5.575  11.819 -0.1981  0.2624 -0.0480
 6854TIP3    H142053   1.248   5.521  11.896 -0.6824 -0.6543 -0.5720
 6854TIP3    H242054   1.312   5.568  11.768  0.6005  1.8459  0.9077
 6855TIP3   OH242055   3.368   3.402  12.085 -0.1797  0.1080  0.6026
 6855TIP3    H142056   3.357   3.386  11.991  0.6392 -1.4826  0.7419
 6855TIP3    H242057   3.434   3.471  12.090 -0.6978  0.6602  0.0083
 6856TIP3   OH242058   3.538   6.201  16.845 -0.5861 -0.0351 -0.1442
 6856TIP3    H142059   3.612   6.250  16.811 -1.2077 -0.9361 -3.0692
 6856TIP3    H242060   3.574   6.117  16.873  0.0082  0.8932  2.1159
 6857TIP3   OH242061   3.764   2.200   4.961  0.2018 -0.2328 -0.3952
 6857TIP3    H142062   3.720   2.263   5.018  0.5739 -1.6340  1.5275
 6857TIP3    H242063   3.726   2.216   4.875 -1.4165  1.0418  0.4934
 6858TIP3   OH242064   6.410   6.066  15.784 -0.5215  0.0014 -0.5167
 6858TIP3    H142065   6.323   6.050  15.820 -1.8197  1.8097 -2.6121
 6858TIP3    H242066   6.437   6.150  15.821  0.7844 -0.9153  0.7610
 6859TIP3   OH242067   3.172   1.213  12.997 -0.8401 -0.7428 -0.3551
 6859TIP3    H142068   3.252   1.232  12.947 -0.5981 -1.1357 -0.1163
 6859TIP3    H242069   3.179   1.268  13.075 -1.4468  0.2359 -0.9674
 6860TIP3   OH242070   0.007   0.946  14.466  0.3070 -0.2655  0.2078
 6860TIP3    H142071  -0.031   0.883  14.405  2.1898 -0.3549 -0.9736
 6860TIP3    H242072   0.035   0.893  14.541 -0.9461 -0.3327  0.6453
 6861TIP3   OH242073   3.436   3.353   4.496  0.4183  0.0709 -0.1965
 6861TIP3    H142074   3.450   3.431   4.551  1.2779  0.2939 -0.7157
 6861TIP3    H242075   3.412   3.285   4.558 -4.0718  1.5244  0.0029
 6862TIP3   OH242076   2.020   2.482  12.960 -0.5516 -0.1333 -0.0474
 6862TIP3    H142077   1.938   2.454  13.001 -0.9330  1.8188  0.6154
 6862TIP3    H242078   1.993   2.525  12.879 -0.1215 -0.0274 -0.1375
 6863TIP3   OH242079   2.692   0.159   5.853 -0.0261  0.1704  0.1187
 6863TIP3    H142080   2.788   0.163   5.851 -0.0671  1.4721 -0.0008
 6863TIP3    H242081   2.670   0.147   5.945  0.2832 -1.9559 -0.0425
 6864TIP3   OH242082   1.277   5.297  14.080  0.3581  0.3691 -0.3274
 6864TIP3    H142083   1.337   5.343  14.139  0.0746  0.8908 -0.4439
 6864TIP3    H242084   1.307   5.320  13.992 -0.3136  1.0397 -0.3892
 6865TIP3   OH242085   0.694   3.221   1.878  0.1142  0.4359 -0.3830
 6865TIP3    H142086   0.766   3.163   1.904 -0.0828  0.3213 -0.0780
 6865TIP3    H242087   0.721   3.258   1.794  0.1823 -0.2096 -0.6550
 6866TIP3   OH242088   1.390   1.394   2.513  0.0109 -0.3576 -0.1582
 6866TIP3    H142089   1.407   1.466   2.452 -1.2889 -0.2110 -0.3912
 6866TIP3    H242090   1.418   1.427   2.598  0.8039 -0.1424 -0.5012
 6867TIP3   OH242091   0.098   4.186   1.423  0.2545  0.3683  0.3696
 6867TIP3    H142092   0.120   4.134   1.500  0.4640 -1.1223 -0.6413
 6867TIP3    H242093   0.165   4.162   1.358  0.6192  2.2471 -0.0310
 6868TIP3   OH242094   5.319   1.599   4.496 -0.1555  0.5064  0.4387
 6868TIP3    H142095   5.315   1.573   4.404  2.1703 -1.9295  0.8994
 6868TIP3    H242096   5.359   1.686   4.494  0.6215  0.1668 -0.8708
 6869TIP3   OH242097   0.822   5.670  13.499 -0.6359 -0.2668 -0.3755
 6869TIP3    H142098   0.755   5.602  13.507  0.0269 -0.8710  0.1801
 6869TIP3    H242099   0.857   5.659  13.411 -1.2765  0.0754 -0.6825
 6870TIP3   OH242100   1.208   2.451   2.239  0.2464  0.0953 -0.5493
 6870TIP3    H142101   1.228   2.544   2.248  1.6074 -0.1309 -0.8985
 6870TIP3    H242102   1.114   2.445   2.252  0.4104  1.2397  1.6409
 6871TIP3   OH242103   4.734   1.808   1.015  1.0160 -0.0012  0.6922
 6871TIP3    H142104   4.757   1.777   1.103  0.3921  1.6530  1.4788
 6871TIP3    H242105   4.812   1.790   0.962  1.5175 -0.7472  1.6564
 6872TIP3   OH242106   3.195   2.037  12.682  0.1529  0.5560 -0.1067
 6872TIP3    H142107   3.240   1.961  12.647  1.4608  1.4743 -0.5024
 6872TIP3    H242108   3.146   2.072  12.608 -0.8160 -0.1380  0.1891
 6873TIP3   OH242109   6.489   5.697   4.022 -0.5397  0.2519 -0.1801
 6873TIP3    H142110   6.576   5.676   3.987 -0.7495 -1.7324  0.3828
 6873TIP3    H242111   6.432   5.697   3.945 -0.5869 -1.7682 -0.1906
 6874TIP3   OH242112   3.793   0.372   6.344  0.0287  0.4821 -0.4879
 6874TIP3    H142113   3.883   0.341   6.340 -0.4265 -1.2716  1.4135
 6874TIP3    H242114   3.750   0.331   6.270 -0.0103 -1.7114  0.6792
 6875TIP3   OH242115   6.029   5.120   2.825 -0.0511 -0.3488  0.2782
 6875TIP3    H142116   5.969   5.150   2.758 -1.2812 -0.1331  1.4480
 6875TIP3    H242117   5.998   5.032   2.848 -0.5553  0.1469  1.5865
 6876TIP3   OH242118   1.971   4.764   2.096 -0.4378 -0.0163  1.0396
 6876TIP3    H142119   1.971   4.780   2.002 -1.9628  0.3576  1.0729
 6876TIP3    H242120   1.947   4.672   2.106  0.3107 -0.2129  1.0537
 6877TIP3   OH242121   4.474   3.879   3.982  0.0583  0.4452  0.1081
 6877TIP3    H142122   4.501   3.790   3.958 -3.5837 -0.9282  0.3783
 6877TIP3    H242123   4.442   3.917   3.901 -1.2739  0.2539  0.5061
 6878TIP3   OH242124   5.960   0.177   0.574 -0.3056 -0.1341  0.0465
 6878TIP3    H142125   5.984   0.085   0.566 -1.3585 -0.4359  0.2360
 6878TIP3    H242126   5.871   0.176   0.607 -0.1441  0.9662  0.5729
 6879TIP3   OH242127   3.286   3.262  12.638  0.3125  0.3043 -0.3467
 6879TIP3    H142128   3.290   3.238  12.730 -0.3097  2.1835  0.2006
 6879TIP3    H242129   3.208   3.315  12.630 -1.9402 -2.9773 -2.7978
 6880TIP3   OH242130   2.242   2.897  14.816 -0.0863  0.3965 -0.4536
 6880TIP3    H142131   2.232   2.867  14.906  0.8598  1.1856 -0.0623
 6880TIP3    H242132   2.186   2.839  14.764 -1.8702  0.9320  0.8288
 6881TIP3   OH242133   1.346   2.180   2.884  0.0416 -0.2557 -1.0342
 6881TIP3    H142134   1.252   2.198   2.881 -0.1625 -0.9053  0.5891
 6881TIP3    H242135   1.358   2.108   2.821 -0.7915 -1.0955 -0.2575
 6882TIP3   OH242136   4.287   4.580   4.832  0.3249  1.2902 -0.3614
 6882TIP3    H142137   4.374   4.610   4.858  1.1541 -1.8240  0.8174
 6882TIP3    H242138   4.297   4.549   4.742  0.6409  0.2717  0.0162
 6883TIP3   OH242139   2.979   5.868  12.371 -0.2339 -0.0307  0.3835
 6883TIP3    H142140   2.952   5.958  12.352 -0.7947  0.2051  2.0889
 6883TIP3    H242141   3.023   5.875  12.456  3.9160 -0.6422 -1.4739
 6884TIP3   OH242142   3.691   0.086  12.402  0.2422  0.2387  0.2366
 6884TIP3    H142143   3.726  -0.003  12.404 -0.5982 -0.1118  0.0074
 6884TIP3    H242144   3.765   0.140  12.376  0.2599 -0.6823 -1.8518
 6885TIP3   OH242145   2.707   2.436  11.961  0.2978 -0.0504  0.7713
 6885TIP3    H142146   2.725   2.442  12.055  1.0038 -0.4186  0.6639
 6885TIP3    H242147   2.790   2.409  11.922  0.1067  0.4668 -0.0086
 6886TIP3   OH242148   2.662   0.032   0.826  0.0264 -0.3014  0.1400
 6886TIP3    H142149   2.726   0.098   0.854  0.5611 -1.0955  0.8597
 6886TIP3    H242150   2.680   0.019   0.733  0.0591  0.4094  0.0441
 6887TIP3   OH242151   5.760   2.301  15.642 -0.5706  0.2300  0.2244
 6887TIP3    H142152   5.761   2.321  15.735 -0.0759 -1.3176  0.5708
 6887TIP3    H242153   5.805   2.375  15.601  0.7822  0.0879  1.4002
 6888TIP3   OH242154   5.870   6.228   0.646 -0.1326  0.2784 -0.2064
 6888TIP3    H142155   5.950   6.177   0.640 -0.0224  0.4302 -0.0536
 6888TIP3    H242156   5.836   6.231   0.557  0.6742  1.2348 -0.4961
 6889TIP3   OH242157   3.147   3.421  14.413 -0.3873 -0.4744 -0.2700
 6889TIP3    H142158   3.161   3.427  14.319 -0.0446 -1.7769 -0.3187
 6889TIP3    H242159   3.074   3.481  14.431  1.4415  2.0693 -0.8861
 6890TIP3   OH242160   1.330   5.040   2.929  0.1643 -0.0381 -0.6142
 6890TIP3    H142161   1.388   5.013   3.000 -0.5522 -0.9618 -0.3777
 6890TIP3    H242162   1.370   5.121   2.896  2.1806 -1.1655 -1.1369
 6891TIP3   OH242163   0.527   3.762   2.151  0.3219 -0.4486  0.2991
 6891TIP3    H142164   0.523   3.721   2.065 -0.2706 -1.1228  0.6385
 6891TIP3    H242165   0.454   3.824   2.150  0.3746 -0.3863  0.2856
 6892TIP3   OH242166   1.179   4.795  13.931  0.0315  0.0693  0.3949
 6892TIP3    H142167   1.204   4.704  13.946 -2.3237 -0.8842 -0.9237
 6892TIP3    H242168   1.234   4.824  13.858  0.5366 -0.4059  0.5837
 6893TIP3   OH242169   4.430   6.002  15.499 -0.1015  0.1632 -0.2981
 6893TIP3    H142170   4.396   5.959  15.578  0.1879 -0.0277 -0.2792
 6893TIP3    H242171   4.352   6.040  15.458  0.0768  2.8819  1.6345
 6894TIP3   OH242172   3.887   3.208  11.540  0.2451 -0.4189  0.0907
 6894TIP3    H142173   3.910   3.245  11.626  0.4249  0.7407 -0.4366
 6894TIP3    H242174   3.955   3.240  11.481  0.4528 -1.6879 -0.3933
 6895TIP3   OH242175   4.784   4.973  12.745  0.2843 -0.0724 -0.0973
 6895TIP3    H142176   4.842   5.016  12.682  0.8269 -0.7969 -0.1163
 6895TIP3    H242177   4.713   5.035  12.760  1.8345  1.5204  1.0782
 6896TIP3   OH242178   4.657   3.096  12.015  0.2545  0.1609  0.1254
 6896TIP3    H142179   4.731   3.066  12.067  0.2905  0.6664  0.3703
 6896TIP3    H242180   4.692   3.166  11.961  0.0292  0.1816  0.0034
 6897TIP3   OH242181   0.519   0.419  11.235  0.3238 -0.1402  0.1181
 6897TIP3    H142182   0.504   0.406  11.141 -0.1398  0.1901  0.1471
 6897TIP3    H242183   0.614   0.408  11.245  0.1678 -2.1616 -0.0708
 6898TIP3   OH242184   6.810   6.044   5.542  0.6862  0.2699  0.0224
 6898TIP3    H142185   6.775   6.131   5.520  1.0203  0.8682  1.6949
 6898TIP3    H242186   6.904   6.053   5.533  0.9242  0.8320  2.4556
 6899TIP3   OH242187   2.172   0.693   5.164  0.2863 -0.5462 -0.1205
 6899TIP3    H142188   2.266   0.677   5.155  0.4275 -0.1604  0.5649
 6899TIP3    H242189   2.137   0.681   5.076  1.0786 -0.0345 -0.5162
 6900TIP3   OH242190   6.771   1.942   6.432 -0.4567  0.2880  0.3218
 6900TIP3    H142191   6.793   2.033   6.413 -1.6464  0.6810  0.7115
 6900TIP3    H242192   6.853   1.902   6.459 -0.0515  1.4387  0.8493
 6901TIP3   OH242193   1.733   6.597  13.837  0.1546 -0.4410 -0.1980
 6901TIP3    H142194   1.774   6.629  13.756  0.3013  0.2137  0.1328
 6901TIP3    H242195   1.639   6.612  13.823  0.1774 -0.3479 -0.2520
 6902TIP3   OH242196   5.762   0.774   1.244 -0.3184  0.0172  0.3627
 6902TIP3    H142197   5.790   0.866   1.240  1.4170 -0.5075 -0.6091
 6902TIP3    H242198   5.698   0.772   1.315  1.5216  1.5197  2.2344
 6903TIP3   OH242199   3.636   6.704  16.898  0.2025  0.1132 -0.0026
 6903TIP3    H142200   3.728   6.718  16.918  0.2175  0.0476 -0.0245
 6903TIP3    H242201   3.615   6.770  16.832  0.2886 -0.0035 -0.1484
 6904TIP3   OH242202   6.691   5.813   5.650  0.3986  0.0425  0.3474
 6904TIP3    H142203   6.747   5.879   5.609  1.2285 -0.6201  0.3932
 6904TIP3    H242204   6.684   5.841   5.741  1.0155 -0.1010  0.4438
 6905TIP3   OH242205   0.761   2.488  13.022 -0.3111  0.6814  0.0506
 6905TIP3    H142206   0.777   2.541  13.101  0.6262 -1.0363  1.0692
 6905TIP3    H242207   0.839   2.499  12.969 -0.5580  1.1321 -0.2196
 6906TIP3   OH242208   2.950   1.284  16.941 -0.6977 -0.7625 -0.1528
 6906TIP3    H142209   2.945   1.333  16.859  0.2831 -0.9074 -0.3158
 6906TIP3    H242210   2.865   1.296  16.982 -0.5011  1.0132 -0.2143
 6907TIP3   OH242211   0.130   6.272  10.425  0.4635  0.3340  0.0263
 6907TIP3    H142212   0.085   6.339  10.475  2.2564  1.3608  0.3230
 6907TIP3    H242213   0.173   6.319  10.354 -0.3000 -0.8385 -1.2819
 6908TIP3   OH242214   3.481   3.295   4.764 -0.4323  0.1009  0.5454
 6908TIP3    H142215   3.387   3.299   4.778 -0.4452 -2.8662  1.9433
 6908TIP3    H242216   3.517   3.267   4.849  1.6615  0.5799 -0.1211
 6909TIP3   OH242217   5.237   1.387  13.566  0.1720  0.1971 -0.6051
 6909TIP3    H142218   5.160   1.365  13.514 -0.0956 -0.4508  0.0408
 6909TIP3    H242219   5.310   1.377  13.506 -0.1526 -0.2636 -0.9304
 6910TIP3   OH242220   2.432   2.766   0.731  0.3440 -0.2631  0.5205
 6910TIP3    H142221   2.354   2.724   0.696  0.9300  0.4029 -1.7806
 6910TIP3    H242222   2.497   2.696   0.738  0.4556 -0.2977 -0.6003
 6911TIP3   OH242223   6.225   1.644   6.454 -0.1617 -0.2000  0.2100
 6911TIP3    H142224   6.170   1.565   6.456  1.3531 -1.2996  0.7802
 6911TIP3    H242225   6.311   1.612   6.428  1.3305  0.6553  3.5183
 6912TIP3   OH242226   4.279   0.311  15.300  0.5668  0.5446  0.5650
 6912TIP3    H142227   4.206   0.371  15.318  0.9812  1.2809 -0.1305
 6912TIP3    H242228   4.272   0.244  15.368 -1.9603 -0.5464 -0.6359
 6913TIP3   OH242229   4.097   3.520  10.949 -0.6480  0.2897 -0.1832
 6913TIP3    H142230   4.193   3.526  10.957 -0.6833  0.6326 -0.0065
 6913TIP3    H242231   4.083   3.446  10.890 -0.2825 -0.0158  0.1030
 6914TIP3   OH242232   6.753   1.692  13.724 -0.3355  0.1696 -0.1103
 6914TIP3    H142233   6.767   1.737  13.641 -1.8211  0.1753 -0.3885
 6914TIP3    H242234   6.689   1.747  13.770 -0.0503 -0.2011  0.7377
 6915TIP3   OH242235   0.376   1.889   2.315  0.4392 -0.0309  0.3469
 6915TIP3    H142236   0.299   1.930   2.355 -0.1412 -1.2330  0.5180
 6915TIP3    H242237   0.447   1.951   2.331 -0.1289  0.3027  1.7546
 6916TIP3   OH242238   0.688   0.352  15.319 -0.0307  0.2858  0.0772
 6916TIP3    H142239   0.597   0.329  15.300 -0.5593  0.3704  2.2488
 6916TIP3    H242240   0.735   0.269  15.316 -0.7049 -0.1761  1.4777
 6917TIP3   OH242241   3.550   2.365  13.477 -0.2344 -0.0353  0.1584
 6917TIP3    H142242   3.605   2.436  13.443  0.1155  0.0939  0.9642
 6917TIP3    H242243   3.473   2.410  13.512  0.1745 -0.0074  1.0382
 6918TIP3   OH242244   1.394   1.658  16.203 -0.2649  0.9879  0.2585
 6918TIP3    H142245   1.456   1.726  16.179  0.5910  0.4558  0.9152
 6918TIP3    H242246   1.336   1.650  16.127  2.9182 -1.3162 -2.1929
 6919TIP3   OH242247   5.264   5.332   1.283 -0.0141 -0.1958 -0.4931
 6919TIP3    H142248   5.245   5.297   1.370  2.2582 -1.4675 -0.4366
 6919TIP3    H242249   5.202   5.404   1.272 -2.7053 -2.1568  0.7325
 6920TIP3   OH242250   5.162   2.091   1.087 -0.1423  0.1171  0.1954
 6920TIP3    H142251   5.166   2.053   0.999 -1.4652  0.6101 -0.1006
 6920TIP3    H242252   5.137   2.018   1.144 -0.3941  0.0333 -0.0181
 6921TIP3   OH242253   3.930   5.152  15.703 -0.1234 -0.4112  0.2882
 6921TIP3    H142254   3.846   5.178  15.667  0.5081  1.6381  0.1931
 6921TIP3    H242255   3.911   5.130  15.795 -0.9678 -1.3085 -0.0843
 6922TIP3   OH242256   2.549   5.095  15.960 -0.2428 -0.0389 -0.1616
 6922TIP3    H142257   2.483   5.155  15.926 -1.7418 -0.4990  1.7659
 6922TIP3    H242258   2.594   5.144  16.029 -0.8719 -0.7852  0.8121
 6923TIP3   OH242259   5.295   4.219   2.181 -0.3963  0.1605 -0.3833
 6923TIP3    H142260   5.245   4.173   2.248  3.3624 -2.5057  0.8894
 6923TIP3    H242261   5.352   4.279   2.229 -0.3769  1.1196 -1.5376
 6924TIP3   OH242262   3.165   5.436  14.297 -0.3841  0.2031  0.4986
 6924TIP3    H142263   3.186   5.522  14.332 -0.6579 -0.5005  2.4883
 6924TIP3    H242264   3.132   5.387  14.371 -0.0118 -1.7136 -0.5393
 6925TIP3   OH242265   3.578   4.357   5.569 -0.2780  0.6240 -0.1450
 6925TIP3    H142266   3.611   4.441   5.599 -1.7631  0.6625  1.5639
 6925TIP3    H242267   3.635   4.292   5.611 -0.6247  0.7421  0.5187
 6926TIP3   OH242268   2.163   3.596  15.718  0.5884  0.4537 -0.4402
 6926TIP3    H142269   2.077   3.623  15.687  0.5248  1.8621  0.8703
 6926TIP3    H242270   2.156   3.501  15.730 -0.1214  0.2344 -2.2988
 6927TIP3   OH242271   2.660   2.885   3.215  0.3847  0.5210 -0.2511
 6927TIP3    H142272   2.651   2.856   3.124 -0.5985  0.3979 -0.1206
 6927TIP3    H242273   2.671   2.804   3.265  2.2410  0.6405 -0.3730
 6928TIP3   OH242274   6.800   0.753   2.333  0.1867  0.3486 -0.1994
 6928TIP3    H142275   6.892   0.729   2.331  0.1699  0.2767 -0.1411
 6928TIP3    H242276   6.800   0.847   2.349  0.2673  0.5610 -1.4265
 6929TIP3   OH242277   5.581   3.445   5.097 -0.0791 -0.2240  0.2847
 6929TIP3    H142278   5.566   3.390   5.174  1.6936  0.0797  0.8996
 6929TIP3    H242279   5.508   3.506   5.097  0.7669  0.9644  2.8493
 6930TIP3   OH242280   2.739   3.210  17.159  0.1575  0.9599 -0.0268
 6930TIP3    H142281   2.673   3.277  17.174 -1.1944 -0.6903  1.8635
 6930TIP3    H242282   2.691   3.135  17.126  0.9868 -0.3757  1.6384
 6931TIP3   OH242283   4.363   6.121  14.776  0.0596  0.8361  0.1332
 6931TIP3    H142284   4.341   6.166  14.857  1.9476  2.7205 -0.3178
 6931TIP3    H242285   4.457   6.136  14.764 -0.3865  1.8847 -3.1126
 6932TIP3   OH242286   4.517   1.549  14.078  0.3973  0.4021  0.4698
 6932TIP3    H142287   4.453   1.529  14.146  0.7798  0.5266  0.8684
 6932TIP3    H242288   4.591   1.491  14.097  1.0839  1.4360  1.0047
 6933TIP3   OH242289   2.583   6.193   3.225 -0.8615 -0.1275 -0.0532
 6933TIP3    H142290   2.657   6.153   3.178  0.1352  2.0793 -0.4910
 6933TIP3    H242291   2.536   6.242   3.157 -0.5775  1.4640  0.8655
 6934TIP3   OH242292   5.160   1.224   1.828  0.3854  0.1386 -0.3352
 6934TIP3    H142293   5.068   1.244   1.844  0.4565  0.8909 -0.8365
 6934TIP3    H242294   5.203   1.240   1.912  0.0080 -0.5953  0.0110
 6935TIP3   OH242295   4.900   5.149  15.592  0.3977  0.0634  0.1752
 6935TIP3    H142296   4.872   5.236  15.563 -1.1331 -1.2329 -2.5720
 6935TIP3    H242297   4.825   5.092  15.574  1.2766 -1.8474  2.0870
 6936TIP3   OH242298   1.364   2.087   5.432  0.3161 -0.0604 -0.1363
 6936TIP3    H142299   1.382   2.102   5.339  1.3859  1.7291  0.3150
 6936TIP3    H242300   1.447   2.106   5.476 -0.7126  1.2199  1.3586
 6937TIP3   OH242301   5.702   6.550  15.970 -0.8784 -0.3328  0.4026
 6937TIP3    H142302   5.619   6.561  15.923 -0.0809 -0.3888 -1.0962
 6937TIP3    H242303   5.680   6.493  16.044 -1.9747 -1.3046 -0.6192
 6938TIP3   OH242304   0.372   1.293  15.630  0.1490  0.4800 -0.1226
 6938TIP3    H142305   0.387   1.351  15.705  1.6532 -2.3666  1.9807
 6938TIP3    H242306   0.456   1.249  15.617 -1.1055 -1.8017 -1.0074
 6939TIP3   OH242307   3.618   2.851   0.389 -0.4926  0.4747 -0.0477
 6939TIP3    H142308   3.555   2.805   0.445 -1.0954  1.1094 -0.1902
 6939TIP3    H242309   3.566   2.919   0.345  0.2209  0.7730 -0.4459
 6940TIP3   OH242310   2.961   1.359   5.346 -0.1729 -0.3352  0.7444
 6940TIP3    H142311   3.048   1.355   5.306 -0.7309 -0.4574 -0.5031
 6940TIP3    H242312   2.952   1.450   5.374  0.6405 -0.4930  1.6006
 6941TIP3   OH242313   4.824   6.507  14.743 -0.0312  0.2116 -0.6293
 6941TIP3    H142314   4.806   6.596  14.714  0.8328  0.9730  1.0375
 6941TIP3    H242315   4.885   6.517  14.816 -0.3282 -1.7114 -0.0559
 6942TIP3   OH242316   1.738   2.914   0.087  0.3748  0.8621  0.1187
 6942TIP3    H142317   1.744   2.863   0.168  1.6584  0.2467 -0.3308
 6942TIP3    H242318   1.676   2.866   0.033 -0.3479  1.1744  0.6581
 6943TIP3   OH242319   5.118   0.919   1.896  0.4009 -0.5346 -0.2056
 6943TIP3    H142320   5.110   0.833   1.854  1.9946  0.0729 -1.8700
 6943TIP3    H242321   5.194   0.959   1.854 -0.5482  1.8749  0.2463
 6944TIP3   OH242322   2.487   6.638   2.865  0.5507 -0.2548 -0.1327
 6944TIP3    H142323   2.439   6.563   2.829 -1.7244  0.6972  0.6992
 6944TIP3    H242324   2.439   6.714   2.831  2.0352  0.8033  0.0725
 6945TIP3   OH242325   5.964   2.353   5.562 -0.5454 -0.3333 -0.0495
 6945TIP3    H142326   5.900   2.353   5.491 -0.5293  1.1360 -0.1032
 6945TIP3    H242327   5.944   2.275   5.613 -1.1177 -0.9359 -1.1688
 6946TIP3   OH242328   3.328   1.853  11.656 -0.4619 -0.2214 -0.0138
 6946TIP3    H142329   3.298   1.779  11.604 -0.6105 -0.3476  0.2491
 6946TIP3    H242330   3.420   1.834  11.673 -0.1980  0.2207 -0.9139
 6947TIP3   OH242331   2.687   1.439  13.671  0.4702 -0.0279  0.6582
 6947TIP3    H142332   2.687   1.535  13.670 -0.7180 -0.0023  0.9860
 6947TIP3    H242333   2.672   1.414  13.580  0.5933  0.1033  0.6015
 6948TIP3   OH242334   0.014   6.142  16.043 -0.0734 -0.7459 -0.7858
 6948TIP3    H142335   0.072   6.184  16.107  0.8128 -1.2875 -1.2143
 6948TIP3    H242336  -0.074   6.161  16.075  0.3194 -2.5389  1.6735
 6949TIP3   OH242337   4.689   2.007  13.140  0.5223  0.3618 -0.1418
 6949TIP3    H142338   4.736   2.089  13.159  0.2301  0.5359 -0.1616
 6949TIP3    H242339   4.758   1.942  13.131  0.7319  0.5123  0.3404
 6950TIP3   OH242340   4.731   2.288   5.380 -0.5328 -0.0719 -0.5768
 6950TIP3    H142341   4.677   2.301   5.302  0.8734 -1.0595 -1.7588
 6950TIP3    H242342   4.668   2.275   5.451 -1.8526  1.6120 -1.3699
 6951TIP3   OH242343   4.973   5.014   4.030 -0.1280  0.9809 -0.1489
 6951TIP3    H142344   4.919   5.053   4.098 -1.0050 -2.7044  1.5059
 6951TIP3    H242345   4.919   5.017   3.951 -1.2217  0.6560  0.5830
 6952TIP3   OH242346   1.998   6.195   1.035 -0.7587 -0.1014  0.3773
 6952TIP3    H142347   2.012   6.165   0.945  0.2424  0.8125  0.1995
 6952TIP3    H242348   2.080   6.173   1.080 -1.2835 -0.6250  1.0941
 6953TIP3   OH242349   2.083   0.140  13.908  0.0717  0.6488  0.2486
 6953TIP3    H142350   2.103   0.047  13.908 -1.5532  0.2429  1.5291
 6953TIP3    H242351   2.159   0.181  13.950  0.2931 -0.2471  0.7480
 6954TIP3   OH242352   0.713   6.484  15.900  0.2607 -0.2840  0.2891
 6954TIP3    H142353   0.793   6.526  15.932  0.3235 -0.2775  0.1266
 6954TIP3    H242354   0.643   6.524  15.952  0.2398  0.5737 -0.3711
 6955TIP3   OH242355   3.121   3.551   1.883 -0.3238 -0.3587 -0.0251
 6955TIP3    H142356   3.058   3.623   1.888 -0.3231 -0.0407 -2.9822
 6955TIP3    H242357   3.076   3.484   1.832  0.5020 -1.5912  0.8103
 6956TIP3   OH242358   3.312   1.808   4.871 -0.0350 -0.1660  0.4159
 6956TIP3    H142359   3.281   1.758   4.947  0.6330  0.2678  0.9923
 6956TIP3    H242360   3.264   1.891   4.877  1.4528  0.6564  1.5249
 6957TIP3   OH242361   3.384   1.398  12.539  0.0580 -0.3422  0.1535
 6957TIP3    H142362   3.300   1.426  12.576 -0.2556 -1.1859  0.0932
 6957TIP3    H242363   3.411   1.471  12.483 -0.2661  0.2530  0.7558
 6958TIP3   OH242364   2.824   2.206  10.751  0.2130  0.1316 -0.7027
 6958TIP3    H142365   2.763   2.271  10.786 -0.7243 -1.1023  0.0326
 6958TIP3    H242366   2.909   2.231  10.787 -0.2359  0.6109  0.0463
 6959TIP3   OH242367   4.998   1.472   5.800 -0.1155  0.0303  0.9151
 6959TIP3    H142368   5.085   1.434   5.795 -0.0743  0.0550  1.4340
 6959TIP3    H242369   4.958   1.433   5.878 -1.1491 -1.1789 -0.1690
 6960TIP3   OH242370   0.156   5.016   0.126 -0.1570  0.6253 -0.2952
 6960TIP3    H142371   0.171   5.012   0.221  2.9825 -0.3052 -0.7021
 6960TIP3    H242372   0.070   4.976   0.113 -0.4213  0.2713  2.0931
 6961TIP3   OH242373   3.134   4.322   4.787  0.4908 -0.2504 -0.3493
 6961TIP3    H142374   3.121   4.250   4.848 -0.9729 -0.5867 -0.9858
 6961TIP3    H242375   3.192   4.383   4.832  0.2214 -0.9354  0.9764
 6962TIP3   OH242376   4.111   5.721  15.908  0.5214  0.4360  0.2240
 6962TIP3    H142377   4.077   5.788  15.967 -2.9025 -0.7865 -0.1227
 6962TIP3    H242378   4.122   5.644  15.963 -1.0179 -0.2210 -0.3251
 6963TIP3   OH242379   4.948   0.949  17.095  0.7556  0.3306 -0.8249
 6963TIP3    H142380   5.021   0.900  17.132  0.7140  0.1731 -0.9481
 6963TIP3    H242381   4.884   0.956  17.166 -0.3142 -1.9273 -1.4731
 6964TIP3   OH242382   2.546   2.626  15.290 -0.1798 -0.4233 -0.4568
 6964TIP3    H142383   2.462   2.629  15.243 -0.4792  0.5373  0.0894
 6964TIP3    H242384   2.534   2.689  15.362  0.4604 -1.4320  0.5620
 6965TIP3   OH242385   3.461   3.594   0.947 -0.3700  0.0116 -0.8261
 6965TIP3    H142386   3.428   3.610   0.859  0.1682  1.4518 -0.7968
 6965TIP3    H242387   3.478   3.681   0.983  1.6808 -0.5758 -0.1725
 6966TIP3   OH242388   6.312   5.721  12.208 -0.3382 -0.5451  1.0176
 6966TIP3    H142389   6.337   5.758  12.124 -0.9900  1.3325  1.6161
 6966TIP3    H242390   6.354   5.635  12.209  0.1496 -0.3809 -0.9693
 6967TIP3   OH242391   6.064   5.653  16.270  0.3170 -0.2234 -0.0854
 6967TIP3    H142392   6.084   5.733  16.222  0.4163 -1.5821 -2.4446
 6967TIP3    H242393   6.132   5.647  16.337  1.8607  0.3430 -1.5502
 6968TIP3   OH242394   4.440   1.841  14.344 -0.4194 -0.1570  0.1659
 6968TIP3    H142395   4.390   1.773  14.388 -0.1395 -0.6889 -0.3207
 6968TIP3    H242396   4.427   1.919  14.397 -1.0499 -0.4993  0.5236
 6969TIP3   OH242397   6.574   4.266  11.762  0.4935 -0.1958  0.1669
 6969TIP3    H142398   6.490   4.307  11.742  1.0485  1.0373  0.2361
 6969TIP3    H242399   6.639   4.328  11.728  1.4088  0.1548  2.3817
 6970TIP3   OH242400   5.913   2.880   2.574  0.1605  0.0230 -0.0408
 6970TIP3    H142401   5.947   2.814   2.635 -1.7903  0.4038  1.5345
 6970TIP3    H242402   5.870   2.829   2.505  1.0099 -0.3710 -0.2987
 6971TIP3   OH242403   2.846   4.739  12.467  0.1422  0.0708 -0.2430
 6971TIP3    H142404   2.925   4.684  12.462 -0.2400 -0.3850 -1.5431
 6971TIP3    H242405   2.782   4.685  12.513  0.3970  0.2173  0.2930
 6972TIP3   OH242406   5.031   6.823  12.647  0.4500  0.5114  0.5081
 6972TIP3    H142407   4.966   6.758  12.674  0.1157  0.8293  0.4696
 6972TIP3    H242408   4.991   6.870  12.574  0.2112  1.5346  1.2747
 6973TIP3   OH242409   3.754   0.110  13.779  0.1976 -0.2901 -0.0372
 6973TIP3    H142410   3.722   0.199  13.795  1.4243  0.2586 -0.4600
 6973TIP3    H242411   3.790   0.081  13.863 -4.1943 -2.2336  1.4341
 6974TIP3   OH242412   2.689   6.578  17.126 -0.1941 -0.1316  0.3593
 6974TIP3    H142413   2.604   6.623  17.131  0.1683  0.5144  0.9315
 6974TIP3    H242414   2.680   6.504  17.186 -0.7887 -0.8344 -0.5749
 6975TIP3   OH242415   3.597   2.290  16.962  0.8247 -0.3851  0.1502
 6975TIP3    H142416   3.516   2.275  16.914 -0.4114  1.7092  1.4288
 6975TIP3    H242417   3.650   2.212  16.946 -0.7611 -1.0920 -2.0447
 6976TIP3   OH242418   1.892   6.818  16.333  0.2864 -0.3908 -0.2662
 6976TIP3    H142419   1.846   6.838  16.415 -0.0805 -0.0065 -0.5603
 6976TIP3    H242420   1.982   6.847  16.348 -0.3420  2.0070 -0.8653
 6977TIP3   OH242421   3.499   4.190   1.027  0.1883  0.0893  0.1469
 6977TIP3    H142422   3.410   4.207   1.058 -0.6206 -3.4837  0.2650
 6977TIP3    H242423   3.525   4.109   1.071  2.9659  0.2440 -0.9756
 6978TIP3   OH242424   5.536   6.813  12.308 -0.0156 -0.0405  0.1052
 6978TIP3    H142425   5.569   6.789  12.221 -0.0364  0.3199 -0.0015
 6978TIP3    H242426   5.603   6.871  12.344 -0.0286 -0.1536  0.3151
 6979TIP3   OH242427   6.773   1.869   3.053 -0.0376  0.1989 -0.8815
 6979TIP3    H142428   6.829   1.842   3.126  1.1341 -1.0255 -2.1755
 6979TIP3    H242429   6.811   1.951   3.023 -2.1120  2.1963  1.4695
 6980TIP3   OH242430   2.681   4.692  11.896  0.0525  0.5870 -0.0995
 6980TIP3    H142431   2.690   4.774  11.847  1.5091  0.8796  0.5936
 6980TIP3    H242432   2.765   4.683  11.941  0.1871 -1.6445 -0.6984
 6981TIP3   OH242433   6.261   6.231   5.180  0.4048 -0.2513  0.9327
 6981TIP3    H142434   6.264   6.160   5.244  0.7046  1.1367  2.5338
 6981TIP3    H242435   6.277   6.310   5.232  0.4839  0.9475 -0.8521
 6982TIP3   OH242436   4.762   5.067  13.624 -0.6119 -0.1019 -0.2493
 6982TIP3    H142437   4.823   4.994  13.630 -1.4503 -0.8393 -0.4890
 6982TIP3    H242438   4.771   5.114  13.707  1.2676  0.6326 -0.8022
 6983TIP3   OH242439   6.113   2.190   6.440  0.0182 -0.1823 -0.0286
 6983TIP3    H142440   6.037   2.147   6.401  0.4540 -0.2601 -0.7920
 6983TIP3    H242441   6.087   2.281   6.449  0.2949  0.0667 -1.5166
 6984TIP3   OH242442   3.969   5.375   0.636  0.4626  0.0735 -0.5835
 6984TIP3    H142443   3.997   5.366   0.727  0.0096  0.1076 -0.4371
 6984TIP3    H242444   3.876   5.354   0.638  0.8275 -1.8094 -1.3488
 6985TIP3   OH242445   3.356   2.225   3.184 -0.1979  0.0935  0.4773
 6985TIP3    H142446   3.397   2.251   3.267  0.0516 -1.7927  0.9911
 6985TIP3    H242447   3.263   2.217   3.206 -0.1726 -0.1417  0.4929
 6986TIP3   OH242448   3.360   4.818  10.822  0.2412  0.0175  0.5334
 6986TIP3    H142449   3.445   4.849  10.792  0.9043 -1.9812  0.2071
 6986TIP3    H242450   3.377   4.783  10.910 -0.3089 -0.1413  0.5788
 6987TIP3   OH242451   5.032   0.346  17.092 -0.2545 -0.0903  0.1681
 6987TIP3    H142452   4.967   0.291  17.048  0.5225 -1.5570  0.7976
 6987TIP3    H242453   5.004   0.347  17.184  0.2072 -0.1202  0.3107
 6988TIP3   OH242454   3.075   5.839   3.452 -0.2967  0.3895 -0.2382
 6988TIP3    H142455   2.989   5.847   3.409  0.1994  1.6310 -1.0541
 6988TIP3    H242456   3.068   5.894   3.529 -0.4357 -0.0197  0.0441
 6989TIP3   OH242457   0.622   3.507   5.823  1.0564 -0.7294  0.1863
 6989TIP3    H142458   0.609   3.596   5.854 -1.3701 -1.2954  0.9914
 6989TIP3    H242459   0.621   3.514   5.727  3.1102  0.3184  0.1804
 6990TIP3   OH242460   2.603   4.129   0.558 -0.1038 -0.2931 -0.4913
 6990TIP3    H142461   2.535   4.101   0.497  0.3421 -1.3775 -0.5024
 6990TIP3    H242462   2.576   4.094   0.643 -0.6205  1.0456 -0.0771
 6991TIP3   OH242463   0.485   1.331  14.083 -0.0643  0.1520  0.1773
 6991TIP3    H142464   0.573   1.345  14.049 -0.5480  1.1855 -0.6886
 6991TIP3    H242465   0.431   1.317  14.005 -1.5685  4.5095  0.1715
 6992TIP3   OH242466   6.327   0.306  14.010  0.0297 -0.5183 -0.0984
 6992TIP3    H142467   6.310   0.235  14.071 -1.1156 -0.3557 -0.2056
 6992TIP3    H242468   6.327   0.385  14.064 -0.1307 -0.4616 -0.1788
 6993TIP3   OH242469   4.328   6.061   5.442  0.1716  0.2275  0.4001
 6993TIP3    H142470   4.334   6.050   5.347  0.9375 -1.2241  0.5929
 6993TIP3    H242471   4.279   6.143   5.453 -0.3375  0.1828 -1.2295
 6994TIP3   OH242472   0.076   5.404  13.069 -0.0810  0.1182 -0.0218
 6994TIP3    H142473   0.089   5.409  12.974  0.1698 -0.4789 -0.0287
 6994TIP3    H242474   0.056   5.493  13.096  0.4650  0.4048 -0.5485
 6995TIP3   OH242475   6.635   6.408   0.214  0.1822  0.2996  0.4423
 6995TIP3    H142476   6.729   6.392   0.216  0.4487  1.5227 -0.7518
 6995TIP3    H242477   6.597   6.335   0.264  1.5977 -1.3734 -0.7712
 6996TIP3   OH242478   4.527   5.903  14.957  0.3206 -0.0192 -0.3452
 6996TIP3    H142479   4.622   5.889  14.955  0.1781 -1.7564  1.8064
 6996TIP3    H242480   4.510   5.937  15.044 -1.0344  0.3885 -0.7542
 6997TIP3   OH242481   0.900   1.692   1.172  0.0389  0.4945  0.2602
 6997TIP3    H142482   0.965   1.631   1.136  0.4690  0.1228  1.6178
 6997TIP3    H242483   0.948   1.775   1.182 -0.2966  0.8232 -0.7242
 6998TIP3   OH242484   5.783   2.936   4.203 -0.4151  0.3431 -0.0199
 6998TIP3    H142485   5.772   3.004   4.137 -0.3667  0.5777  0.2126
 6998TIP3    H242486   5.869   2.897   4.183 -1.4212 -1.2376 -1.5968
 6999TIP3   OH242487   0.998   1.438   4.336 -0.6877 -0.3900  0.4412
 6999TIP3    H142488   1.067   1.450   4.401 -0.1750 -1.8818  0.2004
 6999TIP3    H242489   1.043   1.447   4.252 -0.5585 -2.3146  0.2702
 7000TIP3   OH242490   5.053   3.760  14.101  0.4313  0.4261  0.0281
 7000TIP3    H142491   5.140   3.725  14.082  0.8394  1.8460 -0.8836
 7000TIP3    H242492   5.035   3.732  14.191  1.7456 -0.0710  0.1536
 7001TIP3   OH242493   4.871   4.439   3.857  0.4807 -0.7168  0.4589
 7001TIP3    H142494   4.915   4.487   3.786 -3.2997  0.8219 -1.1241
 7001TIP3    H242495   4.848   4.507   3.920  0.0418 -1.4114  1.0515
 7002TIP3   OH242496   0.321   4.290   2.365 -0.0373  0.1060  0.6175
 7002TIP3    H142497   0.234   4.251   2.350 -0.2807  0.0426  2.1156
 7002TIP3    H242498   0.306   4.361   2.427  0.5549  2.0699 -1.3230
 7003TIP3   OH242499   6.346   1.424   6.056  0.2645 -0.3778  0.0766
 7003TIP3    H142500   6.375   1.333   6.050  2.5375  0.2429  0.6588
 7003TIP3    H242501   6.392   1.459   6.133  0.8067  1.6947 -1.0927
 7004TIP3   OH242502   6.161   2.308  12.413 -0.1082  0.5435 -0.5986
 7004TIP3    H142503   6.129   2.287  12.501 -1.3351  0.7988 -0.9625
 7004TIP3    H242504   6.155   2.403  12.408  1.8868  0.7364 -0.2727
 7005TIP3   OH242505   2.941   1.517   1.341 -0.2827 -0.7901  0.1015
 7005TIP3    H142506   2.918   1.609   1.355 -0.4250 -0.9744  1.1173
 7005TIP3    H242507   2.983   1.516   1.255  1.2637  0.4988  0.7957
 7006TIP3   OH242508   4.494   2.394   1.895  0.4007  0.1980  0.7692
 7006TIP3    H142509   4.482   2.352   1.981 -0.6566 -0.5745  0.2628
 7006TIP3    H242510   4.421   2.456   1.888  0.3640  0.1097  0.3438
 7007TIP3   OH242511   0.910   0.309   0.415  0.2436  0.3534  0.1111
 7007TIP3    H142512   0.839   0.252   0.446 -0.1570  0.2583 -0.9364
 7007TIP3    H242513   0.936   0.359   0.492  0.6186 -1.2420  1.0785
 7008TIP3   OH242514   6.050   1.606   1.777  0.0135 -0.2545 -0.1405
 7008TIP3    H142515   6.138   1.599   1.739 -0.4193 -0.0390 -1.2035
 7008TIP3    H242516   6.066   1.625   1.869  1.0878  0.5377 -0.4679
 7009TIP3   OH242517   5.283   4.919  17.125  0.3396 -0.1235  0.4619
 7009TIP3    H142518   5.273   4.895  17.033  2.4268 -0.1615  0.2063
 7009TIP3    H242519   5.377   4.932  17.137  0.3309 -1.5616  2.9414
 7010TIP3   OH242520   5.908   2.122  13.784 -0.8117  0.1176 -0.1628
 7010TIP3    H142521   5.983   2.131  13.842 -1.0685 -1.3109  0.4428
 7010TIP3    H242522   5.832   2.133  13.842 -1.0806 -1.9276 -0.0245
 7011TIP3   OH242523   5.342   2.273   4.058 -0.3075  0.3063  0.1426
 7011TIP3    H142524   5.411   2.339   4.072  0.1551 -0.2832  0.7327
 7011TIP3    H242525   5.322   2.241   4.146 -0.8164 -0.0475 -0.1006
 7012TIP3   OH242526   6.593   0.712  13.468 -0.2324 -0.5772 -0.0638
 7012TIP3    H142527   6.601   0.620  13.442 -0.0751 -0.6188  0.1247
 7012TIP3    H242528   6.606   0.712  13.563  3.2038 -0.0213 -0.3683
 7013TIP3   OH242529   1.555   1.997  11.891 -0.0776 -0.0563 -0.2142
 7013TIP3    H142530   1.644   2.032  11.894 -0.5236  1.1732 -0.7108
 7013TIP3    H242531   1.567   1.902  11.884  1.2227  0.1614 -1.4449
 7014TIP3   OH242532   0.992   1.056   0.623  0.6844  0.3236 -0.2077
 7014TIP3    H142533   0.897   1.046   0.612  0.5207  1.1496  0.3740
 7014TIP3    H242534   1.002   1.092   0.711  1.5209  0.5699 -0.3996
 7015TIP3   OH242535   0.433   4.775   1.942  0.5075  0.0494 -0.0781
 7015TIP3    H142536   0.503   4.745   1.999 -0.2140 -1.9281 -0.1804
 7015TIP3    H242537   0.358   4.786   2.000  0.9897  2.8693  0.1667
 7016TIP3   OH242538   6.672   5.391  12.910 -0.1422  0.2178 -0.2418
 7016TIP3    H142539   6.681   5.474  12.862 -0.1729  0.9823  1.0238
 7016TIP3    H242540   6.693   5.324  12.846 -1.1232  1.1481 -1.5905
 7017TIP3   OH242541   6.809   0.026   5.037  0.4526 -0.1266  0.2580
 7017TIP3    H142542   6.824  -0.012   4.950  3.4441  0.2088  0.5125
 7017TIP3    H242543   6.873  -0.017   5.093 -1.3929 -0.3038  2.3629
 7018TIP3   OH242544   3.787   0.031   0.092  0.1199 -0.4366  0.6529
 7018TIP3    H142545   3.762  -0.061   0.086  1.8276 -0.8700 -0.8658
 7018TIP3    H242546   3.824   0.041   0.179  2.9686 -2.1073 -0.2408
 7019TIP3   OH242547   0.257   6.004   5.797 -0.6291  0.3967  0.6869
 7019TIP3    H142548   0.348   6.032   5.804 -0.9423  2.0547 -1.0219
 7019TIP3    H242549   0.222   6.054   5.723 -3.0081  0.0201  1.4700
 7020TIP3   OH242550   5.849   1.418   3.534 -0.4042 -0.0822  0.3092
 7020TIP3    H142551   5.908   1.375   3.596 -0.7894 -0.7984  0.1951
 7020TIP3    H242552   5.763   1.383   3.554 -0.4259 -0.9672 -1.1374
 7021TIP3   OH242553   1.161   3.921   5.051  0.1346 -0.1295 -0.0967
 7021TIP3    H142554   1.152   3.827   5.040 -0.3669 -0.0106 -0.7774
 7021TIP3    H242555   1.243   3.943   5.007  0.7523 -0.3644  0.8851
 7022TIP3   OH242556   1.408   4.083   1.284 -0.1905 -0.1990  0.1245
 7022TIP3    H142557   1.370   4.005   1.244  0.0580 -0.7063  0.8459
 7022TIP3    H242558   1.373   4.156   1.233  1.9158 -0.8625 -2.5358
 7023TIP3   OH242559   3.672   1.546   5.229  0.3058  0.1836  0.1726
 7023TIP3    H142560   3.689   1.520   5.319  1.5487  0.8020  0.1334
 7023TIP3    H242561   3.581   1.521   5.214  0.7133 -1.9124  0.8837
 7024TIP3   OH242562   4.112   3.681   5.151  0.0332 -0.1324 -0.0527
 7024TIP3    H142563   4.199   3.641   5.156 -0.6859 -1.6393  1.0025
 7024TIP3    H242564   4.113   3.747   5.221  0.3261 -0.1513 -0.0366
 7025TIP3   OH242565   2.302   4.706  10.178 -0.1858 -0.8170  0.3088
 7025TIP3    H142566   2.359   4.761  10.231 -0.8719  0.6792 -0.4428
 7025TIP3    H242567   2.356   4.681  10.103 -1.2521  3.4380 -2.2633
 7026TIP3   OH242568   2.080   0.399   4.061  0.1960 -0.0540  0.3214
 7026TIP3    H142569   2.127   0.464   4.008  1.7366 -1.4205 -0.0665
 7026TIP3    H242570   2.034   0.344   3.997 -1.3565  0.7696  0.6623
 7027TIP3   OH242571   0.375   5.457   2.848  0.0411 -0.1153  0.0284
 7027TIP3    H142572   0.389   5.545   2.885  2.6561 -1.0688  1.5818
 7027TIP3    H242573   0.463   5.418   2.845 -0.8854 -2.2771 -1.7628
 7028TIP3   OH242574   5.831   0.289  13.276  0.1525 -0.5261 -0.2482
 7028TIP3    H142575   5.887   0.281  13.354 -0.0615  0.5143  0.0296
 7028TIP3    H242576   5.768   0.357  13.299  0.6419  0.4522 -1.6492
 7029TIP3   OH242577   2.683   5.512  10.601 -0.4155 -0.1895  0.5293
 7029TIP3    H142578   2.707   5.449  10.532 -0.2252  0.6072 -0.1443
 7029TIP3    H242579   2.756   5.574  10.603 -1.7377  1.4754 -0.5724
 7030TIP3   OH242580   1.647   5.214   2.712 -0.2597 -0.4512  0.1303
 7030TIP3    H142581   1.615   5.130   2.682 -0.5310 -0.4116  0.3094
 7030TIP3    H242582   1.568   5.267   2.727 -0.3651 -1.3720  3.6751
 7031TIP3   OH242583   2.868   3.257  11.938  0.8364 -0.1374 -0.0055
 7031TIP3    H142584   2.872   3.325  11.871  1.0596 -0.4834 -0.3471
 7031TIP3    H242585   2.935   3.282  12.002  3.2900 -1.7254 -1.7534
 7032TIP3   OH242586   5.412   1.302   3.098  0.4233 -0.1202 -0.0195
 7032TIP3    H142587   5.473   1.374   3.085 -1.4260  1.6162  0.4115
 7032TIP3    H242588   5.414   1.253   3.016  2.1290  0.0637 -0.1220
 7033TIP3   OH242589   5.644   4.739  14.237  0.5631 -0.2765 -0.2179
 7033TIP3    H142590   5.675   4.656  14.200  1.0319 -0.4523  0.5456
 7033TIP3    H242591   5.596   4.781  14.166  1.7292 -0.4489 -1.1450
 7034TIP3   OH242592   3.740   6.011   3.780  0.0744 -0.4538  0.2672
 7034TIP3    H142593   3.716   6.006   3.872  3.6100  0.9934  1.4449
 7034TIP3    H242594   3.748   6.105   3.762  2.4707 -0.7262 -0.5059
 7035TIP3   OH242595   4.363   1.992  15.238 -0.1681  0.1415 -0.5537
 7035TIP3    H142596   4.300   1.923  15.259  0.2211 -0.1066 -0.1669
 7035TIP3    H242597   4.442   1.967  15.286 -0.3276  1.3913  0.4327
 7036TIP3   OH242598   1.464   5.526   4.723 -0.3587 -0.7172  0.1214
 7036TIP3    H142599   1.385   5.579   4.706 -0.6089 -1.7715 -2.5273
 7036TIP3    H242600   1.507   5.521   4.638  1.9678 -1.1909  1.2748
 7037TIP3   OH242601   4.097   0.231  16.263 -0.4855 -0.3105  0.4393
 7037TIP3    H142602   4.018   0.202  16.309 -0.1205 -1.6254  0.2728
 7037TIP3    H242603   4.126   0.308  16.311 -1.9443  0.2851  0.4148
 7038TIP3   OH242604   4.322   3.299   5.231  0.4746 -0.2264 -0.6262
 7038TIP3    H142605   4.387   3.242   5.191  0.1899 -2.2931  1.6110
 7038TIP3    H242606   4.362   3.325   5.314 -0.9246 -0.3168  0.0997
 7039TIP3   OH242607   5.186   6.629   0.115  0.3823  0.1597 -0.2415
 7039TIP3    H142608   5.142   6.697   0.064 -0.6099 -0.4015 -0.1628
 7039TIP3    H242609   5.167   6.548   0.069  0.2895 -0.2399  0.4875
 7040TIP3   OH242610   0.176   6.104  10.623 -0.3556  0.9666 -0.4757
 7040TIP3    H142611   0.181   6.019  10.580  0.9801  0.6169  0.2991
 7040TIP3    H242612   0.161   6.166  10.552 -0.8474  0.1420 -1.1136
 7041TIP3   OH242613   3.251   5.473   0.468  0.1807 -0.4132  0.7198
 7041TIP3    H142614   3.305   5.427   0.532 -0.8453 -1.0742  1.1253
 7041TIP3    H242615   3.161   5.450   0.491 -0.2223 -0.3298 -0.7104
 7042TIP3   OH242616   0.048   2.061   5.400 -0.5685  0.0302 -0.1950
 7042TIP3    H142617   0.120   2.039   5.341 -0.0826 -1.5127  0.9411
 7042TIP3    H242618   0.078   2.139   5.447 -1.1575  1.5928 -2.2453
 7043TIP3   OH242619   1.452   6.708   6.077  0.1789 -0.0184 -0.5384
 7043TIP3    H142620   1.473   6.729   5.986  0.1894 -0.2396 -0.5880
 7043TIP3    H242621   1.356   6.701   6.078 -0.0052  1.9258 -0.1115
 7044TIP3   OH242622   2.908   0.494  11.861  0.1548  0.2635  0.6876
 7044TIP3    H142623   2.993   0.508  11.902  0.3389  1.6873 -0.1106
 7044TIP3    H242624   2.862   0.577  11.872 -0.3663  0.1680 -0.6197
 7045TIP3   OH242625   3.643   2.004   4.631 -0.2160  0.3430 -0.8317
 7045TIP3    H142626   3.603   2.029   4.714  0.2543 -0.9254 -0.1937
 7045TIP3    H242627   3.736   1.992   4.652 -0.0695  0.1109 -1.5729
 7046TIP3   OH242628   4.145   5.921  13.890 -0.1995  0.0415  0.0681
 7046TIP3    H142629   4.229   5.963  13.877  0.1056 -0.1222  1.4053
 7046TIP3    H242630   4.098   5.935  13.807  1.1453  0.0832 -0.7091
 7047TIP3   OH242631   2.180   5.816  16.705  0.0374  0.6296 -0.1834
 7047TIP3    H142632   2.177   5.762  16.784  0.3242 -2.7650 -2.2955
 7047TIP3    H242633   2.091   5.815  16.672  0.2102  0.8152 -0.6598
 7048TIP3   OH242634   4.387   1.244  12.169 -0.3951 -0.1333  0.5563
 7048TIP3    H142635   4.392   1.202  12.255 -0.0590 -0.7611  0.2381
 7048TIP3    H242636   4.446   1.318  12.175  2.4304 -2.1389 -0.1859
 7049TIP3   OH242637   1.565   0.969  10.817  0.0117 -0.2671 -0.2352
 7049TIP3    H142638   1.504   0.937  10.751 -1.4784 -1.7432  1.7007
 7049TIP3    H242639   1.637   0.906  10.816  1.6951  1.5250 -2.5826
 7050TIP3   OH242640   6.033   3.672   2.220 -0.6241 -0.0399  0.4994
 7050TIP3    H142641   6.083   3.631   2.149 -1.4493  1.4909 -1.0657
 7050TIP3    H242642   6.097   3.686   2.290  0.8544  0.6068 -0.9091
 7051TIP3   OH242643   1.906   5.906   3.574 -0.3289  0.3338  0.0185
 7051TIP3    H142644   1.872   5.957   3.647 -0.5581 -0.0577  0.1870
 7051TIP3    H242645   1.916   5.970   3.503  1.5555  1.1074  0.8800
 7052TIP3   OH242646   0.083   1.680   2.436 -0.2383  0.0190 -0.2816
 7052TIP3    H142647   0.124   1.667   2.350 -0.1160  0.4116 -0.2848
 7052TIP3    H242648   0.087   1.775   2.450  1.0128 -0.1506  0.7645
 7053TIP3   OH242649   1.128   2.490   0.672  0.3247 -0.6213 -0.3724
 7053TIP3    H142650   1.093   2.566   0.719 -0.2240 -1.7268  1.0752
 7053TIP3    H242651   1.076   2.487   0.592  0.3510  0.5226 -0.4570
 7054TIP3   OH242652   5.135   0.427   4.442 -0.2347 -0.3115  0.0243
 7054TIP3    H142653   5.140   0.489   4.369  3.2009 -2.0368 -1.4598
 7054TIP3    H242654   5.159   0.478   4.519  1.9617  0.4288 -1.0787
 7055TIP3   OH242655   4.671   4.963  11.057  0.2143 -0.3933 -0.7727
 7055TIP3    H142656   4.616   5.013  10.997 -1.0743  0.9018  1.3319
 7055TIP3    H242657   4.727   5.028  11.099  0.0631 -0.9958  0.4275
 7056TIP3   OH242658   1.453   2.709   3.095  0.0890 -0.1629 -0.1385
 7056TIP3    H142659   1.387   2.661   3.145 -0.3842  1.8634  1.3319
 7056TIP3    H242660   1.423   2.705   3.005 -0.2828 -2.0001  0.0339
 7057TIP3   OH242661   0.249   1.368  16.510 -0.0882  0.0071 -0.0878
 7057TIP3    H142662   0.257   1.441  16.570 -1.5219  1.2073 -1.2645
 7057TIP3    H242663   0.154   1.356  16.500  0.1221 -0.9028 -1.2133
 7058TIP3   OH242664   3.139   5.524  11.973  0.1923 -0.2642  0.2992
 7058TIP3    H142665   3.054   5.500  11.938 -0.1639  0.2534  0.7869
 7058TIP3    H242666   3.139   5.620  11.973  1.3091 -0.2468 -0.9656
 7059TIP3   OH242667   0.159   2.443  14.362  0.4273 -1.1315 -0.4187
 7059TIP3    H142668   0.095   2.382  14.400  0.3277 -0.8973 -0.2113
 7059TIP3    H242669   0.224   2.386  14.321 -1.4536 -1.4337 -3.3201
 7060TIP3   OH242670   1.145   5.451  15.517 -0.3472  0.2945  0.2039
 7060TIP3    H142671   1.132   5.361  15.489 -0.7297  0.2136  0.6298
 7060TIP3    H242672   1.098   5.504  15.452  1.6647  0.3499 -1.2978
 7061TIP3   OH242673   0.191   1.765  14.177  0.8398  0.2077 -0.0024
 7061TIP3    H142674   0.172   1.858  14.181  0.7474  0.1891  0.0012
 7061TIP3    H242675   0.236   1.752  14.094  0.6318  0.2162 -0.1180
 7062TIP3   OH242676   0.087   0.049  14.859  0.4843  0.0250 -0.5713
 7062TIP3    H142677   0.158   0.005  14.811  0.4846  0.0633 -0.6063
 7062TIP3    H242678   0.011  -0.007  14.846  0.5349 -0.0733 -0.4418
 7063TIP3   OH242679   5.174   3.502  14.173 -0.4423  0.5957  0.0575
 7063TIP3    H142680   5.160   3.454  14.254  0.0836  0.2331 -0.0658
 7063TIP3    H242681   5.185   3.435  14.106  0.6526  0.8631 -0.0571
 7064TIP3   OH242682   0.744   5.566  11.112  0.3791 -0.0943  0.0849
 7064TIP3    H142683   0.710   5.495  11.058  1.1406 -0.8010  0.5141
 7064TIP3    H242684   0.784   5.627  11.050 -0.0639 -0.1513 -0.2614
 7065TIP3   OH242685   5.528   4.681   3.628 -0.2836  0.0740  0.1797
 7065TIP3    H142686   5.582   4.634   3.565 -1.9381 -2.3802  0.4511
 7065TIP3    H242687   5.528   4.626   3.706 -0.7751  1.5070  1.2388
 7066TIP3   OH242688   5.321   3.022  11.632 -0.1433  0.6423 -0.0151
 7066TIP3    H142689   5.229   3.027  11.603 -0.8621 -1.0167  1.7407
 7066TIP3    H242690   5.315   2.991  11.723  2.1351  1.7468  0.5631
 7067TIP3   OH242691   5.366   1.926   1.840  0.0066  0.2132 -0.1443
 7067TIP3    H142692   5.413   1.872   1.776  1.7782  2.4257 -0.8499
 7067TIP3    H242693   5.408   1.906   1.924  0.9583  0.7643 -0.4697
 7068TIP3   OH242694   3.984   3.465   3.537 -0.3877 -0.0760 -0.3980
 7068TIP3    H142695   3.897   3.445   3.570 -0.6119  0.8425 -0.4059
 7068TIP3    H242696   3.994   3.559   3.550  0.5131 -0.1298 -0.6099
 7069TIP3   OH242697   3.696   2.189   3.959  0.0370  0.1735 -0.0968
 7069TIP3    H142698   3.671   2.280   3.940 -0.5680 -0.2461 -1.4098
 7069TIP3    H242699   3.630   2.136   3.914 -0.5008 -0.9415  1.8693
 7070TIP3   OH242700   5.943   3.469   0.079 -0.2015 -0.0588  0.2526
 7070TIP3    H142701   5.849   3.468   0.066 -0.3781 -2.0971  1.3403
 7070TIP3    H242702   5.975   3.536   0.018 -2.4972  2.0288  1.1554
 7071TIP3   OH242703   5.045   2.185   3.076  0.1969 -0.4049 -0.0527
 7071TIP3    H142704   5.042   2.280   3.086 -0.6568 -0.2150 -1.7214
 7071TIP3    H242705   5.093   2.171   2.994 -3.0423 -1.1377 -2.0077
 7072TIP3   OH242706   2.899   6.753   4.772 -0.4875  0.6437  0.1454
 7072TIP3    H142707   2.958   6.711   4.835 -1.2568  1.0938  1.1991
 7072TIP3    H242708   2.930   6.723   4.686  1.9169  1.6616  0.5637
 7073TIP3   OH242709   5.066   3.211   4.418 -0.1133 -0.1381 -0.3493
 7073TIP3    H142710   5.087   3.130   4.465  0.1975 -0.0370 -0.3124
 7073TIP3    H242711   5.072   3.279   4.485  1.1002  0.1128 -0.6922
 7074TIP3   OH242712   2.509   5.382   3.375 -0.9185  0.1162 -0.4127
 7074TIP3    H142713   2.496   5.473   3.349 -1.4440  0.8409  2.0964
 7074TIP3    H242714   2.604   5.371   3.376 -0.7883  1.1242  0.6643
 7075TIP3   OH242715   6.197   6.462  11.946  0.1702 -0.2694 -0.1074
 7075TIP3    H142716   6.181   6.508  11.863  1.8466  0.2006 -0.1969
 7075TIP3    H242717   6.184   6.529  12.013 -4.3536 -1.3328  0.3879
 7076TIP3   OH242718   6.694   5.663   2.592  0.0093 -0.0708  0.6840
 7076TIP3    H142719   6.614   5.715   2.579  0.3991  1.0562  2.5274
 7076TIP3    H242720   6.687   5.630   2.681  2.9537  2.6249  2.0828
 7077TIP3   OH242721   3.503   2.094   3.789 -0.1031  0.3538 -0.2518
 7077TIP3    H142722   3.445   2.019   3.790  0.5627 -0.1842 -0.8316
 7077TIP3    H242723   3.459   2.159   3.734 -0.2649  0.0456 -0.4835
 7078TIP3   OH242724   6.842   6.471   4.179  0.6506  0.0848  0.0225
 7078TIP3    H142725   6.836   6.417   4.258 -1.4287  0.6077  0.2974
 7078TIP3    H242726   6.785   6.546   4.197  0.4478  0.4254 -1.8126
 7079TIP3   OH242727   4.760   6.110   5.276  0.6676  0.0549  0.1987
 7079TIP3    H142728   4.743   6.017   5.289 -0.8352  0.1916 -0.5904
 7079TIP3    H242729   4.733   6.127   5.186  1.1620  1.2141  0.2523
 7080TIP3   OH242730   4.548   2.942  13.095  0.4015 -0.5322 -0.0349
 7080TIP3    H142731   4.516   2.953  13.185  0.5725 -1.2286  0.1166
 7080TIP3    H242732   4.486   2.882  13.055  0.7583 -0.8288 -0.1467
 7081TIP3   OH242733   6.342   1.012  11.396  0.3045  0.0349 -0.1091
 7081TIP3    H142734   6.310   1.086  11.344  0.3047  0.1519  0.0548
 7081TIP3    H242735   6.365   1.051  11.481  0.4644 -0.1239 -0.0788
 7082TIP3   OH242736   1.819   4.728   2.844 -0.1939  0.1582 -0.0144
 7082TIP3    H142737   1.732   4.691   2.829  0.4984 -0.8726 -1.7321
 7082TIP3    H242738   1.875   4.652   2.856  0.6422  0.7897  0.1450
 7083TIP3   OH242739   6.522   2.552   1.384  0.2629  0.0937  0.0048
 7083TIP3    H142740   6.464   2.624   1.409  2.8402  2.4350 -0.3475
 7083TIP3    H242741   6.521   2.551   1.289 -1.6485 -2.0880 -0.0415
 7084TIP3   OH242742   4.402   3.158  10.898  0.0695 -0.2576 -0.1307
 7084TIP3    H142743   4.471   3.215  10.863  0.3120 -1.8974 -2.6176
 7084TIP3    H242744   4.445   3.111  10.970  1.1330 -0.1811 -0.6813
 7085TIP3   OH242745   5.550   2.375   3.309  0.1142  0.0328  0.0044
 7085TIP3    H142746   5.516   2.296   3.268 -1.5499 -0.4322  2.0809
 7085TIP3    H242747   5.619   2.344   3.368  0.1717  0.2635  0.0628
 7086TIP3   OH242748   6.062   4.855   5.252  0.0773 -0.0393  0.2057
 7086TIP3    H142749   6.016   4.860   5.335 -1.9816 -1.4231 -0.7543
 7086TIP3    H242750   6.000   4.890   5.188  1.5340  0.8214 -0.8198
 7087TIP3   OH242751   6.693   4.928  12.840  0.5982  0.0207 -0.4736
 7087TIP3    H142752   6.608   4.969  12.854  0.3029 -0.0218 -1.9436
 7087TIP3    H242753   6.742   4.947  12.919 -0.7920  0.0074  0.4265
 7088TIP3   OH242754   5.080   1.733   1.773 -0.8299 -0.1152  0.4699
 7088TIP3    H142755   5.080   1.754   1.680  1.4184 -0.2819  0.3940
 7088TIP3    H242756   5.102   1.815   1.817 -3.3334  0.3406  1.0279
 7089TIP3   OH242757   2.395   0.925   4.930  0.7051  0.3702  0.0959
 7089TIP3    H142758   2.299   0.922   4.923  0.6784 -1.9826  0.4630
 7089TIP3    H242759   2.413   0.997   4.990 -0.9748 -0.1932  1.3520
 7090TIP3   OH242760   0.054   0.332   2.376 -0.3264 -0.0641  0.2142
 7090TIP3    H142761   0.008   0.276   2.313 -0.3566 -0.6482  0.7461
 7090TIP3    H242762  -0.015   0.371   2.429 -0.3370  0.8595 -0.4470
 7091TIP3   OH242763   3.878   4.321   4.264 -0.1526  0.2755 -0.1624
 7091TIP3    H142764   3.915   4.378   4.332  0.0505  2.3671 -1.9011
 7091TIP3    H242765   3.903   4.233   4.290  1.1269  1.1301  1.7156
 7092TIP3   OH242766   1.443   3.818  12.493 -0.2663 -0.0674 -0.1797
 7092TIP3    H142767   1.360   3.818  12.540 -0.6682  1.6246 -0.8410
 7092TIP3    H242768   1.431   3.881  12.422  1.4440 -0.1137 -0.5492
 7093TIP3   OH242769   2.384   6.624  14.713  0.5192  0.2775 -0.5975
 7093TIP3    H142770   2.440   6.646  14.788  0.6423  1.5618 -1.0493
 7093TIP3    H242771   2.353   6.535  14.732  2.2881 -0.2720 -0.0747
 7094TIP3   OH242772   0.853   5.235   3.919 -0.1533 -0.3008 -0.0815
 7094TIP3    H142773   0.942   5.268   3.923 -0.3344  0.1497  0.5319
 7094TIP3    H242774   0.798   5.312   3.937 -0.6160 -0.7777  0.6105
 7095TIP3   OH242775   1.572   2.899  11.378  0.0817 -0.5845  0.0722
 7095TIP3    H142776   1.596   2.945  11.298 -0.6080  0.6627  0.5633
 7095TIP3    H242777   1.619   2.945  11.448 -2.3397  0.8661  0.8469
 7096TIP3   OH242778   5.512   1.468  13.764  0.2811 -0.0245  0.3711
 7096TIP3    H142779   5.605   1.459  13.741  0.1686  0.8482 -0.5336
 7096TIP3    H242780   5.466   1.461  13.680 -0.4814 -0.5509  0.8231
 7097TIP3   OH242781   2.174   0.003   3.429 -0.4988  0.0377 -0.4216
 7097TIP3    H142782   2.186  -0.092   3.422  1.1386 -0.0607  2.1298
 7097TIP3    H242783   2.248   0.041   3.383 -0.9607  0.0801 -1.1383
 7098TIP3   OH242784   4.451   4.725   0.843  0.1710  0.3120 -0.0804
 7098TIP3    H142785   4.458   4.702   0.750  2.3859 -2.2242  0.5732
 7098TIP3    H242786   4.378   4.672   0.875  0.7115 -0.3980  0.0007
 7099TIP3   OH242787   4.136   1.802   2.786 -0.2533  0.0921  0.1575
 7099TIP3    H142788   4.196   1.742   2.831  1.2862  1.5461  0.1629
 7099TIP3    H242789   4.049   1.765   2.800  0.5642 -1.6473  0.8894
 7100TIP3   OH242790   6.446   6.344  12.062  0.3131  0.0736 -0.5720
 7100TIP3    H142791   6.357   6.323  12.033  0.2904  0.8097 -1.0459
 7100TIP3    H242792   6.468   6.425  12.016  0.2800  1.2822  1.4351
 7101TIP3   OH242793   2.933   4.950   3.881  0.4518 -0.2417 -0.2825
 7101TIP3    H142794   2.966   5.031   3.843 -4.4718  1.8619 -0.7567
 7101TIP3    H242795   2.935   4.965   3.975 -0.0456  0.2785 -0.3500
 7102TIP3   OH242796   2.449   2.698   1.328 -0.2352 -0.7032 -0.0379
 7102TIP3    H142797   2.369   2.681   1.279  0.3010  1.0230 -1.6354
 7102TIP3    H242798   2.498   2.759   1.273  0.8573  0.5971  2.2534
 7103TIP3   OH242799   2.252   0.069  12.691 -0.6367  0.5179  0.2117
 7103TIP3    H142800   2.204  -0.009  12.665 -1.2540  0.2823  1.9195
 7103TIP3    H242801   2.206   0.141  12.649  0.0518 -0.0111 -1.5349
 7104TIP3   OH242802   0.471   4.707  16.776  0.8030  0.4122  0.1574
 7104TIP3    H142803   0.381   4.734  16.797  0.6880  1.2258 -1.2857
 7104TIP3    H242804   0.471   4.612  16.790 -0.7948  0.1207 -1.4961
 7105TIP3   OH242805   1.274   4.556  13.931 -0.0097  0.1447  0.0596
 7105TIP3    H142806   1.355   4.510  13.907  0.6838 -0.6448  3.3108
 7105TIP3    H242807   1.207   4.487  13.929  0.4627 -0.4677  2.0813
 7106TIP3   OH242808   6.077   2.763  13.761  0.0355  0.5155  0.0311
 7106TIP3    H142809   6.053   2.771  13.668  1.2021  0.9113 -0.2588
 7106TIP3    H242810   6.025   2.830  13.805 -0.8908 -0.0010 -0.2590
 7107TIP3   OH242811   6.397   1.775   2.941 -0.0793  0.0716  0.0097
 7107TIP3    H142812   6.456   1.736   3.005  1.1176  2.5348  0.5382
 7107TIP3    H242813   6.309   1.760   2.976  0.3664 -1.2817  0.6110
 7108TIP3   OH242814   4.182   6.760   5.070 -0.5246 -0.1044  0.5526
 7108TIP3    H142815   4.105   6.814   5.086  0.2613  1.1286  0.3068
 7108TIP3    H242816   4.183   6.746   4.975 -0.6891 -0.5028  0.6073
 7109TIP3   OH242817   6.143   4.996  13.746  0.2528  0.4747  0.5165
 7109TIP3    H142818   6.159   4.957  13.832  0.7897 -0.7571 -0.1218
 7109TIP3    H242819   6.141   4.922  13.686 -0.0493  1.3245 -0.5537
 7110TIP3   OH242820   1.693   2.457  14.792  0.5919  0.1945  0.5741
 7110TIP3    H142821   1.686   2.424  14.882  1.6647  2.5722  1.5994
 7110TIP3    H242822   1.630   2.529  14.787  1.4579  0.9318 -0.1486
 7111TIP3   OH242823   1.642   2.622   4.323 -0.0587 -0.2523  0.4728
 7111TIP3    H142824   1.729   2.653   4.297 -0.5291  0.4415 -0.3163
 7111TIP3    H242825   1.583   2.693   4.298 -0.8854 -0.8222  0.7758
 7112TIP3   OH242826   4.057   4.974  10.620  0.6042  0.3482  0.0393
 7112TIP3    H142827   4.064   4.917  10.543  1.3891 -1.3006  1.2646
 7112TIP3    H242828   3.964   4.971  10.644  0.4912  0.2754 -0.4045
 7113TIP3   OH242829   2.383   1.321  13.987 -0.6301  0.0057 -0.0099
 7113TIP3    H142830   2.353   1.278  13.907 -0.5990  0.6944 -0.3989
 7113TIP3    H242831   2.478   1.318  13.982 -0.5898  1.7842 -0.9808
 7114TIP3   OH242832   4.434   5.250  14.992  0.3397 -0.1780 -0.1238
 7114TIP3    H142833   4.366   5.241  14.926  2.0361 -1.6875 -1.7739
 7114TIP3    H242834   4.449   5.161  15.025  0.8333  0.2736  0.9465
 7115TIP3   OH242835   4.955   1.557   1.954  0.5991 -0.2776 -0.3933
 7115TIP3    H142836   5.010   1.616   1.903  1.6065 -1.5814 -0.8718
 7115TIP3    H242837   4.989   1.564   2.043  0.7102 -0.1273 -0.4470
 7116TIP3   OH242838   4.698   1.255   5.754  0.1791 -0.6456  0.2398
 7116TIP3    H142839   4.647   1.180   5.722 -0.0979 -0.2422 -0.2834
 7116TIP3    H242840   4.751   1.281   5.679 -1.4021  1.1043 -0.3627
 7117TIP3   OH242841   4.861   5.167   5.200  0.0167  0.4032 -0.2336
 7117TIP3    H142842   4.897   5.249   5.235  0.6436 -0.4334  1.1488
 7117TIP3    H242843   4.766   5.177   5.208  0.0670  1.1772 -0.5230
 7118TIP3   OH242844   3.280   2.748  16.901 -0.3039 -0.0741  0.0234
 7118TIP3    H142845   3.305   2.810  16.969 -1.5214 -1.3529  1.7420
 7118TIP3    H242846   3.184   2.754  16.898 -0.2316  1.1155 -2.8018
 7119TIP3   OH242847   5.752   4.052   6.057 -0.4066  0.4907  0.0476
 7119TIP3    H142848   5.700   3.975   6.080  0.4562 -0.6196 -1.5910
 7119TIP3    H242849   5.808   4.024   5.985 -0.2111  2.7141 -0.7589
 7120TIP3   OH242850   6.201   4.331   2.661 -0.7259  0.2969  0.0047
 7120TIP3    H142851   6.170   4.356   2.574 -0.4946  0.4777 -0.0274
 7120TIP3    H242852   6.139   4.371   2.722 -1.6230 -0.8676 -0.1039
 7121TIP3   OH242853   2.204   6.046  15.759  0.2530  0.4633 -0.1501
 7121TIP3    H142854   2.258   6.125  15.756  0.2124  0.4783 -0.5572
 7121TIP3    H242855   2.224   6.006  15.844 -1.1185  1.8754  0.8949
 7122TIP3   OH242856   4.420   3.386   5.473  0.0783  0.2833 -0.1789
 7122TIP3    H142857   4.513   3.387   5.495 -0.2220 -1.7866  1.5851
 7122TIP3    H242858   4.377   3.354   5.553 -1.6354 -3.6184 -2.3508
 7123TIP3   OH242859   5.551   2.658  16.118  0.0751  0.5144 -0.5329
 7123TIP3    H142860   5.472   2.696  16.080 -0.4582 -0.0185  0.0136
 7123TIP3    H242861   5.565   2.708  16.199 -0.5890 -0.3789  0.1522
 7124TIP3   OH242862   6.622   1.628   1.389 -0.0904  0.3149  0.1387
 7124TIP3    H142863   6.616   1.689   1.315  0.9652  1.4958  0.9861
 7124TIP3    H242864   6.562   1.664   1.454  1.5079  1.2730  1.1612
 7125TIP3   OH242865   4.796   3.019  12.973 -0.4918  0.4542  0.3994
 7125TIP3    H142866   4.706   2.998  13.001 -0.6183 -0.5079 -0.6446
 7125TIP3    H242867   4.818   2.949  12.911  1.4758 -0.0611  1.6100
 7126TIP3   OH242868   0.763   5.590  12.523  0.3652 -0.0526  0.6863
 7126TIP3    H142869   0.724   5.646  12.590  2.5948  0.7722  1.4073
 7126TIP3    H242870   0.777   5.506  12.568 -0.1537 -0.2146  0.5536
 7127TIP3   OH242871   5.581   6.308   1.972  0.2002 -0.2056  0.1173
 7127TIP3    H142872   5.669   6.287   2.000 -0.2207 -0.2636  1.4489
 7127TIP3    H242873   5.536   6.339   2.051 -1.0448 -0.4331 -0.4652
 7128TIP3   OH242874   0.828   6.771  16.876  0.4202  0.0700  0.2470
 7128TIP3    H142875   0.791   6.683  16.865  0.1077  0.1152  0.8905
 7128TIP3    H242876   0.798   6.799  16.962  1.0533  0.5511  0.3193
 7129TIP3   OH242877   4.455   2.913   2.289 -0.4759  0.4443 -0.6283
 7129TIP3    H142878   4.468   2.996   2.334  1.6697  0.8689 -1.8825
 7129TIP3    H242879   4.441   2.938   2.197  1.4454 -0.5558 -1.2428
 7130TIP3   OH242880   6.288   1.411   1.239 -0.0373  0.5314  0.4948
 7130TIP3    H142881   6.293   1.344   1.306  1.3929  0.3604  0.2441
 7130TIP3    H242882   6.351   1.383   1.172 -0.1512  1.6004 -0.0811
 7131TIP3   OH242883   5.200   2.276  14.843  0.1677  0.2316  0.2372
 7131TIP3    H142884   5.159   2.190  14.834 -0.8718  0.9181 -3.1627
 7131TIP3    H242885   5.168   2.310  14.927  0.3070 -2.4587  1.4771
 7132TIP3   OH242886   5.980   0.353   0.884  0.3116 -0.3449  0.0317
 7132TIP3    H142887   6.065   0.324   0.852 -0.0680  0.3701 -1.8020
 7132TIP3    H242888   5.943   0.403   0.810 -1.7961 -0.8760  0.6567
 7133TIP3   OH242889   4.366   5.795   0.169 -0.3967  0.3594 -0.0585
 7133TIP3    H142890   4.322   5.879   0.183  0.1370  0.7428 -0.6510
 7133TIP3    H242891   4.436   5.814   0.106  0.5561 -0.2529  0.7729
 7134TIP3   OH242892   2.529   3.796  13.788 -0.5340  0.3059 -0.5376
 7134TIP3    H142893   2.562   3.884  13.810  1.4327 -0.1204 -1.5434
 7134TIP3    H242894   2.448   3.788  13.837  0.6835  1.5997  1.8878
 7135TIP3   OH242895   3.970   5.003  13.903 -0.0723 -0.3728  0.0082
 7135TIP3    H142896   4.004   5.027  13.990  1.3139 -0.2219 -0.5606
 7135TIP3    H242897   3.878   5.030  13.906 -0.0425 -0.3384  1.4195
 7136TIP3   OH242898   0.710   6.832   3.171  0.1364  0.0156  0.1703
 7136TIP3    H142899   0.638   6.839   3.234 -1.6619 -1.2960 -1.5964
 7136TIP3    H242900   0.744   6.921   3.164 -0.0577  0.3411  2.4108
 7137TIP3   OH242901   0.956   6.711  15.903  0.6606  0.0702 -0.0724
 7137TIP3    H142902   0.977   6.783  15.962  0.8235  0.8789 -1.0978
 7137TIP3    H242903   0.895   6.749  15.840  2.3218 -0.0920 -1.8634
 7138TIP3   OH242904   1.020   4.348  16.138  0.4184  0.2273 -0.0707
 7138TIP3    H142905   0.972   4.421  16.100  0.0546  0.5842  1.0168
 7138TIP3    H242906   1.038   4.376  16.228  0.9956 -0.6873  0.1130
 7139TIP3   OH242907   6.716   5.175  12.286 -0.0201  0.0622  0.3312
 7139TIP3    H142908   6.752   5.125  12.359  0.1117  0.5241  0.5807
 7139TIP3    H242909   6.778   5.159  12.214  1.3969  1.8334  1.0905
 7140TIP3   OH242910   3.946   6.595  12.075 -0.0357  0.1290 -0.0121
 7140TIP3    H142911   3.973   6.672  12.024 -0.1182 -0.9942 -1.8654
 7140TIP3    H242912   4.029   6.555  12.103  0.0282  0.3875  0.1759
 7141TIP3   OH242913   2.686   5.119   4.978  0.7383  0.4573  0.2201
 7141TIP3    H142914   2.725   5.031   4.976  0.8471  0.5172 -0.3570
 7141TIP3    H242915   2.652   5.127   5.067 -0.9690 -0.8888 -0.2694
 7142TIP3   OH242916   2.510   3.882   5.834  0.0067  0.0737  0.0046
 7142TIP3    H142917   2.537   3.811   5.776 -1.2398 -1.4316  1.1721
 7142TIP3    H242918   2.567   3.873   5.911 -0.6436 -0.1632  0.4744
 7143TIP3   OH242919   5.451   4.302   2.905  0.1988 -0.5797 -0.0855
 7143TIP3    H142920   5.425   4.380   2.953  0.1090 -0.9776  0.5268
 7143TIP3    H242921   5.429   4.321   2.814 -0.6086 -0.2256  0.1762
 7144TIP3   OH242922   6.045   2.547   2.584  0.0829 -0.0463  0.4302
 7144TIP3    H142923   6.043   2.452   2.570 -1.6018  0.0331 -0.0850
 7144TIP3    H242924   5.996   2.560   2.666 -0.5030  0.4413  0.0102
 7145TIP3   OH242925   1.991   5.391   0.952 -0.3987  0.3867  0.0789
 7145TIP3    H142926   2.036   5.409   0.870 -0.8720  0.9320 -0.0705
 7145TIP3    H242927   1.958   5.476   0.980 -0.8210  0.0941  0.4843
 7146TIP3   OH242928   3.682   5.432  10.728 -0.3134  0.1382  0.1340
 7146TIP3    H142929   3.709   5.514  10.687  0.1943 -0.0982 -0.0198
 7146TIP3    H242930   3.735   5.426  10.807  1.0904 -0.9633 -0.8364
 7147TIP3   OH242931   4.048   0.068   2.419  0.5357  0.2196 -0.2933
 7147TIP3    H142932   3.971   0.108   2.459  1.5991  0.6502  1.4629
 7147TIP3    H242933   4.039  -0.025   2.437  0.5866  0.3145  0.2533
 7148TIP3   OH242934   5.089   3.195   0.568 -0.0004 -0.4692 -0.0461
 7148TIP3    H142935   5.097   3.258   0.497  1.1096 -1.8457 -1.1966
 7148TIP3    H242936   5.174   3.152   0.573  0.2409  0.1211  2.6945
 7149TIP3   OH242937   3.173   0.911   5.637  0.2925 -0.5592  0.3167
 7149TIP3    H142938   3.261   0.885   5.664  0.0943 -0.2279  1.3093
 7149TIP3    H242939   3.131   0.830   5.608  2.2246 -0.2775 -4.2362
 7150TIP3   OH242940   5.405   2.166  12.394  0.2139  0.1414  0.3977
 7150TIP3    H142941   5.416   2.147  12.487  1.6753  2.8173  0.8428
 7150TIP3    H242942   5.484   2.213  12.369 -1.7072  2.7712 -1.2628
 7151TIP3   OH242943   3.285   5.480  16.940 -0.1800 -0.2613  0.2233
 7151TIP3    H142944   3.297   5.529  16.859 -1.0557 -0.4404 -0.0164
 7151TIP3    H242945   3.194   5.495  16.965  0.1684  0.0604  1.3549
 7152TIP3   OH242946   1.087   5.544   2.183 -1.1004  0.0018  0.3052
 7152TIP3    H142947   1.048   5.490   2.252 -0.7908 -0.0950  0.4044
 7152TIP3    H242948   1.127   5.618   2.229 -1.5621  0.3448  0.1656
 7153TIP3   OH242949   1.235   2.007  11.898 -0.3760  0.4507  0.7064
 7153TIP3    H142950   1.279   1.931  11.859 -0.2062  1.0047 -0.2193
 7153TIP3    H242951   1.245   1.995  11.992  0.6097 -0.1158  0.5436
 7154TIP3   OH242952   3.137   4.210  10.380 -0.0555 -0.1329 -0.3801
 7154TIP3    H142953   3.060   4.153  10.378  0.5062 -0.9271 -0.0141
 7154TIP3    H242954   3.186   4.188  10.301  1.8721 -2.6662  1.3471
 7155TIP3   OH242955   5.207   1.192   4.103 -0.3313  0.2543  0.1936
 7155TIP3    H142956   5.247   1.263   4.153  2.4298 -1.5793  0.8739
 7155TIP3    H242957   5.163   1.138   4.169 -0.1667 -0.0085  0.0939
 7156TIP3   OH242958   6.197   4.998   0.973  0.1780  0.2812  0.1979
 7156TIP3    H142959   6.135   4.934   0.938 -0.6961  0.7543  0.8675
 7156TIP3    H242960   6.219   5.053   0.897  2.9053 -2.2511 -1.0670
 7157TIP3   OH242961   5.113   2.830   1.269  0.7103  0.1509  0.3529
 7157TIP3    H142962   5.148   2.876   1.346  0.0987 -0.0748  0.7719
 7157TIP3    H242963   5.117   2.737   1.293  1.6120 -0.0059 -0.3519
 7158TIP3   OH242964   3.337   3.636  16.764 -0.2583  0.0839 -0.6490
 7158TIP3    H142965   3.338   3.602  16.854 -1.7668  0.7812 -0.3394
 7158TIP3    H242966   3.380   3.721  16.770 -0.8889  0.3873 -0.4809
 7159TIP3   OH242967   5.880   6.824   3.058 -0.6829 -0.2701  0.5743
 7159TIP3    H142968   5.786   6.813   3.077 -1.1347 -3.0024 -2.3674
 7159TIP3    H242969   5.924   6.781   3.130 -1.6716  0.4501  1.6567
 7160TIP3   OH242970   0.121   2.748  10.786 -0.6105  0.7806  0.6098
 7160TIP3    H142971   0.210   2.778  10.805  0.4922 -0.4508 -2.1158
 7160TIP3    H242972   0.124   2.653  10.800 -0.5975  0.2889 -2.1166
 7161TIP3   OH242973   5.882   3.822   4.056  0.5950  0.0700  0.3810
 7161TIP3    H142974   5.935   3.884   4.107  1.0280  1.3009 -1.4868
 7161TIP3    H242975   5.810   3.799   4.115  0.8674  1.7083  1.4260
 7162TIP3   OH242976   0.167   0.932  16.131  0.7156 -0.0569  0.0169
 7162TIP3    H142977   0.143   0.944  16.040 -0.9412  1.9587  0.6585
 7162TIP3    H242978   0.086   0.903  16.174  0.7776  1.4629  1.2574
 7163TIP3   OH242979   2.267   3.552  17.207  0.1123  0.1502  0.4233
 7163TIP3    H142980   2.231   3.471  17.170  0.5630  0.6178 -1.1266
 7163TIP3    H242981   2.362   3.539  17.205  0.1695  0.5022  0.7084
 7164TIP3   OH242982   6.030   5.902   1.566 -0.0872  0.2059 -0.2730
 7164TIP3    H142983   5.942   5.878   1.536  0.6710 -1.8966 -0.9900
 7164TIP3    H242984   6.088   5.877   1.494  1.2826 -0.1899  0.9200
 7165TIP3   OH242985   3.670   2.093  13.246  0.0179  0.4287 -0.1419
 7165TIP3    H142986   3.692   2.185  13.234 -0.5020  0.6048  0.2456
 7165TIP3    H242987   3.625   2.089  13.330 -1.8890  0.1643 -1.1039
 7166TIP3   OH242988   4.389   1.955  15.878  0.4598 -0.5311  0.0622
 7166TIP3    H142989   4.478   1.931  15.854  0.3278 -3.5829  1.9879
 7166TIP3    H242990   4.346   1.871  15.897 -2.9875  0.7620 -1.1881
 7167TIP3   OH242991   3.975   2.235   1.132 -0.0382  0.4755 -0.0501
 7167TIP3    H142992   3.914   2.176   1.086 -0.0726  0.1413  0.4245
 7167TIP3    H242993   4.061   2.195   1.119 -0.0046  0.5675 -0.1139
 7168TIP3   OH242994   4.275   5.629   2.961  0.3350  0.0536  0.0587
 7168TIP3    H142995   4.275   5.537   2.934 -0.5016  0.2679 -0.7094
 7168TIP3    H242996   4.195   5.638   3.013  0.0206  0.5142 -0.4936
 7169TIP3   OH242997   2.247   0.864  14.409  0.3765 -0.2822  0.2375
 7169TIP3    H142998   2.244   0.843  14.502 -2.5559  0.5061  0.4284
 7169TIP3    H242999   2.337   0.846  14.383  1.2234 -0.7661  3.1467
 7170TIP3   OH243000   1.440   5.332   5.068 -0.6107 -0.1617 -0.0455
 7170TIP3    H143001   1.446   5.342   5.163  0.0521  0.0262 -0.1006
 7170TIP3    H243002   1.531   5.329   5.039 -0.7826  1.4723 -0.8545
 7171TIP3   OH243003   1.480   5.058   5.672 -0.6717 -0.1371  0.0076
 7171TIP3    H143004   1.506   4.973   5.637  0.0050  0.4023 -0.8342
 7171TIP3    H243005   1.435   5.101   5.599  0.2561  0.7764 -0.0482
 7172TIP3   OH243006   5.779   6.133   5.595  0.8339 -0.5866  0.2053
 7172TIP3    H143007   5.703   6.189   5.585  1.6071  0.3308 -0.8245
 7172TIP3    H243008   5.847   6.174   5.541  1.8415 -1.7657  0.5098
 7173TIP3   OH243009   0.258   3.571   2.943 -0.1981 -0.3936 -0.4636
 7173TIP3    H143010   0.326   3.622   2.987 -0.2070 -0.2478 -0.6214
 7173TIP3    H243011   0.181   3.580   3.000 -0.6868  1.1219 -1.3146
 7174TIP3   OH243012   2.881   3.370  14.799  0.0317 -0.1883 -0.0788
 7174TIP3    H143013   2.934   3.446  14.776 -0.6491  0.1403 -0.6226
 7174TIP3    H243014   2.816   3.404  14.861  0.8963 -0.7444  1.1561
 7175TIP3   OH243015   2.507   2.369  12.272  0.4995  0.0024 -0.0205
 7175TIP3    H143016   2.505   2.305  12.200 -0.9947 -1.8575  1.5546
 7175TIP3    H243017   2.430   2.424  12.256  0.3345 -0.2262 -0.0349
 7176TIP3   OH243018   0.003   1.468   2.595 -0.3723  0.4633  0.0396
 7176TIP3    H143019   0.010   1.538   2.530  0.8780  1.1570  0.8781
 7176TIP3    H243020  -0.038   1.510   2.671  1.5664  0.6802  1.0193
 7177TIP3   OH243021   4.186   3.657  13.600 -0.5077 -0.2081 -0.7502
 7177TIP3    H143022   4.214   3.575  13.640  0.0171 -0.1898 -1.0788
 7177TIP3    H243023   4.257   3.719  13.617 -0.9086  0.1862 -0.4891
 7178TIP3   OH243024   1.184   2.082   2.425 -0.1698  0.0189 -0.5954
 7178TIP3    H143025   1.271   2.046   2.442  0.4993  0.9581 -1.8502
 7178TIP3    H243026   1.180   2.161   2.479 -0.5087 -0.3855 -0.0283
 7179TIP3   OH243027   2.563   4.471   4.635  0.4873  0.2807  0.4538
 7179TIP3    H143028   2.498   4.530   4.675  0.2046  0.5872 -0.4341
 7179TIP3    H243029   2.511   4.415   4.578  1.0513  0.8832 -0.6835
 7180TIP3   OH243030   1.360   5.027  15.624  0.8195  0.2000 -0.6338
 7180TIP3    H143031   1.424   5.011  15.693 -0.3665  0.7077  0.6486
 7180TIP3    H243032   1.356   4.945  15.575  2.1315  0.0290 -0.4810
 7181TIP3   OH243033   1.316   3.323  13.917  0.8375 -0.0776  0.1077
 7181TIP3    H143034   1.302   3.405  13.871  1.2239  0.5915  1.1365
 7181TIP3    H243035   1.248   3.264  13.884 -1.2294  1.5006  1.2859
 7182TIP3   OH243036   5.679   1.584  15.144  0.1842  0.0955  0.1559
 7182TIP3    H143037   5.758   1.560  15.096 -0.0051  0.8610 -0.5495
 7182TIP3    H243038   5.648   1.502  15.181 -0.2282 -0.7037 -1.8594
 7183TIP3   OH243039   0.586   3.448  11.972 -0.0442 -0.2321 -0.3291
 7183TIP3    H143040   0.667   3.406  11.944 -0.1064 -1.3689  1.0672
 7183TIP3    H243041   0.539   3.467  11.891  1.4697  0.1677 -1.1479
 7184TIP3   OH243042   6.443   2.117  14.558  0.1564 -0.2978  0.1781
 7184TIP3    H143043   6.398   2.185  14.608 -0.6914 -0.3694 -0.4562
 7184TIP3    H243044   6.375   2.052  14.539 -0.3474  1.0417 -3.4574
 7185TIP3   OH243045   2.698   3.944   5.563  0.2357 -0.0524  0.2101
 7185TIP3    H143046   2.673   3.951   5.471 -0.8976  1.6574  0.6024
 7185TIP3    H243047   2.765   4.011   5.575 -0.2178  0.3120  0.7948
 7186TIP3   OH243048   0.904   5.517   5.415  0.3173 -0.5337  0.4424
 7186TIP3    H143049   0.853   5.540   5.493 -0.0539  0.3443 -0.0505
 7186TIP3    H243050   0.969   5.588   5.408  0.5279 -0.7604  0.1103
 7187TIP3   OH243051   1.055   3.630   0.643 -0.3438 -0.4557  0.5217
 7187TIP3    H143052   0.962   3.646   0.662 -0.3798 -0.6776  0.5306
 7187TIP3    H243053   1.054   3.559   0.578 -0.1786 -0.4953  0.5626
 7188TIP3   OH243054   0.106   5.025   0.400  0.2925 -0.3874  0.7193
 7188TIP3    H143055   0.035   4.976   0.441  0.9527 -1.3543  0.7272
 7188TIP3    H243056   0.100   5.112   0.439 -1.4682 -0.1624  0.0252
 7189TIP3   OH243057   2.532   1.886   3.546 -0.6223 -0.4454  0.3168
 7189TIP3    H143058   2.553   1.893   3.639  2.0553  2.8768 -0.3183
 7189TIP3    H243059   2.605   1.835   3.509  0.3389  1.3004 -0.3436
 7190TIP3   OH243060   3.703   0.587  11.906  0.1654 -0.5518  0.3812
 7190TIP3    H143061   3.772   0.531  11.943  0.5249  1.0978  2.4533
 7190TIP3    H243062   3.622   0.555  11.947 -0.1173 -1.5475 -0.9112
 7191TIP3   OH243063   2.510   0.071   5.289  0.0801 -0.0422 -0.4988
 7191TIP3    H143064   2.563   0.151   5.293  1.0608 -0.6383 -1.2181
 7191TIP3    H243065   2.420   0.102   5.300  0.4040  1.2183 -1.1720
 7192TIP3   OH243066   0.892   3.831   3.563 -0.1166  0.1672  0.6111
 7192TIP3    H143067   0.930   3.838   3.650 -1.1936 -1.8871  1.3183
 7192TIP3    H243068   0.961   3.860   3.504  0.7854  1.1979  2.0932
 7193TIP3   OH243069   3.015   5.107   1.272  0.8060  0.1571  0.1182
 7193TIP3    H143070   3.062   5.106   1.188  0.3983  0.0430 -0.1140
 7193TIP3    H243071   2.973   5.193   1.275  0.2622 -0.0897 -0.1199
 7194TIP3   OH243072   1.940   1.932   2.864 -0.7742 -0.1902 -0.6261
 7194TIP3    H143073   2.012   1.990   2.840 -1.5209  1.0902  0.0832
 7194TIP3    H243074   1.960   1.850   2.821  0.4812  0.5002 -1.4320
 7195TIP3   OH243075   2.246   1.139   0.750 -0.4582 -0.6912 -0.5624
 7195TIP3    H143076   2.245   1.107   0.660  1.7016 -1.9064 -0.2182
 7195TIP3    H243077   2.339   1.143   0.773 -0.9133  0.5013  1.3195
 7196TIP3   OH243078   2.347   5.960  16.863 -0.0256 -0.6095 -0.9093
 7196TIP3    H143079   2.295   5.984  16.940 -0.1392  0.3167 -1.2544
 7196TIP3    H243080   2.283   5.929  16.800  0.0209 -0.9590 -0.7880
 7197TIP3   OH243081   2.811   0.517  11.136 -0.4386 -0.1749 -0.1880
 7197TIP3    H143082   2.784   0.427  11.123  0.7882 -0.6776  0.5075
 7197TIP3    H243083   2.892   0.511  11.187 -0.1119  1.3005 -0.4615
 7198TIP3   OH243084   3.512   4.380   1.303 -0.5769 -0.3870 -0.0545
 7198TIP3    H143085   3.564   4.351   1.228 -0.9527  0.5671 -0.7028
 7198TIP3    H243086   3.423   4.348   1.284 -1.2739  2.1066 -1.3864
 7199TIP3   OH243087   0.943   3.352   0.211  0.2292 -0.1580  0.1598
 7199TIP3    H143088   0.916   3.404   0.135 -0.5750 -0.7377  0.0288
 7199TIP3    H243089   0.998   3.282   0.174 -0.4191 -0.6241  0.0604
 7200TIP3   OH243090   3.804   5.252  13.646 -0.5174  0.5291 -0.6388
 7200TIP3    H143091   3.732   5.199  13.680 -0.1021  0.2175 -0.2297
 7200TIP3    H243092   3.860   5.190  13.600 -0.0375  0.6092 -0.1705
 7201TIP3   OH243093   2.837   1.113   3.928  0.3104 -0.6759  0.3357
 7201TIP3    H143094   2.861   1.071   4.011 -2.0866 -1.2292  0.8017
 7201TIP3    H243095   2.765   1.171   3.949 -0.4913 -0.9670 -1.3837
 7202TIP3   OH243096   2.624   0.838  16.274  0.4318  0.1307  0.1885
 7202TIP3    H143097   2.649   0.746  16.271 -2.8392 -0.8942  0.2338
 7202TIP3    H243098   2.568   0.850  16.197 -0.4669  1.6526  1.0351
 7203TIP3   OH243099   1.634   5.991   4.285 -0.0469  0.0162 -0.1900
 7203TIP3    H143100   1.671   5.908   4.315  0.5468 -0.0102 -0.9775
 7203TIP3    H243101   1.568   5.966   4.221 -0.5626  0.1146  0.3014
 7204TIP3   OH243102   4.269   2.941  15.966  0.3633 -0.1806 -0.1654
 7204TIP3    H143103   4.318   2.875  15.915 -2.4868 -2.1348 -0.5880
 7204TIP3    H243104   4.213   2.984  15.902  0.4154  0.9867  0.5446
 7205TIP3   OH243105   1.516   4.400  16.691 -0.0428  0.1444 -0.4972
 7205TIP3    H143106   1.552   4.474  16.643  1.5810 -0.5391 -0.3994
 7205TIP3    H243107   1.485   4.340  16.624  2.7459 -1.0735 -0.8296
 7206TIP3   OH243108   6.719   3.665   3.471  0.2945 -0.0958  0.1003
 7206TIP3    H143109   6.727   3.573   3.444 -1.2545  0.3077 -1.9813
 7206TIP3    H243110   6.799   3.706   3.438  1.0349 -0.6677  1.1091
 7207TIP3   OH243111   5.189   5.957   4.892  0.3137 -0.3474 -0.8356
 7207TIP3    H143112   5.138   5.926   4.968 -0.0290 -0.1976 -1.0053
 7207TIP3    H243113   5.268   5.993   4.931  0.1321 -0.2528 -0.5444
 7208TIP3   OH243114   5.250   1.289  16.786  0.2729  0.6523 -0.5233
 7208TIP3    H143115   5.209   1.368  16.751  0.1976  0.9703  0.2772
 7208TIP3    H243116   5.240   1.225  16.715 -1.1173  0.8793 -0.5725
 7209TIP3   OH243117   6.791   2.895   0.268 -0.0663  0.3148  0.5941
 7209TIP3    H143118   6.824   2.806   0.255 -1.0990 -0.1430  1.0588
 7209TIP3    H243119   6.765   2.924   0.180  1.8623  0.8388  0.1326
 7210TIP3   OH243120   5.329   5.240   0.484 -0.3980 -0.7634  0.4116
 7210TIP3    H143121   5.385   5.197   0.420  1.4859 -1.5873  2.4970
 7210TIP3    H243122   5.351   5.199   0.567 -1.4120  1.5207  1.9076
 7211TIP3   OH243123   1.358   4.305  15.000  0.1530  0.3837 -0.1016
 7211TIP3    H143124   1.400   4.277  14.919 -0.6980  0.3941 -0.5539
 7211TIP3    H243125   1.342   4.224  15.048 -0.4630  0.2633 -0.5015
 7212TIP3   OH243126   3.361   5.049   1.916  0.0006  0.0779 -0.2633
 7212TIP3    H143127   3.332   5.133   1.951  0.4795  1.0126 -1.9582
 7212TIP3    H243128   3.457   5.057   1.913  0.0970 -0.8296  0.2633
 7213TIP3   OH243129   3.221   3.330   1.504 -0.3812  0.1762 -0.4518
 7213TIP3    H143130   3.269   3.392   1.560 -0.6481  0.3754 -0.4401
 7213TIP3    H243131   3.287   3.297   1.443  0.3153 -1.3180  1.0372
 7214TIP3   OH243132   1.583   0.150   2.133 -0.1060  0.5299 -0.1723
 7214TIP3    H143133   1.494   0.117   2.145  0.6623 -0.9316  2.2864
 7214TIP3    H243134   1.619   0.098   2.061 -1.6844  2.2964 -2.3594
 7215TIP3   OH243135   3.230   4.922   3.622 -0.4566  0.5067  0.2953
 7215TIP3    H143136   3.197   4.983   3.555 -0.1140 -0.5256 -0.8587
 7215TIP3    H243137   3.309   4.964   3.655 -0.9245  1.2883  0.4468
 7216TIP3   OH243138   6.715   1.526   3.478 -0.3613  0.4537  0.1620
 7216TIP3    H143139   6.645   1.587   3.456 -0.6476  0.0376 -0.1057
 7216TIP3    H243140   6.689   1.444   3.435  0.3852  0.3490 -0.0967
 7217TIP3   OH243141   0.477   4.014  14.044 -0.0951 -0.2085 -0.1527
 7217TIP3    H143142   0.432   4.016  14.128  1.1426 -1.3355  0.5783
 7217TIP3    H243143   0.568   3.994  14.066  0.9621  2.5257 -1.5025
 7218TIP3   OH243144   6.040   4.421   0.982  0.2516 -0.1414 -0.1099
 7218TIP3    H143145   5.947   4.400   0.974 -0.3379  2.3724 -0.8615
 7218TIP3    H243146   6.080   4.383   0.904  0.2089 -2.6243  1.0019
 7219TIP3   OH243147   4.220   1.933   5.891 -0.3195  0.5273  0.2142
 7219TIP3    H143148   4.245   1.841   5.895  0.1860  0.5934 -0.9027
 7219TIP3    H243149   4.129   1.935   5.921 -1.0352 -0.6482 -1.6714
 7220TIP3   OH243150   2.604   3.340  13.965  0.9493  0.3194  0.2686
 7220TIP3    H143151   2.672   3.272  13.967  1.2864  0.6585  0.4910
 7220TIP3    H243152   2.617   3.384  13.880 -0.3981 -1.0174 -0.6768
 7221TIP3   OH243153   6.572   2.735   5.964  0.0879  0.8462  0.5306
 7221TIP3    H143154   6.622   2.816   5.961  1.1546  0.2154  0.7843
 7221TIP3    H243155   6.550   2.722   6.056 -0.4525  1.0552  0.4374
 7222TIP3   OH243156   5.233   1.602   4.131 -0.3138  0.6151 -0.2320
 7222TIP3    H143157   5.263   1.679   4.181 -0.1286 -0.7449  1.9085
 7222TIP3    H243158   5.148   1.627   4.097 -0.8612  1.3604  1.5483
 7223TIP3   OH243159   1.974   5.506  16.655 -0.5376 -0.2620  0.4166
 7223TIP3    H143160   1.969   5.415  16.685  0.4502 -0.9277 -1.2734
 7223TIP3    H243161   1.996   5.556  16.733 -1.1404 -1.4640  1.3892
 7224TIP3   OH243162   4.915   3.693   3.609 -0.2271  0.1359 -0.7432
 7224TIP3    H143163   4.997   3.727   3.643  0.5104 -0.6599 -1.6733
 7224TIP3    H243164   4.850   3.761   3.629  0.6053  0.6726  0.1906
 7225TIP3   OH243165   0.154   5.877  12.685 -0.2236 -0.1375  0.0847
 7225TIP3    H143166   0.136   5.957  12.636  2.3344 -0.2027 -1.1496
 7225TIP3    H243167   0.201   5.821  12.623 -1.1804 -2.2832  1.1825
 7226TIP3   OH243168   5.505   5.903  10.862  0.1317 -0.4146 -0.9921
 7226TIP3    H143169   5.449   5.879  10.787  0.5182 -0.0279 -1.4108
 7226TIP3    H243170   5.589   5.925  10.823 -0.3441  2.2279 -0.7272
 7227TIP3   OH243171   5.582   3.988  15.737 -0.0552  0.3964  0.1675
 7227TIP3    H143172   5.645   4.016  15.803 -0.7748  1.7172  0.3312
 7227TIP3    H243173   5.633   3.978  15.657  0.0608  3.6754 -0.2797
 7228TIP3   OH243174   2.057   5.848  12.419  0.5554 -0.5209 -0.3165
 7228TIP3    H143175   2.012   5.830  12.502  1.7849  1.0772  0.7827
 7228TIP3    H243176   2.150   5.839  12.441  0.9629  1.1071 -1.1787
 7229TIP3   OH243177   4.197   2.800  14.794  0.7528  0.6143 -0.2483
 7229TIP3    H143178   4.104   2.785  14.814  1.1060 -2.0966 -0.3315
 7229TIP3    H243179   4.204   2.788  14.700  1.0633  1.7537 -0.3866
 7230TIP3   OH243180   2.637   4.431  11.865 -0.3662 -0.2414 -0.4406
 7230TIP3    H143181   2.650   4.525  11.874  0.2160 -0.4102  0.6096
 7230TIP3    H243182   2.547   4.422  11.835 -0.6498  0.6209  0.1277
 7231TIP3   OH243183   2.508   4.002  14.626 -0.2590  0.3633  0.2371
 7231TIP3    H143184   2.551   3.916  14.620  1.7842  1.1949  1.7184
 7231TIP3    H243185   2.578   4.065  14.606 -1.3109  1.7310  0.7064
 7232TIP3   OH243186   1.044   1.333   0.429 -0.1693 -0.6284 -0.6971
 7232TIP3    H143187   1.001   1.336   0.514  0.2124 -1.7781 -0.4578
 7232TIP3    H243188   0.975   1.356   0.367 -1.3444 -3.0742 -0.3845
 7233TIP3   OH243189   0.860   4.455  13.215  0.3344  0.7881 -0.1247
 7233TIP3    H143190   0.816   4.503  13.146  1.4814  3.0727  0.6188
 7233TIP3    H243191   0.916   4.392  13.169 -0.4720  0.8312 -1.1857
 7234TIP3   OH243192   2.466   3.225   0.877  0.2721 -0.1167  0.0439
 7234TIP3    H143193   2.406   3.181   0.817  0.8560 -2.6288  1.1696
 7234TIP3    H243194   2.552   3.193   0.853  0.5632 -0.8573  1.8816
 7235TIP3   OH243195   3.087   3.062   1.834  0.3811  0.0186 -0.0412
 7235TIP3    H143196   3.150   3.013   1.781 -2.3510 -1.5524 -2.1406
 7235TIP3    H243197   3.091   3.022   1.920  1.0852 -1.1730 -0.6066
 7236TIP3   OH243198   2.079   4.669  14.624  0.3011  0.1363  0.0667
 7236TIP3    H143199   2.074   4.697  14.716 -0.5291  1.1161 -0.2502
 7236TIP3    H243200   2.120   4.742  14.579 -0.3600  0.1539 -0.5214
 7237TIP3   OH243201   2.529   0.622   1.266  0.3775 -0.2184 -0.1477
 7237TIP3    H143202   2.482   0.551   1.310 -0.8061  1.0329  0.6829
 7237TIP3    H243203   2.606   0.580   1.228 -1.8310 -2.6075 -2.4089
 7238TIP3   OH243204   1.614   4.230  16.434 -0.3700 -0.1556 -0.1698
 7238TIP3    H143205   1.614   4.171  16.509 -2.8985  0.0406  0.0874
 7238TIP3    H243206   1.532   4.209  16.388 -0.0582  1.3836 -1.5068
 7239TIP3   OH243207   0.099   0.445   6.241 -0.0568  0.3132 -0.4180
 7239TIP3    H143208   0.119   0.358   6.275 -0.0021  0.2165 -0.6944
 7239TIP3    H243209   0.055   0.429   6.158 -2.6439  0.4724  0.8188
 7240TIP3   OH243210   2.871   0.107  13.041 -0.5285  0.4408 -0.2444
 7240TIP3    H143211   2.822   0.181  13.076  1.6678  0.6306  2.7789
 7240TIP3    H243212   2.933   0.146  12.979 -1.8999  0.5790 -1.5882
 7241TIP3   OH243213   0.818   0.962  16.626 -0.0229 -0.4672  0.0714
 7241TIP3    H143214   0.806   0.892  16.691 -0.6618  0.3466  0.8528
 7241TIP3    H243215   0.911   0.961  16.606 -0.1053 -1.9119 -0.3631
 7242TIP3   OH243216   5.393   3.025   5.496 -0.3450  0.0963 -0.0066
 7242TIP3    H143217   5.312   2.982   5.470 -0.4726 -0.8298  1.7674
 7242TIP3    H243218   5.463   2.968   5.463 -0.4172  0.3417 -0.6065
 7243TIP3   OH243219   2.970   5.383  16.293 -0.0812  0.1947 -0.1456
 7243TIP3    H143220   3.054   5.340  16.311  1.1509  1.5291 -2.2891
 7243TIP3    H243221   2.975   5.409  16.201 -2.2791  1.5974  0.0496
 7244TIP3   OH243222   4.021   4.821  12.757  0.4263 -0.3872 -0.1583
 7244TIP3    H143223   3.976   4.752  12.806 -1.8256  0.2867 -1.1346
 7244TIP3    H243224   3.964   4.898  12.767  0.1529 -0.0644 -3.2739
 7245TIP3   OH243225   4.702   2.073  15.143  0.1741 -0.0725  0.1308
 7245TIP3    H143226   4.738   1.984  15.142  0.2607 -0.0841  1.5421
 7245TIP3    H243227   4.612   2.063  15.113  0.0048 -0.7473  0.8258
 7246TIP3   OH243228   3.353   3.749   1.494  0.0056 -0.2852  0.3563
 7246TIP3    H143229   3.265   3.776   1.470  0.4342  0.6229 -0.2988
 7246TIP3    H243230   3.353   3.745   1.589 -0.5989  0.2299  0.3809
 7247TIP3   OH243231   1.906   3.435   1.110  0.7512 -0.2504 -0.5264
 7247TIP3    H143232   1.813   3.426   1.093  0.7859  0.5405 -1.1637
 7247TIP3    H243233   1.920   3.390   1.193 -0.5441  1.2927  0.5795
 7248TIP3   OH243234   5.351   2.284  16.588  0.3872  0.1859  0.2049
 7248TIP3    H143235   5.329   2.284  16.495 -0.7628  0.9071  0.4548
 7248TIP3    H243236   5.377   2.194  16.606  0.3348 -0.0354 -0.7512
 7249TIP3   OH243237   5.101   6.161  16.736 -0.0684 -0.3429  0.0962
 7249TIP3    H143238   5.118   6.088  16.676  0.4058 -0.7962  0.7657
 7249TIP3    H243239   5.183   6.173  16.783 -0.2831  0.3362  0.3120
 7250TIP3   OH243240   6.400   1.861  14.756  0.4771 -0.1119 -0.2423
 7250TIP3    H143241   6.459   1.823  14.691 -0.5262 -0.8992 -0.7085
 7250TIP3    H243242   6.335   1.909  14.704 -0.0914 -0.4028  0.1908
 7251TIP3   OH243243   3.751   2.586  13.352  0.2915  0.3132 -0.2310
 7251TIP3    H143244   3.815   2.649  13.319 -0.2420  0.3529 -1.2080
 7251TIP3    H243245   3.674   2.639  13.372  0.1990  0.1164 -0.0638
 7252TIP3   OH243246   0.867   1.132  10.783 -0.0693  0.3429  0.5589
 7252TIP3    H143247   0.847   1.119  10.876  0.7772 -1.6709  0.5106
 7252TIP3    H243248   0.805   1.076  10.737  0.6525 -0.0176  0.0130
 7253TIP3   OH243249   2.713   1.356   5.435  0.1279 -0.0292 -0.4400
 7253TIP3    H143250   2.800   1.353   5.396  0.8558  0.0774  1.1046
 7253TIP3    H243251   2.679   1.443   5.412  1.3800  0.8412  0.8469
 7254TIP3   OH243252   6.776   3.722  13.686  0.0735 -0.1136 -0.3583
 7254TIP3    H143253   6.810   3.750  13.601 -0.2562  0.3561 -0.3395
 7254TIP3    H243254   6.809   3.633  13.697 -0.0681 -0.2645 -1.0832
 7255TIP3   OH243255   3.566   1.251   1.085 -0.2410 -0.3642 -0.1203
 7255TIP3    H143256   3.635   1.200   1.042  0.1343 -0.5704  0.7253
 7255TIP3    H243257   3.510   1.186   1.128 -2.0113 -0.3681 -2.2075
 7256TIP3   OH243258   4.261   3.504   0.784  0.9446 -0.4389 -0.3252
 7256TIP3    H143259   4.173   3.486   0.751  0.3596 -0.5304  1.2020
 7256TIP3    H243260   4.313   3.522   0.706 -0.8011  1.3304 -1.1514
 7257TIP3   OH243261   6.358   0.344   3.880  0.3198  0.0017  1.1756
 7257TIP3    H143262   6.412   0.273   3.913  0.3858 -0.3728  0.2832
 7257TIP3    H243263   6.355   0.330   3.786 -0.8250  0.3796  1.1471
 7258TIP3   OH243264   0.894   3.478  16.631 -0.3004  0.2109 -0.7659
 7258TIP3    H143265   0.959   3.544  16.654 -2.1275  2.4526 -1.5174
 7258TIP3    H243266   0.903   3.410  16.697  2.6852  0.4547 -0.8198
 7259TIP3   OH243267   2.883   3.641  12.358 -0.2231 -0.8589 -0.1533
 7259TIP3    H143268   2.832   3.678  12.286 -0.6478  0.5881  0.8316
 7259TIP3    H243269   2.845   3.554  12.372 -2.6715  0.2142  0.6557
 7260TIP3   OH243270   2.072   5.671  15.474  0.0724  0.5147 -0.3430
 7260TIP3    H143271   2.109   5.635  15.393 -0.9920 -3.3214  0.6836
 7260TIP3    H243272   2.134   5.643  15.542 -1.1382  0.0365  0.5907
 7261TIP3   OH243273   0.112   5.243   3.555  0.0615  0.2265 -0.4608
 7261TIP3    H143274   0.093   5.268   3.464 -0.4422  2.0149  0.0921
 7261TIP3    H243275   0.074   5.156   3.565  0.2704 -0.0688 -2.0048
 7262TIP3   OH243276   2.815   2.810   2.418  0.1214  0.2966 -0.0233
 7262TIP3    H143277   2.723   2.837   2.408 -0.0255 -0.2229 -0.1170
 7262TIP3    H243278   2.845   2.797   2.328  0.6771  1.6877 -0.0741
 7263TIP3   OH243279   6.661   0.770   0.452  0.0752 -0.1951  0.4387
 7263TIP3    H143280   6.723   0.788   0.381 -1.3398 -0.7633 -1.0037
 7263TIP3    H243281   6.607   0.849   0.457 -0.4443 -0.5362  0.2169
 7264TIP3   OH243282   2.511   2.695  14.738 -0.0007 -0.5446  0.1648
 7264TIP3    H143283   2.580   2.654  14.685  0.7411  0.9479 -0.0672
 7264TIP3    H243284   2.431   2.679  14.688  0.1508 -2.1976  0.3767
 7265TIP3   OH243285   0.798   1.960   0.364 -0.6064 -0.0364 -0.5417
 7265TIP3    H143286   0.794   1.912   0.282 -0.1746 -0.0093 -0.5801
 7265TIP3    H243287   0.729   1.922   0.418  0.8130 -1.8929  0.0827
 7266TIP3   OH243288   3.655   3.855  10.315 -0.0875 -0.2123  0.1738
 7266TIP3    H143289   3.646   3.779  10.373  1.1115  0.5321  1.3981
 7266TIP3    H243290   3.727   3.832  10.257  0.3436  0.0119  0.6111
 7267TIP3   OH243291   2.375   0.036   2.697 -0.2686 -0.5550 -0.4401
 7267TIP3    H143292   2.371   0.030   2.601 -1.0694  0.9320 -0.5161
 7267TIP3    H243293   2.289   0.006   2.726 -0.4441  0.1019 -0.2637
 7268TIP3   OH243294   5.544   0.169  13.428  0.5054 -0.3140 -0.2633
 7268TIP3    H143295   5.639   0.178  13.437  0.3330  2.1947 -0.1185
 7268TIP3    H243296   5.533   0.113  13.351  2.1123 -0.1184 -0.6786
 7269TIP3   OH243297   0.099   4.363  15.411 -0.7607  0.1845 -0.2180
 7269TIP3    H143298   0.147   4.361  15.329 -2.3672  0.2326 -1.2045
 7269TIP3    H243299   0.045   4.284  15.410 -0.6592  0.0746  0.9004
 7270TIP3   OH243300   1.720   2.595   5.130  0.7059 -0.4098 -0.2502
 7270TIP3    H143301   1.782   2.666   5.115  1.0415 -0.4415  0.9050
 7270TIP3    H243302   1.683   2.614   5.216  1.3280 -2.0280  0.3976
 7271TIP3   OH243303   6.405   6.379   2.440 -0.1093  0.5515  0.4379
 7271TIP3    H143304   6.348   6.404   2.367 -0.8617  1.1477  1.2173
 7271TIP3    H243305   6.346   6.363   2.513  0.6675  0.4134  1.0528
 7272TIP3   OH243306   4.609   0.893  16.920  0.5742  0.3255  0.2249
 7272TIP3    H143307   4.683   0.914  16.863  0.1336 -0.0295 -0.4950
 7272TIP3    H243308   4.628   0.804  16.952  0.5683  0.3257  0.2294
 7273TIP3   OH243309   0.176   3.677   1.161  0.1804  0.2642 -0.2586
 7273TIP3    H143310   0.271   3.685   1.153  0.2089  1.5240  0.9750
 7273TIP3    H243311   0.152   3.609   1.097  2.0126 -0.7795  0.0821
 7274TIP3   OH243312   2.691   2.168   5.878 -0.1620 -0.1700 -0.1115
 7274TIP3    H143313   2.641   2.246   5.856 -1.3266 -0.1750  2.2149
 7274TIP3    H243314   2.647   2.097   5.832 -0.3379  0.2716 -0.6234
 7275TIP3   OH243315   4.351   2.169  16.057 -0.2276  0.0908 -0.3887
 7275TIP3    H143316   4.348   2.082  16.018 -0.1963 -0.9438  1.8143
 7275TIP3    H243317   4.408   2.219  15.998 -1.2267 -0.9689 -2.3744
 7276TIP3   OH243318   6.337   3.647   2.230 -0.2890  0.1664  0.5481
 7276TIP3    H143319   6.372   3.604   2.152  0.6699 -1.2329  1.6939
 7276TIP3    H243320   6.387   3.728   2.238  0.7785 -0.4800  0.6131
 7277TIP3   OH243321   5.862   1.925  13.327  0.5259  0.3605  0.2080
 7277TIP3    H143322   5.932   1.864  13.304 -0.0461  0.2840 -1.5345
 7277TIP3    H243323   5.831   1.958  13.242 -0.3383  1.7581  1.0273
 7278TIP3   OH243324   5.571   4.869   5.485  0.5711  0.0390  0.2541
 7278TIP3    H143325   5.614   4.929   5.545  0.3519 -0.3975  0.8635
 7278TIP3    H243326   5.483   4.904   5.474  1.0725  0.9534 -1.0233
 7279TIP3   OH243327   3.745   3.125  12.089  0.0696 -0.3650 -0.2869
 7279TIP3    H143328   3.673   3.175  12.128  0.6878 -0.4164  0.9791
 7279TIP3    H243329   3.819   3.140  12.149  0.8895 -0.9424 -1.1396
 7280TIP3   OH243330   6.725   6.678  14.682  0.4422 -0.0173 -0.3612
 7280TIP3    H143331   6.680   6.662  14.765  1.9147 -0.0701  0.4485
 7280TIP3    H243332   6.674   6.749  14.641 -0.4868 -0.2094  0.4193
 7281TIP3   OH243333   2.988   1.123  12.829 -0.4337  0.1175  0.2582
 7281TIP3    H143334   3.066   1.151  12.876  0.8660 -0.9973 -1.1396
 7281TIP3    H243335   2.940   1.204  12.811  0.7682  0.9103  0.5188
 7282TIP3   OH243336   4.527   0.514  16.845  0.0297 -0.4670  0.1926
 7282TIP3    H143337   4.463   0.556  16.903 -0.1977 -0.0651 -0.3410
 7282TIP3    H243338   4.612   0.536  16.883 -0.0885  0.4041 -0.0196
 7283TIP3   OH243339   0.441   2.377  16.029 -0.2768  0.3968  0.0814
 7283TIP3    H143340   0.421   2.323  16.106  3.3000 -0.0638  0.8459
 7283TIP3    H243341   0.483   2.317  15.968 -0.0639  1.4700 -0.8576
 7284TIP3   OH243342   2.019   3.336  16.279  0.4340 -0.0965  0.0352
 7284TIP3    H143343   1.979   3.407  16.228 -1.1460  0.2839  1.7267
 7284TIP3    H243344   2.107   3.367  16.297 -0.3156  1.6049  0.9893
 7285TIP3   OH243345   5.770   2.068  15.289  0.1022 -0.4742  0.1707
 7285TIP3    H143346   5.718   2.133  15.242 -0.6390  0.1539  1.7826
 7285TIP3    H243347   5.745   1.984  15.250  0.3461  0.0987 -1.2740
 7286TIP3   OH243348   2.919   0.259   0.830  0.1041 -0.2942  0.1890
 7286TIP3    H143349   2.876   0.317   0.767  0.4328  0.6819  0.8446
 7286TIP3    H243350   2.950   0.317   0.899  0.1527 -1.2966  1.0347
 7287TIP3   OH243351   3.498   3.150  11.215  0.2236 -0.8875  0.0277
 7287TIP3    H143352   3.526   3.208  11.285 -1.3843 -1.3131  1.0545
 7287TIP3    H243353   3.544   3.068  11.232 -0.1266 -0.9744  0.5670
 7288TIP3   OH243354   5.003   0.108  16.461  0.1429  0.1182  0.5837
 7288TIP3    H143355   5.090   0.078  16.437  0.8041  2.1054  0.3457
 7288TIP3    H243356   4.947   0.032  16.448  1.3044 -0.3661 -2.2868
 7289TIP3   OH243357   4.468   5.663  12.149 -0.0570 -0.0647  0.0632
 7289TIP3    H143358   4.414   5.687  12.224  0.9192  0.3991  0.6335
 7289TIP3    H243359   4.425   5.585  12.113 -1.2972  0.4821  0.2807
 7290TIP3   OH243360   2.266   2.011   4.592  0.3138  0.0535 -0.4566
 7290TIP3    H143361   2.305   1.928   4.565  0.7728 -0.0879  0.5938
 7290TIP3    H243362   2.192   1.986   4.648  1.2647  0.3297  0.9755
 7291TIP3   OH243363   2.014   3.852  14.902 -0.0838 -0.3911 -0.0976
 7291TIP3    H143364   2.059   3.932  14.874 -0.0789  0.9782  3.2884
 7291TIP3    H243365   2.041   3.786  14.839  0.5720  2.0528 -2.5971
 7292TIP3   OH243366   5.815   4.833  15.058 -0.1982  0.0101  0.2793
 7292TIP3    H143367   5.856   4.759  15.013  0.2467  0.6442 -0.3724
 7292TIP3    H243368   5.744   4.794  15.108 -0.9398 -0.6827 -1.2497
 7293TIP3   OH243369   4.587   3.326  16.027 -0.0211 -0.5903 -0.0831
 7293TIP3    H143370   4.625   3.390  16.087 -0.5016 -2.1210  1.9983
 7293TIP3    H243371   4.646   3.250  16.033 -1.1309 -1.4802 -0.0051
 7294TIP3   OH243372   1.125   1.847  14.572  0.2538 -0.6268 -0.1085
 7294TIP3    H143373   1.216   1.848  14.542 -0.6044 -0.6911 -3.0273
 7294TIP3    H243374   1.075   1.819  14.495 -2.3491  0.3422  1.1189
 7295TIP3   OH243375   0.534   3.193  13.605  0.2192  0.2446  0.3258
 7295TIP3    H143376   0.521   3.138  13.527 -0.7038 -0.4144  0.9235
 7295TIP3    H243377   0.482   3.271  13.587  0.5214  0.3806  0.0169
 7296TIP3   OH243378   3.548   5.961   2.054 -0.2832 -0.0599 -0.6113
 7296TIP3    H143379   3.636   5.941   2.022 -0.2100 -0.3325 -0.2445
 7296TIP3    H243380   3.507   6.009   1.982  0.2983  0.4099 -0.6425
 7297TIP3   OH243381   0.445   3.299   3.527 -0.4259 -0.6206 -0.1109
 7297TIP3    H143382   0.386   3.339   3.463 -1.3190  1.0611  1.6324
 7297TIP3    H243383   0.391   3.288   3.606  1.3413  0.1850  1.2853
 7298TIP3   OH243384   4.671   5.344   1.418 -0.2693  0.4008  0.5702
 7298TIP3    H143385   4.715   5.429   1.415  1.1392 -0.2452  1.7877
 7298TIP3    H243386   4.640   5.330   1.329  0.6523  1.5720  0.0337
 7299TIP3   OH243387   2.001   1.902   0.557  0.3386  0.3754  0.8067
 7299TIP3    H143388   1.952   1.831   0.516  0.4112  0.1688  1.0762
 7299TIP3    H243389   1.960   1.913   0.643 -0.5487  1.5590  0.2614
 7300TIP3   OH243390   3.887   6.208  16.411  0.6264 -0.4018  0.1141
 7300TIP3    H143391   3.910   6.298  16.387 -0.0405 -0.0158  0.8815
 7300TIP3    H243392   3.952   6.184  16.477  1.2694 -0.7628 -0.6410
 7301TIP3   OH243393   5.312   4.895   0.277 -0.3945 -0.5372  0.5989
 7301TIP3    H143394   5.218   4.880   0.289 -0.3864 -1.2690 -0.1865
 7301TIP3    H243395   5.353   4.860   0.356 -0.7224 -0.9133  0.6055
 7302TIP3   OH243396   1.844   4.831   1.283 -0.0464  0.2810  0.4826
 7302TIP3    H143397   1.769   4.878   1.320 -0.5784  0.5650 -0.8931
 7302TIP3    H243398   1.905   4.899   1.257  0.7395  0.0459  1.6472
 7303TIP3   OH243399   1.443   4.685   5.273 -0.6974  0.0662  0.5824
 7303TIP3    H143400   1.530   4.667   5.237 -1.0522  2.1224 -1.5966
 7303TIP3    H243401   1.387   4.618   5.235 -0.6140  0.7192 -0.7436
 7304TIP3   OH243402   2.992   1.617  16.967 -0.0471  0.3147  0.0098
 7304TIP3    H143403   2.981   1.554  16.896 -0.9169 -0.2073  0.5901
 7304TIP3    H243404   2.903   1.634  16.998  0.3390  0.2613  1.1996
 7305TIP3   OH243405   1.820   5.554   0.257 -0.0998  0.2077  0.2303
 7305TIP3    H143406   1.788   5.466   0.235 -1.1016  0.5288  0.3812
 7305TIP3    H243407   1.904   5.560   0.211 -0.6962 -0.2924 -0.9813
 7306TIP3   OH243408   0.434   1.862  14.020 -0.0756  0.2330  0.0308
 7306TIP3    H143409   0.443   1.952  13.988 -1.9453  0.2026 -0.7131
 7306TIP3    H243410   0.462   1.867  14.111 -1.5590  1.9210  0.4553
 7307TIP3   OH243411   5.008   5.146   5.854 -0.6805  0.2347 -0.7948
 7307TIP3    H143412   4.958   5.070   5.826 -1.1144  0.5748 -0.9526
 7307TIP3    H243413   4.944   5.216   5.862 -0.6946  0.0330  1.6576
 7308TIP3   OH243414   5.246   3.345  13.553  0.9903 -0.3467  0.2797
 7308TIP3    H143415   5.168   3.298  13.522  1.7854 -0.1719 -2.2715
 7308TIP3    H243416   5.289   3.284  13.612 -0.8259 -0.6081  1.4263
 7309TIP3   OH243417   2.447   2.635   2.593 -0.1761 -0.0838  0.8690
 7309TIP3    H143418   2.402   2.701   2.541 -0.4771 -0.3010  0.8478
 7309TIP3    H243419   2.380   2.569   2.611 -0.4258  0.5671  2.5605
 7310TIP3   OH243420   0.030   2.042   3.904  1.0005 -0.2322  0.3126
 7310TIP3    H143421   0.002   2.005   3.820  0.9697 -1.5689  0.8759
 7310TIP3    H243422   0.073   2.124   3.881 -3.3080  2.0303 -0.6051
 7311TIP3   OH243423   1.669   0.054   3.657 -0.2951 -0.1926 -0.5128
 7311TIP3    H143424   1.742   0.103   3.694 -1.3497  0.6460  0.5138
 7311TIP3    H243425   1.702   0.021   3.573  1.4781 -0.4240  0.2373
 7312TIP3   OH243426   4.211   0.969  13.565  0.9078 -0.2240 -0.0954
 7312TIP3    H143427   4.226   0.888  13.516  1.1898  0.0877 -0.5298
 7312TIP3    H243428   4.272   1.032  13.527 -0.5850  0.7185 -1.0443
 7313TIP3   OH243429   1.359   0.137   4.345  0.0929 -0.3022 -0.0990
 7313TIP3    H143430   1.448   0.102   4.331  1.6152  2.5786  1.3904
 7313TIP3    H243431   1.348   0.201   4.274 -0.4247 -0.0230  0.2325
 7314TIP3   OH243432   3.071   4.462  15.085 -0.0799  0.5058  0.0320
 7314TIP3    H143433   3.091   4.537  15.029 -0.2999  0.9170  0.4798
 7314TIP3    H243434   3.153   4.414  15.093  0.7018  1.9507  1.5457
 7315TIP3   OH243435   4.762   5.004   0.085  0.8354  0.2762 -0.5503
 7315TIP3    H143436   4.740   5.004  -0.008 -0.4368  1.0231 -0.2656
 7315TIP3    H243437   4.858   4.999   0.087  0.9829  1.7690 -1.9401
 7316TIP3   OH243438   3.499   6.444   5.499  0.6085 -0.0160  0.2760
 7316TIP3    H143439   3.583   6.423   5.458  0.9373 -0.8370  1.3218
 7316TIP3    H243440   3.491   6.381   5.570 -0.7467  0.2735  0.3987
 7317TIP3   OH243441   0.373   1.496   1.096  0.5745  0.1313  0.0035
 7317TIP3    H143442   0.411   1.559   1.158  1.4621 -0.1685 -0.2169
 7317TIP3    H243443   0.342   1.549   1.024  1.9033  0.2882 -0.4778
 7318TIP3   OH243444   5.990   4.476   2.752 -0.2311 -0.0742 -0.2173
 7318TIP3    H143445   5.987   4.497   2.659 -1.5993  0.3227 -0.1050
 7318TIP3    H243446   5.948   4.550   2.795  1.0241  0.0955  0.8021
 7319TIP3   OH243447   0.075   5.032  15.081  0.0143  0.1657 -0.7210
 7319TIP3    H143448   0.074   4.942  15.047  1.5132 -0.0256 -0.3155
 7319TIP3    H243449   0.036   5.084  15.011 -0.8292 -0.7809 -0.9884
 7320TIP3   OH243450   1.665   3.223   2.148 -0.3045 -0.1878 -0.2991
 7320TIP3    H143451   1.666   3.257   2.059  0.2841 -1.1416 -0.6740
 7320TIP3    H243452   1.615   3.287   2.198 -0.8130  0.2541 -1.3560
 7321TIP3   OH243453   2.089   1.912   3.706  0.4334 -0.0951 -0.4279
 7321TIP3    H143454   2.116   1.823   3.729 -1.0635 -0.3189  0.6333
 7321TIP3    H243455   2.009   1.901   3.656  1.6776  0.5828 -2.7080
 7322TIP3   OH243456   2.968   2.161  12.936 -0.1774  0.7865 -0.4279
 7322TIP3    H143457   2.936   2.219  12.867 -0.9106 -0.4775 -1.1984
 7322TIP3    H243458   2.929   2.076  12.915  0.9582 -0.0128  0.5903
 7323TIP3   OH243459   1.774   5.309   0.520  0.4083 -0.5030  0.0064
 7323TIP3    H143460   1.736   5.352   0.596 -0.4978  1.3021 -1.3766
 7323TIP3    H243461   1.699   5.268   0.476  0.6862 -0.3216 -0.6494
 7324TIP3   OH243462   0.328   1.869   5.844 -0.5883  0.5115  0.1300
 7324TIP3    H143463   0.404   1.921   5.821 -0.8753  1.3545  1.0417
 7324TIP3    H243464   0.364   1.788   5.879 -0.1363  0.4680 -0.4178
 7325TIP3   OH243465   3.718   4.455  15.413  0.1439  0.0876 -0.0177
 7325TIP3    H143466   3.627   4.432  15.399  0.1159  0.8056 -1.1602
 7325TIP3    H243467   3.722   4.549  15.395  1.4341 -0.2622 -1.8981
 7326TIP3   OH243468   0.084   3.820   4.239  0.9072  0.1012  0.0512
 7326TIP3    H143469   0.134   3.756   4.189  0.6577 -0.3045  0.3135
 7326TIP3    H243470   0.150   3.862   4.295  0.7661 -1.5002  1.5199
 7327TIP3   OH243471   6.642   1.600   5.316 -0.6319 -0.3474 -0.3142
 7327TIP3    H143472   6.696   1.544   5.373 -0.6557  0.1252  0.1796
 7327TIP3    H243473   6.626   1.547   5.238  1.1492 -0.2445 -0.7848
 7328TIP3   OH243474   5.168   2.377  13.819 -0.3214  0.2528  0.0165
 7328TIP3    H143475   5.154   2.312  13.888  0.2078 -0.0831 -0.1876
 7328TIP3    H243476   5.259   2.364  13.793  0.2109  1.9661  0.8947
 7329TIP3   OH243477   0.904   3.832  12.194  0.1927 -0.2410  0.4133
 7329TIP3    H143478   0.833   3.771  12.177  0.5540 -0.1242 -1.7228
 7329TIP3    H243479   0.886   3.907  12.137  2.6588 -0.7718 -1.2369
 7330TIP3   OH243480   2.664   2.875   3.645  0.2780 -0.8966 -0.0246
 7330TIP3    H143481   2.718   2.802   3.615  0.7220 -0.5509 -0.0790
 7330TIP3    H243482   2.692   2.949   3.591 -0.9732 -0.9444 -0.7854
 7331TIP3   OH243483   5.415   0.403  13.293  0.4054  0.2016  0.4412
 7331TIP3    H143484   5.451   0.367  13.374  1.3707  1.7862  0.7758
 7331TIP3    H243485   5.376   0.329  13.248  3.6881 -1.6378  0.2849
 7332TIP3   OH243486   2.882   3.385   4.110  0.0790  0.6723 -0.2102
 7332TIP3    H143487   2.807   3.443   4.099  0.1769  0.9194  0.4012
 7332TIP3    H243488   2.957   3.444   4.121  0.0644  0.4698  1.2398
 7333TIP3   OH243489   2.683   4.960  14.175  0.4739  0.0740 -0.5367
 7333TIP3    H143490   2.637   4.895  14.228 -1.4413  1.2794 -0.6201
 7333TIP3    H243491   2.754   4.911  14.133 -1.6516 -2.3015 -1.6385
 7334TIP3   OH243492   0.316   5.260   3.880 -0.1806 -0.1764  0.1394
 7334TIP3    H143493   0.395   5.249   3.827  0.2819 -2.4652  1.1676
 7334TIP3    H243494   0.263   5.322   3.831  2.1478  1.3020 -0.6882
 7335TIP3   OH243495   5.583   1.042  14.673 -0.3054 -0.5528 -0.6163
 7335TIP3    H143496   5.622   0.956  14.688  0.9803  0.1538  0.2288
 7335TIP3    H243497   5.520   1.027  14.602  0.0102 -2.1455 -0.6065
 7336TIP3   OH243498   2.730   2.111   5.102 -0.1870 -0.2145 -0.3706
 7336TIP3    H143499   2.677   2.185   5.134  1.2323  0.2722  0.9747
 7336TIP3    H243500   2.817   2.126   5.139  0.9912 -0.8913 -2.6741
 7337TIP3   OH243501   3.286   2.370   1.279  0.1819 -0.2225  0.1380
 7337TIP3    H143502   3.297   2.287   1.232  0.4564 -0.5883  0.8324
 7337TIP3    H243503   3.310   2.437   1.215  0.7445 -0.7170 -0.1799
 7338TIP3   OH243504   2.209   5.070   4.243 -0.4328 -0.1815 -0.3416
 7338TIP3    H143505   2.140   5.106   4.187 -3.3031 -0.2907  2.8027
 7338TIP3    H243506   2.218   5.134   4.314 -0.4194 -2.1662  1.5586
 7339TIP3   OH243507   4.268   3.292  14.902 -0.3489 -0.1543 -0.2255
 7339TIP3    H143508   4.300   3.219  14.849  1.6990  1.6619 -1.6809
 7339TIP3    H243509   4.178   3.305  14.873 -0.2439 -1.1147 -1.0670
 7340TIP3   OH243510   0.731   2.406   3.565 -0.6239 -0.3786 -0.5979
 7340TIP3    H143511   0.727   2.497   3.597 -1.9647 -0.8653  0.7398
 7340TIP3    H243512   0.820   2.397   3.531 -0.3750  1.3540 -0.5084
 7341TIP3   OH243513   2.004   2.113   1.407 -0.5758  0.2002 -0.2677
 7341TIP3    H143514   1.966   2.199   1.423 -2.5730 -0.6970  0.0699
 7341TIP3    H243515   1.944   2.052   1.448 -0.3164 -1.5135 -2.2607
 7342TIP3   OH243516   1.613   2.715  14.153 -0.8820  0.1339  0.8152
 7342TIP3    H143517   1.532   2.689  14.196 -1.7290 -0.5806 -1.1069
 7342TIP3    H243518   1.676   2.724  14.224 -2.3878 -0.2191  2.2627
 7343TIP3   OH243519   4.435   4.273  12.833  0.5172  0.0551 -0.3734
 7343TIP3    H143520   4.427   4.179  12.848 -0.4050 -0.2561 -2.4109
 7343TIP3    H243521   4.521   4.283  12.791  0.7502  0.1658  0.1299
 7344TIP3   OH243522   3.550   0.138  14.876  0.8510  0.1421  0.4102
 7344TIP3    H143523   3.527   0.095  14.793  0.3435  0.6141  0.3016
 7344TIP3    H243524   3.624   0.087  14.909  0.2626 -0.8374  0.2904
 7345TIP3   OH243525   1.374   3.058  10.739 -0.3440 -0.2230 -0.1566
 7345TIP3    H143526   1.467   3.035  10.739 -0.0592  0.8627  0.1588
 7345TIP3    H243527   1.329   2.974  10.730  0.6670 -0.7459 -0.5864
 7346TIP3   OH243528   2.317   3.455   5.958 -0.1513  0.2536 -0.0389
 7346TIP3    H143529   2.333   3.530   6.015  0.5705 -0.2845  0.4837
 7346TIP3    H243530   2.386   3.393   5.980  1.1021  0.6103 -2.5634
 7347TIP3   OH243531   0.584   2.836   2.261  0.1704  0.1845 -0.1289
 7347TIP3    H143532   0.642   2.764   2.284 -0.1993  0.1297  0.6666
 7347TIP3    H243533   0.616   2.868   2.177  1.1523 -0.0439  0.1552
 7348TIP3   OH243534   2.119   1.452   3.968 -0.3942 -0.1592  0.1902
 7348TIP3    H143535   2.201   1.500   3.981 -0.1629 -0.6333  0.4821
 7348TIP3    H243536   2.072   1.462   4.051 -0.3388 -0.4503  0.2570
 7349TIP3   OH243537   5.594   1.993  16.339 -0.3681 -0.1197 -0.9528
 7349TIP3    H143538   5.565   1.917  16.289  1.2174 -1.0131 -0.5534
 7349TIP3    H243539   5.578   2.067  16.281  0.2966 -1.0054 -2.3196
 7350TIP3   OH243540   1.721   2.862  13.613 -0.1810  0.1437  0.5292
 7350TIP3    H143541   1.760   2.815  13.538 -1.9667 -2.6000  1.1733
 7350TIP3    H243542   1.789   2.861  13.680 -0.0937 -1.4673  0.4555
 7351TIP3   OH243543   6.604   4.033   0.652  0.0557  0.6139 -0.3612
 7351TIP3    H143544   6.622   4.084   0.573  1.0501 -0.1405 -0.6435
 7351TIP3    H243545   6.688   3.994   0.675 -0.2431  0.7326  1.0150
 7352TIP3   OH243546   4.190   5.406  12.773 -0.3437  0.0173 -0.0935
 7352TIP3    H143547   4.249   5.331  12.763  0.6631  0.8995 -0.9987
 7352TIP3    H243548   4.215   5.446  12.856 -0.9440 -0.6803  0.4377
 7353TIP3   OH243549   6.361   0.940  14.364  0.3140  0.4310 -0.3316
 7353TIP3    H143550   6.440   0.895  14.393  0.4661  0.2857 -0.9532
 7353TIP3    H243551   6.307   0.947  14.443  1.2034  1.0885  0.2391
 7354TIP3   OH243552   0.009   6.522   0.478 -0.7276 -0.5581  0.8128
 7354TIP3    H143553  -0.005   6.470   0.399 -0.0436  0.8814 -0.2889
 7354TIP3    H243554   0.065   6.467   0.533  0.4305 -0.7918 -0.5496
 7355TIP3   OH243555   2.726   3.120   3.035  0.3907  0.3007  0.1789
 7355TIP3    H143556   2.754   3.071   2.957 -2.3166 -2.2237  0.6054
 7355TIP3    H243557   2.669   3.189   3.000  1.7345  1.2338 -0.2308
 7356TIP3   OH243558   3.682   0.252   4.473  0.2302  0.1714 -0.1730
 7356TIP3    H143559   3.714   0.229   4.560  1.3358  1.4239 -0.2016
 7356TIP3    H243560   3.724   0.189   4.415  0.9604  0.4657  0.0225
 7357TIP3   OH243561   2.848   1.091   0.685  0.5055  0.0232  0.1462
 7357TIP3    H143562   2.819   1.018   0.631 -0.2027  0.9842 -0.8451
 7357TIP3    H243563   2.935   1.114   0.651  0.2554  0.3332 -0.2989
 7358TIP3   OH243564   3.267   2.047   4.002 -0.2454 -0.1109 -0.3949
 7358TIP3    H143565   3.350   2.070   4.044 -0.4820 -1.3888  0.8655
 7358TIP3    H243566   3.291   1.989   3.930  0.0221  0.3904 -0.7115
 7359TIP3   OH243567   5.155   4.891   2.518 -0.2995 -0.5161  0.0255
 7359TIP3    H143568   5.192   4.977   2.497  0.0660 -0.6036  0.2852
 7359TIP3    H243569   5.106   4.865   2.440  0.9174 -0.7711 -0.6817
 7360TIP3   OH243570   1.128   0.045   1.819 -0.2139 -0.0646  0.5136
 7360TIP3    H143571   1.071   0.016   1.891  2.2217  0.3817  2.7886
 7360TIP3    H243572   1.125  -0.027   1.756 -1.0416 -1.3420  1.9282
 7361TIP3   OH243573   1.230   3.511   1.466  0.0045  0.0938  0.1077
 7361TIP3    H143574   1.320   3.546   1.462 -0.1151  0.4423  0.3454
 7361TIP3    H243575   1.237   3.422   1.434  0.5460 -0.0807  0.6814
 7362TIP3   OH243576   2.838   1.581   3.982  0.1925 -0.9484 -0.0225
 7362TIP3    H143577   2.909   1.605   3.922  0.9438 -2.1441  0.3584
 7362TIP3    H243578   2.842   1.646   4.052 -2.0466  1.8220 -2.1834
 7363TIP3   OH243579   5.825   6.752  14.768  0.4515 -0.0542  0.4911
 7363TIP3    H143580   5.752   6.714  14.719  0.3451 -1.2104  1.4857
 7363TIP3    H243581   5.791   6.834  14.803 -0.0664 -0.1222  0.1555
 7364TIP3   OH243582   3.981   4.244   1.876  0.2805  0.3154  0.8195
 7364TIP3    H143583   3.934   4.240   1.793  1.5659 -1.6438  0.0943
 7364TIP3    H243584   3.966   4.332   1.909 -1.0679  0.8229 -1.0076
 7365TIP3   OH243585   1.470   5.206  12.030 -0.5915  0.2760 -0.1430
 7365TIP3    H143586   1.414   5.281  12.011 -2.9541 -0.6943  2.3234
 7365TIP3    H243587   1.425   5.132  11.988 -0.1028 -0.2365  0.2172
 7366TIP3   OH243588   3.508   6.092   5.413 -0.2811  0.4338 -0.1595
 7366TIP3    H143589   3.436   6.101   5.351 -0.8288  1.0488  0.5551
 7366TIP3    H243590   3.486   6.151   5.485  0.4209 -0.1480  0.5517
 7367TIP3   OH243591   0.309   6.549   2.960 -0.7402  0.0388 -0.4505
 7367TIP3    H143592   0.367   6.574   3.032 -0.0016 -0.3929 -0.8850
 7367TIP3    H243593   0.252   6.625   2.947  0.2223  0.7624 -0.5169
 7368TIP3   OH243594   2.162   5.607   4.405  0.3626  0.0297  0.1109
 7368TIP3    H143595   2.084   5.591   4.353  1.0727  0.6446 -1.1829
 7368TIP3    H243596   2.200   5.687   4.368  0.8927  0.5013  1.5821
 7369TIP3   OH243597   5.247   0.299  12.917  0.2898  0.4183 -0.2441
 7369TIP3    H143598   5.328   0.306  12.866  0.3953 -0.2806 -0.1711
 7369TIP3    H243599   5.183   0.260  12.858  0.4290 -0.4478  0.1686
 7370TIP3   OH243600   3.882   2.132  16.681  0.5825 -0.1197  0.0898
 7370TIP3    H143601   3.964   2.111  16.636  0.5105 -2.8254  1.0282
 7370TIP3    H243602   3.819   2.144  16.611  1.1057 -1.3383 -0.6380
 7371TIP3   OH243603   6.089   6.505  11.689 -0.8191  0.1458 -0.2215
 7371TIP3    H143604   6.001   6.528  11.719 -1.0097 -0.8385  0.0004
 7371TIP3    H243605   6.077   6.428  11.633 -0.0862 -0.1321 -0.0191
 7372TIP3   OH243606   1.383   4.107   5.484 -0.2775  0.6670  0.3311
 7372TIP3    H143607   1.468   4.072   5.508 -0.6328 -0.9401 -0.5926
 7372TIP3    H243608   1.325   4.081   5.556 -0.0122  1.8321  1.0003
 7373TIP3   OH243609   6.771   3.941  13.013  0.3208 -0.2286 -0.3418
 7373TIP3    H143610   6.865   3.961  13.013  0.5439 -1.0976 -1.9490
 7373TIP3    H243611   6.767   3.847  13.031 -0.1985 -0.3169 -0.8848
 7374TIP3   OH243612   4.554   5.152   3.488 -0.4607  0.2522 -0.1776
 7374TIP3    H143613   4.571   5.086   3.555  0.9092  1.5264  0.7998
 7374TIP3    H243614   4.476   5.199   3.520 -0.3275  0.2942  0.0936
 7375TIP3   OH243615   2.732   5.848   2.944  0.2345 -0.2928  0.5604
 7375TIP3    H143616   2.685   5.773   2.980 -0.4488 -0.5351 -0.7633
 7375TIP3    H243617   2.777   5.813   2.867 -2.1505  1.0938 -1.6319
 7376TIP3   OH243618   1.155   2.731  15.909 -0.0576  0.2584  0.4956
 7376TIP3    H143619   1.196   2.646  15.918 -0.5137 -0.0191  0.0218
 7376TIP3    H243620   1.215   2.782  15.854  0.8373  0.6812  1.8046
 7377TIP3   OH243621   1.192   1.965  12.305 -0.0371  0.3203  0.3334
 7377TIP3    H143622   1.122   1.950  12.241 -0.5348  1.2688  0.6398
 7377TIP3    H243623   1.272   1.945  12.257 -0.4795 -0.2366 -0.1932
 7378TIP3   OH243624   4.267   2.366   1.126  0.3655  0.2989 -0.5629
 7378TIP3    H143625   4.264   2.446   1.072  0.9890  1.0335  0.4619
 7378TIP3    H243626   4.246   2.296   1.065  0.1209  1.2119 -1.5646
 7379TIP3   OH243627   0.876   4.750   0.523 -0.1898  0.2592  0.3892
 7379TIP3    H143628   0.922   4.773   0.604 -0.9440  0.8075  0.6725
 7379TIP3    H243629   0.863   4.656   0.529 -0.0097  0.2564  0.7884
 7380TIP3   OH243630   4.557   3.455  16.395  0.0344  0.0447  0.1378
 7380TIP3    H143631   4.611   3.378  16.376  1.0910  0.5112  1.1469
 7380TIP3    H243632   4.518   3.437  16.481  1.1653  1.0868  0.8957
 7381TIP3   OH243633   4.508   4.572  14.316  0.3324 -0.3056 -0.1055
 7381TIP3    H143634   4.513   4.576  14.411  2.6773 -1.6086 -0.1077
 7381TIP3    H243635   4.597   4.550  14.287 -0.6306 -1.5026 -2.4861
 7382TIP3   OH243636   0.824   2.990   3.040  0.1426  0.0057  0.0497
 7382TIP3    H143637   0.810   3.009   3.132 -2.2050 -0.1066 -0.2254
 7382TIP3    H243638   0.919   2.987   3.030  0.4490  0.7256  2.2941
 7383TIP3   OH243639   4.199   6.147  16.819  0.2769 -0.2529 -0.1255
 7383TIP3    H143640   4.283   6.109  16.791 -0.1979 -0.1385 -1.8617
 7383TIP3    H243641   4.159   6.079  16.873  1.1736 -0.5980  0.1217
 7384TIP3   OH243642   5.462   2.041  16.642 -0.3958  0.4584 -0.4913
 7384TIP3    H143643   5.548   2.006  16.619 -0.1088  1.7360 -1.4215
 7384TIP3    H243644   5.404   1.965  16.637  0.3887 -0.1034 -1.4539
 7385TIP3   OH243645   6.776   2.256   1.466  0.4098  0.1623  0.5036
 7385TIP3    H143646   6.689   2.227   1.491  0.7883 -0.9896  0.5577
 7385TIP3    H243647   6.815   2.288   1.547  0.0485  0.6675  0.4809
 7386TIP3   OH243648   6.118   0.995   5.294 -0.3688  0.0229 -0.4001
 7386TIP3    H143649   6.097   0.905   5.320 -0.8617 -0.6012 -2.7234
 7386TIP3    H243650   6.157   1.034   5.372 -2.6953 -1.3178  1.5741
 7387TIP3   OH243651   2.870   1.996  15.668 -0.2446  0.8405 -0.4047
 7387TIP3    H143652   2.796   2.056  15.665 -1.3175 -0.2427  1.9294
 7387TIP3    H243653   2.937   2.043  15.718 -0.4608  0.7227 -0.0032
 7388TIP3   OH243654   0.034   0.474  16.706 -0.0113 -0.5809  0.4933
 7388TIP3    H143655  -0.009   0.388  16.707 -0.4769 -0.3595  1.5187
 7388TIP3    H243656  -0.026   0.530  16.755  0.9025  0.0167  0.9480
 7389TIP3   OH243657   4.811   4.608   2.842 -0.1179 -0.3142  0.6623
 7389TIP3    H143658   4.758   4.673   2.796 -2.0056 -1.0388  1.6992
 7389TIP3    H243659   4.750   4.567   2.904  1.9125 -0.4873  2.6742
 7390TIP3   OH243660   4.196   4.340  10.755  0.3716  0.7090 -0.2670
 7390TIP3    H143661   4.273   4.389  10.726  0.5375 -0.0035 -1.0817
 7390TIP3    H243662   4.229   4.251  10.769 -0.7061 -0.1388 -2.7201
 7391TIP3   OH243663   4.664   4.247  16.979  0.8684 -0.3362 -0.0858
 7391TIP3    H143664   4.659   4.160  17.017  0.2795  0.5802  2.1174
 7391TIP3    H243665   4.580   4.287  16.999  1.0496  0.6942 -1.2285
 7392TIP3   OH243666   2.678   1.405  12.022 -0.2698  0.5366 -0.7426
 7392TIP3    H143667   2.729   1.471  11.975 -0.5661 -0.4617 -2.5387
 7392TIP3    H243668   2.687   1.326  11.970  0.3682 -1.0005  1.5409
 7393TIP3   OH243669   4.641   3.193  15.161  0.0119 -0.1517  0.2060
 7393TIP3    H143670   4.666   3.152  15.243  1.7114 -0.8991 -0.6355
 7393TIP3    H243671   4.635   3.121  15.098  0.1736  0.5567 -0.6504
 7394TIP3   OH243672   2.371   1.871   0.342 -0.3114 -0.2155  0.3062
 7394TIP3    H143673   2.370   1.783   0.381 -1.0915 -1.3481 -2.0825
 7394TIP3    H243674   2.279   1.893   0.330 -0.0966  0.4104 -0.2063
 7395TIP3   OH243675   5.817   4.366  16.715  0.1423 -0.2164 -0.2883
 7395TIP3    H143676   5.774   4.410  16.642 -0.5855 -1.3640 -0.5758
 7395TIP3    H243677   5.775   4.403  16.793  0.5905  0.6700 -0.4563
 7396TIP3   OH243678   3.335   6.319  16.609 -0.7446  0.0801 -0.6898
 7396TIP3    H143679   3.288   6.275  16.539 -1.1403  0.3676 -0.6110
 7396TIP3    H243680   3.403   6.370  16.565 -1.3596  0.7197 -0.9212
 7397TIP3   OH243681   6.447   6.216  15.414  0.3191  0.4474 -0.3265
 7397TIP3    H143682   6.529   6.186  15.374  0.2218  1.2704 -1.1669
 7397TIP3    H243683   6.475   6.256  15.496  0.7141  0.3603 -0.4138
 7398TIP3   OH243684   3.638   1.920  14.207  0.3649 -0.5507  0.0911
 7398TIP3    H143685   3.695   1.876  14.144  1.8929 -0.1547  1.1511
 7398TIP3    H243686   3.646   2.013  14.186 -1.4559 -0.5870 -0.9907
 7399TIP3   OH243687   5.616   1.847  13.456 -0.1436 -0.6977 -0.6569
 7399TIP3    H143688   5.643   1.838  13.547  0.9376  2.6751 -0.5244
 7399TIP3    H243689   5.696   1.871  13.409 -1.1418  0.1436 -2.0069
 7400TIP3   OH243690   4.853   2.887  11.564  0.0498  0.1624  0.0616
 7400TIP3    H143691   4.763   2.858  11.580  0.6736 -1.7772  0.2291
 7400TIP3    H243692   4.864   2.878  11.470 -0.6055  2.5975 -0.3231
 7401TIP3   OH243693   1.470   1.108  14.258  0.5889  0.3643  0.5537
 7401TIP3    H143694   1.519   1.189  14.240 -0.1807  0.7063 -0.0831
 7401TIP3    H243695   1.379   1.131  14.240  0.5559 -1.2325 -1.8932
 7402TIP3   OH243696   0.438   2.685   1.921 -0.3314  0.6456 -0.2294
 7402TIP3    H143697   0.488   2.649   1.848  1.3666 -0.6933  1.4769
 7402TIP3    H243698   0.475   2.772   1.935  0.5539  0.2369  0.0829
 7403TIP3   OH243699   2.072   3.391  12.981  0.1342  0.5903  0.6175
 7403TIP3    H143700   2.154   3.355  13.016  0.6161  1.2854  0.2152
 7403TIP3    H243701   2.099   3.466  12.929 -0.4531 -1.0776 -2.2697
 7404TIP3   OH243702   3.830   1.158   0.944  0.3607  0.0856  0.4338
 7404TIP3    H143703   3.793   1.229   0.891  1.2835 -1.3273 -2.3132
 7404TIP3    H243704   3.833   1.083   0.885  3.3531 -1.1045  1.8656
 7405TIP3   OH243705   0.097   2.043  14.633 -0.0303  0.0480  0.2130
 7405TIP3    H143706   0.142   2.055  14.716 -0.3438  2.0611  0.1532
 7405TIP3    H243707   0.004   2.048  14.655 -0.1537  3.2764 -0.4447
 7406TIP3   OH243708   3.933   5.268   3.384 -0.4193 -0.1160 -0.9560
 7406TIP3    H143709   4.018   5.306   3.405 -1.7883  2.0075  1.2792
 7406TIP3    H243710   3.947   5.173   3.388  1.8697  0.1846 -0.9122
 7407TIP3   OH243711   4.262   4.074   1.301  0.0287 -0.3320  0.4067
 7407TIP3    H143712   4.204   4.062   1.376  0.2545  2.3328  1.1093
 7407TIP3    H243713   4.340   4.115   1.337  0.1904  0.9275 -1.2284
 7408TIP3   OH243714   5.822   1.380  14.818 -0.3271 -0.7906  1.1688
 7408TIP3    H143715   5.728   1.379  14.799  0.1333 -1.5883 -1.3995
 7408TIP3    H243716   5.850   1.289  14.811  0.9878 -0.3224 -0.2449
 7409TIP3   OH243717   6.114   3.507  14.024 -0.0558 -0.1925 -0.6088
 7409TIP3    H143718   6.178   3.471  14.085  0.1091  0.8105 -0.1702
 7409TIP3    H243719   6.150   3.591  13.997 -1.2004  0.4097 -0.3277
 7410TIP3   OH243720   6.062   6.456   5.350  0.2585  0.1118 -0.2216
 7410TIP3    H143721   6.147   6.498   5.358 -0.1958  1.0809 -0.4090
 7410TIP3    H243722   5.999   6.521   5.380 -0.4578 -0.4329 -0.4961
 7411TIP3   OH243723   6.592   4.551  11.125 -0.2558  0.1760  0.3147
 7411TIP3    H143724   6.542   4.518  11.050  0.1554  0.7354 -0.2175
 7411TIP3    H243725   6.680   4.515  11.113  0.4112  2.0301 -0.6929
 7412TIP3   OH243726   5.508   5.943   4.065  0.1164  0.1942  0.4892
 7412TIP3    H143727   5.603   5.936   4.059  0.0101 -0.9966 -0.1111
 7412TIP3    H243728   5.475   5.870   4.013 -1.1315  0.6075  0.6617
 7413TIP3   OH243729   5.143   1.837   1.514  0.5198  0.1734 -0.1148
 7413TIP3    H143730   5.171   1.838   1.422  0.2536  0.1345 -0.1978
 7413TIP3    H243731   5.167   1.924   1.547 -1.7591  1.2155 -0.9528
 7414TIP3   OH243732   6.584   5.694  16.194 -0.1942 -0.6498 -0.2131
 7414TIP3    H143733   6.648   5.760  16.219 -1.7454  1.3004 -1.1574
 7414TIP3    H243734   6.562   5.715  16.103 -1.6399 -1.6981 -0.1369
 7415TIP3   OH243735   0.321   0.865  11.022 -0.0533 -0.6720  0.4419
 7415TIP3    H143736   0.287   0.855  10.933 -1.5334  0.3800  0.8496
 7415TIP3    H243737   0.259   0.819  11.077  0.5750 -0.8781  0.9962
 7416TIP3   OH243738   3.545   0.571   5.166  0.0615 -0.4500 -0.1312
 7416TIP3    H143739   3.540   0.661   5.132  2.3853 -0.2992 -0.2152
 7416TIP3    H243740   3.619   0.572   5.226  0.7072 -2.5256 -0.8150
 7417TIP3   OH243741   0.768   3.137  16.807 -0.0957 -0.6447 -0.5980
 7417TIP3    H143742   0.698   3.159  16.867 -0.1434  1.9819 -1.5021
 7417TIP3    H243743   0.846   3.180  16.842  0.5187 -1.4265 -0.9452
 7418TIP3   OH243744   4.347   3.536  13.338  0.0701  0.0513 -0.0167
 7418TIP3    H143745   4.397   3.609  13.301 -0.5584 -0.1344 -1.2877
 7418TIP3    H243746   4.262   3.541  13.294  0.7517 -2.8047 -1.8911
 7419TIP3   OH243747   0.804   2.344  15.362 -0.9206  0.2472  0.0450
 7419TIP3    H143748   0.755   2.322  15.283  0.9505  1.1758 -1.4643
 7419TIP3    H243749   0.891   2.306  15.346 -0.5602  0.2971  1.7629
 7420TIP3   OH243750   5.677   6.122  14.556 -0.0326  0.2787 -0.1632
 7420TIP3    H143751   5.593   6.167  14.550 -0.4988 -0.4336  0.7446
 7420TIP3    H243752   5.694   6.116  14.650  0.9054  0.1756 -0.3304
 7421TIP3   OH243753   0.045   2.398  13.524  0.0535 -0.0173  0.3777
 7421TIP3    H143754  -0.008   2.452  13.582 -0.3899  0.1984 -0.2188
 7421TIP3    H243755  -0.017   2.350  13.470  0.4351 -1.6098  1.3017
 7422TIP3   OH243756   4.045   4.275   5.439  0.5812 -0.0219  0.4285
 7422TIP3    H143757   4.127   4.307   5.476  0.3767  0.8007  0.2018
 7422TIP3    H243758   4.007   4.352   5.395 -1.3011  0.1652  2.2426
 7423TIP3   OH243759   2.817   3.881   1.160 -0.1266  0.2027 -0.4038
 7423TIP3    H143760   2.845   3.793   1.184 -1.5729  0.2088  1.5342
 7423TIP3    H243761   2.748   3.903   1.223  1.4163  3.4597  0.3510
 7424TIP3   OH243762   5.523   6.583   4.654 -0.2460  0.3787 -0.2459
 7424TIP3    H143763   5.536   6.641   4.579  1.0223 -1.5423 -1.6071
 7424TIP3    H243764   5.440   6.612   4.693 -0.4591  2.0305 -1.8168
 7425TIP3   OH243765   3.567   5.818   6.134 -0.0883 -0.0019  0.2891
 7425TIP3    H143766   3.478   5.791   6.155 -0.3582 -0.3866 -1.2393
 7425TIP3    H243767   3.573   5.908   6.166 -1.2059  0.2042 -0.0336
 7426TIP3   OH243768   3.178   2.677  12.089 -1.1537 -0.0031 -0.2777
 7426TIP3    H143769   3.131   2.638  12.015 -1.2857  0.2790 -0.3419
 7426TIP3    H243770   3.268   2.643  12.080 -1.1271  0.1623 -0.6617
 7427TIP3   OH243771   2.543   2.535   2.921 -0.2432 -0.0107 -0.2445
 7427TIP3    H143772   2.558   2.628   2.940 -2.0248  0.4768 -0.9400
 7427TIP3    H243773   2.630   2.496   2.920  0.6825  1.9253 -1.2691
 7428TIP3   OH243774   3.483   5.642   5.436  0.0460  0.1656 -0.5136
 7428TIP3    H143775   3.541   5.678   5.504  0.9336 -0.9693 -0.6339
 7428TIP3    H243776   3.522   5.672   5.354 -0.9525  1.4273 -0.5590
 7429TIP3   OH243777   1.633   5.506   5.720  0.2925 -0.1100 -0.6056
 7429TIP3    H143778   1.664   5.425   5.759 -0.2667  1.6847  4.2151
 7429TIP3    H243779   1.538   5.503   5.732  0.1519  0.7732 -1.4179
 7430TIP3   OH243780   3.804   1.647   0.510  0.1897 -0.0708 -0.0242
 7430TIP3    H143781   3.787   1.736   0.542 -0.5298 -0.4948  0.8192
 7430TIP3    H243782   3.723   1.621   0.468  0.8536  0.1590 -1.4882
 7431TIP3   OH243783   1.478   6.031   1.588  0.8082  0.3090  0.5691
 7431TIP3    H143784   1.490   6.103   1.527  0.5563  0.8985  1.1957
 7431TIP3    H243785   1.434   5.962   1.537 -0.3654  1.1913  0.3568
 7432TIP3   OH243786   2.876   2.085  13.693 -0.3613 -0.1064 -0.2124
 7432TIP3    H143787   2.829   2.001  13.693 -1.6349  0.5517  1.9657
 7432TIP3    H243788   2.856   2.123  13.607 -1.2393 -1.2244 -0.5337
 7433TIP3   OH243789   2.358   6.838  10.756 -0.3662 -0.4811 -0.5002
 7433TIP3    H143790   2.443   6.880  10.769 -0.0880 -0.5630 -1.9053
 7433TIP3    H243791   2.380   6.747  10.735 -0.8688 -0.8056  0.3362
 7434TIP3   OH243792   2.388   1.301   1.962  0.4365  0.0363 -0.6462
 7434TIP3    H143793   2.382   1.350   1.880 -2.2019  2.3530  0.7786
 7434TIP3    H243794   2.464   1.338   2.006  0.7709  0.0710 -1.2385
 7435TIP3   OH243795   3.256   6.326   3.065 -0.1377  0.2517 -0.0515
 7435TIP3    H143796   3.318   6.379   3.116 -0.1867  0.2588  0.0014
 7435TIP3    H243797   3.271   6.237   3.095 -0.0397  0.2327 -0.1569
 7436TIP3   OH243798   4.780   1.078  15.872 -0.5559  1.0399  0.3180
 7436TIP3    H143799   4.744   1.114  15.791 -0.2451 -0.2009 -0.3957
 7436TIP3    H243800   4.706   1.035  15.915 -1.1879  3.3704  1.7214
 7437TIP3   OH243801   6.841   2.534   5.260 -0.0382  0.2354  0.4121
 7437TIP3    H143802   6.877   2.458   5.304 -0.9428 -1.0735 -1.0115
 7437TIP3    H243803   6.893   2.542   5.179 -1.8599 -0.7506 -0.9153
 7438TIP3   OH243804   6.459   0.061  11.645 -0.0002 -0.2553  0.4206
 7438TIP3    H143805   6.382   0.101  11.603 -1.5483 -0.9411  2.4357
 7438TIP3    H243806   6.458  -0.030  11.615 -0.2242 -0.3673  0.7653
 7439TIP3   OH243807   5.581   4.790  14.754 -0.6313 -0.0528 -0.4859
 7439TIP3    H143808   5.606   4.881  14.743  3.1103 -1.0961 -2.1244
 7439TIP3    H243809   5.551   4.762  14.668  0.8126 -0.9679 -0.7296
 7440TIP3   OH243810   4.395   5.343  14.601 -0.6718 -0.4616 -0.4349
 7440TIP3    H143811   4.426   5.433  14.597 -0.6287 -0.3026  2.0428
 7440TIP3    H243812   4.316   5.342  14.547 -0.9308  1.1849 -0.1296
 7441TIP3   OH243813   6.283   3.790  14.352  0.8052  0.2521 -0.0550
 7441TIP3    H143814   6.209   3.731  14.370 -0.9487  2.6959  1.2672
 7441TIP3    H243815   6.336   3.742  14.288 -2.2207 -1.4100 -1.5587
 7442TIP3   OH243816   3.409   2.400   0.872 -0.0869  0.4611  0.1868
 7442TIP3    H143817   3.393   2.403   0.778  2.9653  1.6444 -0.4335
 7442TIP3    H243818   3.444   2.313   0.889 -3.4370 -0.8587  0.8884
 7443TIP3   OH243819   3.193   6.247   0.983  0.6354 -0.2557 -0.4976
 7443TIP3    H143820   3.230   6.160   1.000  0.8856  0.0266  0.4777
 7443TIP3    H243821   3.246   6.282   0.912  1.8420 -0.1208  0.4443
 7444TIP3   OH243822   0.801   3.528  15.622  0.1136 -0.0295  0.3150
 7444TIP3    H143823   0.726   3.587  15.626  0.4143  0.4065 -0.4084
 7444TIP3    H243824   0.877   3.586  15.621  0.3948 -0.3867 -1.1147
 7445TIP3   OH243825   2.692   2.520  14.578 -0.6739  0.4312 -0.6631
 7445TIP3    H143826   2.760   2.495  14.640 -1.0373  1.1035  0.0216
 7445TIP3    H243827   2.663   2.437  14.539 -0.7662 -0.0556  0.4059
 7446TIP3   OH243828   5.772   0.854  14.470  0.0975 -0.1086 -0.1277
 7446TIP3    H143829   5.693   0.829  14.422  0.6916 -1.5591 -0.3968
 7446TIP3    H243830   5.746   0.851  14.562 -0.4493  0.5258 -0.2520
 7447TIP3   OH243831   2.059   4.478  16.093 -0.3404  0.2558  0.5253
 7447TIP3    H143832   2.003   4.415  16.138  0.1488  0.1101  0.9485
 7447TIP3    H243833   2.003   4.554  16.076 -0.0525  1.1997  3.2738
 7448TIP3   OH243834   1.345   0.834  14.717 -0.3941  0.4577 -0.5635
 7448TIP3    H143835   1.400   0.913  14.722  0.1664  0.1838 -2.0360
 7448TIP3    H243836   1.406   0.764  14.696 -0.9425 -0.3456  0.4050
 7449TIP3   OH243837   1.478   5.881  11.920  0.4957 -0.3416 -0.3480
 7449TIP3    H143838   1.506   5.857  12.008  1.0685 -3.7377 -1.3282
 7449TIP3    H243839   1.382   5.881  11.925  0.5223 -0.6601  0.2500
 7450TIP3   OH243840   0.617   5.636  13.152 -0.2726  0.5571  0.0185
 7450TIP3    H143841   0.572   5.597  13.227 -1.9700 -2.5901 -2.3832
 7450TIP3    H243842   0.548   5.673  13.098  0.4965 -0.1189 -1.4923
 7451TIP3   OH243843   2.729   4.310  13.170 -0.7525 -0.2012 -0.3390
 7451TIP3    H143844   2.689   4.287  13.254 -1.2999 -0.1591 -0.5787
 7451TIP3    H243845   2.712   4.404  13.161 -1.2860 -0.3328 -0.7947
 7452TIP3   OH243846   1.890   3.759  12.750 -0.3731  0.1719  0.8906
 7452TIP3    H143847   1.805   3.719  12.732 -0.2791 -0.2642  1.3958
 7452TIP3    H243848   1.886   3.784  12.842 -0.2577  0.9052  0.6992
 7453TIP3   OH243849   6.493   4.694   1.468  0.6630  0.0691 -0.4645
 7453TIP3    H143850   6.482   4.780   1.507 -0.9304  0.2573 -1.2462
 7453TIP3    H243851   6.541   4.711   1.386  0.8896  0.1262 -0.3207
 7454TIP3   OH243852   0.041   1.184  13.444  0.6554 -0.7116 -0.7278
 7454TIP3    H143853   0.024   1.210  13.354 -1.0426  0.7989 -0.0296
 7454TIP3    H243854  -0.026   1.119  13.463  0.6679 -0.6302 -0.3962
 7455TIP3   OH243855   3.573   6.390  14.956 -0.5859 -0.0085  0.8232
 7455TIP3    H143856   3.588   6.484  14.955  0.2331 -0.1365  0.2508
 7455TIP3    H243857   3.509   6.374  14.887  0.5782 -0.0625 -0.2756
 7456TIP3   OH243858   4.428   2.433   3.113 -0.3463 -0.4487 -0.4896
 7456TIP3    H143859   4.509   2.446   3.163 -0.5599 -0.6773 -0.0820
 7456TIP3    H243860   4.383   2.517   3.118 -0.1785 -0.3504 -0.6344
 7457TIP3   OH243861   2.740   4.258  16.370 -0.3435 -0.2294  0.2378
 7457TIP3    H143862   2.761   4.300  16.454 -0.2623 -1.0883  0.6642
 7457TIP3    H243863   2.778   4.316  16.304  1.2492 -0.4897  0.8853
 7458TIP3   OH243864   1.204   5.221   3.751 -0.3037 -0.0596 -0.0231
 7458TIP3    H143865   1.130   5.280   3.742  0.0988  0.1369 -2.9016
 7458TIP3    H243866   1.253   5.256   3.826 -2.0441  0.9535  0.7148
 7459TIP3   OH243867   2.756   6.192   4.440  0.2882  0.0984 -0.3679
 7459TIP3    H143868   2.786   6.232   4.522 -0.5818 -0.6886  0.3510
 7459TIP3    H243869   2.741   6.266   4.381  0.3124  0.7157  0.3862
 7460TIP3   OH243870   0.825   0.236   2.960 -0.2040  0.5011  0.0860
 7460TIP3    H143871   0.901   0.195   2.919 -1.3959 -1.9168  0.1424
 7460TIP3    H243872   0.837   0.222   3.054 -0.6739  0.1507  0.1001
 7461TIP3   OH243873   5.103   6.454  17.119 -0.0129  0.0474 -0.6699
 7461TIP3    H143874   5.008   6.450  17.105 -0.2065  0.4545  0.4165
 7461TIP3    H243875   5.138   6.489  17.037 -0.9698  1.3966 -0.5306
 7462TIP3   OH243876   2.676   6.820  12.908  0.2126  0.1127  0.5178
 7462TIP3    H143877   2.757   6.838  12.956 -0.5055  0.6278  1.5790
 7462TIP3    H243878   2.664   6.898  12.853  0.6472 -0.1566  0.0227
 7463TIP3   OH243879   4.593   5.143   1.234  0.4125 -0.6041 -0.1740
 7463TIP3    H143880   4.687   5.156   1.216  0.4157  0.2307  0.4099
 7463TIP3    H243881   4.590   5.120   1.326 -0.0736  0.9260  0.2170
 7464TIP3   OH243882   4.636   4.321   1.129  0.7575  0.1222 -0.0532
 7464TIP3    H143883   4.556   4.350   1.173  1.6684  1.9910  0.4925
 7464TIP3    H243884   4.649   4.231   1.159 -1.0849 -0.1937 -0.1150
 7465TIP3   OH243885   5.731   3.819   6.337  0.2619 -0.4814  0.5918
 7465TIP3    H143886   5.826   3.831   6.328  0.1471 -0.7508 -1.4137
 7465TIP3    H243887   5.719   3.724   6.331 -0.1660 -0.4173  0.4356
 7466TIP3   OH243888   6.735   1.148  13.714  0.4858  0.2349 -0.1354
 7466TIP3    H143889   6.783   1.078  13.759  1.1117  0.8893  0.2484
 7466TIP3    H243890   6.782   1.228  13.738 -0.4843  0.8403 -0.2033
 7467TIP3   OH243891   5.536   0.553   1.248 -0.3524  0.2182  0.3591
 7467TIP3    H143892   5.587   0.515   1.319  0.6937 -2.0834 -1.4753
 7467TIP3    H243893   5.581   0.634   1.226  2.3901 -1.5125 -0.8856
 7468TIP3   OH243894   3.180   2.919   2.522  0.2690 -0.1438 -0.0285
 7468TIP3    H143895   3.271   2.948   2.534  0.3411 -0.5606  0.4570
 7468TIP3    H243896   3.172   2.906   2.427  0.3074  1.1989 -0.2368
 7469TIP3   OH243897   5.646   3.237   4.884  0.5054 -0.1580 -0.3718
 7469TIP3    H143898   5.630   3.157   4.933  0.7779 -1.3136 -2.0804
 7469TIP3    H243899   5.610   3.307   4.939  1.5812 -1.2630  1.8191
 7470TIP3   OH243900   2.455   0.973  13.999 -0.7098  0.3465  0.3420
 7470TIP3    H143901   2.437   1.025  13.921  1.1310 -0.1669 -0.4825
 7470TIP3    H243902   2.399   0.896  13.990 -1.0803  0.6631 -0.0729
 7471TIP3   OH243903   5.980   6.015  11.665 -0.0699  0.5109 -0.2165
 7471TIP3    H143904   6.025   5.995  11.583 -0.4031  1.4552 -0.6402
 7471TIP3    H243905   6.035   6.082  11.707  0.3686 -0.3304  0.5851
 7472TIP3   OH243906   3.799   6.385   0.849  0.0208  0.3016  0.0264
 7472TIP3    H143907   3.742   6.359   0.776  0.5748  0.1770 -0.3706
 7472TIP3    H243908   3.887   6.377   0.814  0.2603  1.4198  0.3332
 7473TIP3   OH243909   4.320   1.331   4.299  0.0434  0.1671 -0.2996
 7473TIP3    H143910   4.306   1.296   4.211  0.7635 -0.3056 -0.2374
 7473TIP3    H243911   4.243   1.303   4.348 -0.1918  0.1246 -0.6861
 7474TIP3   OH243912   3.752   3.597  11.232 -0.0316  0.4505 -0.2603
 7474TIP3    H143913   3.680   3.539  11.206  0.4959  0.1676 -1.1499
 7474TIP3    H243914   3.721   3.685  11.211  0.1089  0.2809 -1.2280
 7475TIP3   OH243915   3.937   1.962   5.888  0.7191  0.1530  0.1370
 7475TIP3    H143916   3.953   2.017   5.811 -0.7932  1.4655  0.7162
 7475TIP3    H243917   3.927   2.024   5.960  1.7213 -1.0353  1.3569
 7476TIP3   OH243918   5.105   0.467  12.740 -0.2568 -0.3153 -0.5357
 7476TIP3    H143919   5.014   0.489  12.762  0.4047  1.5860  0.5478
 7476TIP3    H243920   5.135   0.414  12.813 -0.1020  0.2401 -0.1862
 7477TIP3   OH243921   0.137   0.257  16.422 -0.3074  0.1299  0.3382
 7477TIP3    H143922   0.081   0.277  16.347  0.8506  1.5061 -0.1984
 7477TIP3    H243923   0.226   0.272  16.391  0.3198 -1.0746  1.4555
 7478TIP3   OH243924   6.013   4.428  12.548 -0.1693 -0.3569 -0.0278
 7478TIP3    H143925   6.050   4.355  12.598 -1.3153 -0.9608 -0.0334
 7478TIP3    H243926   6.070   4.503  12.569 -0.3080 -0.7091  1.7896
 7479TIP3   OH243927   3.949   4.191   0.174 -0.0270  0.1820  0.1156
 7479TIP3    H143928   3.905   4.132   0.234  1.4014 -2.4331 -1.1978
 7479TIP3    H243929   3.879   4.243   0.134 -1.1671  0.5804  2.4809
 7480TIP3   OH243930   0.710   2.761  16.842 -0.1384  0.2984 -0.0810
 7480TIP3    H143931   0.783   2.714  16.882 -0.6591 -0.5632 -0.0978
 7480TIP3    H243932   0.750   2.833  16.794  0.7037 -0.2383 -0.2005
 7481TIP3   OH243933   3.401   2.528  12.107 -0.3307 -0.2949 -0.2107
 7481TIP3    H143934   3.362   2.448  12.073 -0.9628  0.1862 -0.6492
 7481TIP3    H243935   3.456   2.560  12.035 -0.3033 -0.1893 -0.1434
 7482TIP3   OH243936   0.586   4.295  11.994 -0.0592 -0.0368 -0.0466
 7482TIP3    H143937   0.573   4.385  11.964  0.3399  0.4698  1.2782
 7482TIP3    H243938   0.660   4.299  12.053 -0.1328 -1.2175  0.1509
 7483TIP3   OH243939   3.091   0.870  10.647 -0.3605 -0.9431 -0.5928
 7483TIP3    H143940   3.043   0.932  10.703 -1.5603 -1.3520 -1.1225
 7483TIP3    H243941   3.163   0.920  10.611 -0.7845 -0.1004 -0.2911
 7484TIP3   OH243942   4.265   6.505   0.135 -0.2024 -0.3010  0.0085
 7484TIP3    H143943   4.219   6.431   0.175  0.7870  0.3122  2.4385
 7484TIP3    H243944   4.248   6.579   0.192  0.1557  1.0015 -1.4955
 7485TIP3   OH243945   0.302   0.302   0.490 -0.0362  0.3933 -0.0689
 7485TIP3    H143946   0.310   0.275   0.582  1.0985  0.9239  0.0073
 7485TIP3    H243947   0.331   0.226   0.440 -2.0144 -0.4253 -0.0804
 7486TIP3   OH243948   4.548   2.813   1.483 -0.5644 -0.2139  0.1433
 7486TIP3    H143949   4.471   2.767   1.449 -0.4940 -1.2609  1.3487
 7486TIP3    H243950   4.612   2.744   1.499  0.5450  0.6141 -0.5527
 7487TIP3   OH243951   2.477   6.823  13.797  0.3950  0.3693 -0.1024
 7487TIP3    H143952   2.554   6.835  13.742 -0.2292 -1.5154 -1.4939
 7487TIP3    H243953   2.494   6.745  13.849 -1.1593 -1.1014 -1.6598
 7488TIP3   OH243954   1.269   5.680   0.413  0.2358  0.4591 -0.2081
 7488TIP3    H143955   1.196   5.649   0.360  0.0053 -2.9594  1.7727
 7488TIP3    H243956   1.229   5.706   0.496  1.0040  1.2662 -0.0735
 7489TIP3   OH243957   3.895   2.058  15.278  0.0415 -0.1626 -0.2191
 7489TIP3    H143958   3.990   2.070  15.269  0.0387 -0.8356 -1.4920
 7489TIP3    H243959   3.877   1.977  15.230 -1.2579  0.2273 -0.4287
 7490TIP3   OH243960   3.413   1.684  16.126  0.4424 -0.6091 -0.1772
 7490TIP3    H143961   3.351   1.693  16.198  0.9235  0.7099  0.0977
 7490TIP3    H243962   3.431   1.774  16.097 -0.0551 -1.1125 -2.2444
 7491TIP3   OH243963   4.270   3.912  11.723 -0.7205  0.1644  0.0434
 7491TIP3    H143964   4.273   3.884  11.814 -1.1842  0.7000  0.2280
 7491TIP3    H243965   4.178   3.903  11.698 -0.6694  0.4045 -0.2435
 7492TIP3   OH243966   2.561   5.383   2.514  0.1314  0.4749 -0.1240
 7492TIP3    H143967   2.483   5.329   2.525  0.9060 -0.8457 -0.8584
 7492TIP3    H243968   2.535   5.450   2.451 -1.4988  2.3952  2.3957
 7493TIP3   OH243969   2.376   2.986  10.608  0.3483 -0.1519 -0.2226
 7493TIP3    H143970   2.337   3.074  10.609  0.6991  0.0547 -2.0920
 7493TIP3    H243971   2.301   2.927  10.608 -0.0989  0.2439 -3.4188
 7494TIP3   OH243972   1.428   1.092  11.039  0.5416  0.0514  0.1729
 7494TIP3    H143973   1.422   1.183  11.009 -1.8957 -0.7852 -2.2163
 7494TIP3    H243974   1.475   1.047  10.969 -1.1282 -1.0721 -0.2843
 7495TIP3   OH243975   1.089   1.778   4.921 -0.3267  0.4732  0.1398
 7495TIP3    H143976   1.032   1.731   4.982 -0.5760  1.0617  0.3612
 7495TIP3    H243977   1.039   1.854   4.895  1.1079  2.1530  1.9550
 7496TIP3   OH243978   0.112   6.147   3.303 -0.3027  0.0627 -0.2537
 7496TIP3    H143979   0.126   6.204   3.227 -0.4860 -0.2448 -0.5189
 7496TIP3    H243980   0.136   6.060   3.272  0.1985  0.0266  0.2181
 7497TIP3   OH243981   5.961   6.318  13.765 -0.0998 -0.5027 -0.1983
 7497TIP3    H143982   5.928   6.367  13.840  0.3687  1.0941 -0.9838
 7497TIP3    H243983   6.019   6.252  13.804 -0.1112  0.0818  0.8686
 7498TIP3   OH243984   4.942   2.812  13.398  0.9880  0.3394 -0.4962
 7498TIP3    H143985   5.009   2.747  13.416 -0.7621 -1.0413  1.5409
 7498TIP3    H243986   4.935   2.863  13.479  0.7017  1.5784 -1.2605
 7499TIP3   OH243987   6.439   1.204  12.246 -0.0789 -0.3977  0.5393
 7499TIP3    H143988   6.447   1.292  12.284  3.3457 -1.3159  2.4162
 7499TIP3    H243989   6.509   1.200  12.181 -0.1347 -1.7564  0.5377
 7500TIP3   OH243990   4.849   4.734  13.362  0.6130 -0.3070  0.1997
 7500TIP3    H143991   4.770   4.698  13.322  0.5558  0.0196  0.0209
 7500TIP3    H243992   4.908   4.752  13.289  0.2823  0.8393  0.2039
 7501TIP3   OH243993   0.572   1.844  16.977  0.2891  0.0130 -0.0890
 7501TIP3    H143994   0.604   1.827  16.888  1.3404  1.5506 -0.0425
 7501TIP3    H243995   0.636   1.904  17.015  0.2845 -1.2160  2.0086
 7502TIP3   OH243996   6.170   3.465   2.633  0.1689 -0.4550  0.0171
 7502TIP3    H143997   6.142   3.516   2.557 -0.7966 -0.3470  0.4271
 7502TIP3    H243998   6.208   3.529   2.692  0.5335 -0.4734 -0.1988
 7503TIP3   OH243999   6.137   4.734  13.913  0.3563 -0.5268  0.0787
 7503TIP3    H144000   6.042   4.733  13.897  0.5732  1.1169 -1.7010
 7503TIP3    H244001   6.147   4.778  13.997 -0.4691 -1.6737  0.8183
 7504TIP3   OH244002   5.954   5.813  13.136  0.5439 -0.1375 -0.3264
 7504TIP3    H144003   5.916   5.897  13.165 -0.7242 -0.4827 -0.9122
 7504TIP3    H244004   6.020   5.838  13.072 -1.4125  0.3961 -2.2722
 7505TIP3   OH244005   1.364   0.013  13.259  0.6186  0.0303  0.4958
 7505TIP3    H144006   1.319   0.063  13.327 -0.0269 -0.9109  0.7835
 7505TIP3    H244007   1.303  -0.058  13.237  0.8574  0.2513 -0.9942
 7506TIP3   OH244008   0.003   3.443  16.660  0.1453  0.2599  0.5715
 7506TIP3    H144009   0.096   3.458  16.647 -0.0967  1.6826  0.3329
 7506TIP3    H244010  -0.008   3.443  16.755  0.2055  1.3541  0.5835
 7507TIP3   OH244011   1.936   3.743   2.974 -0.0311  0.2298 -0.1987
 7507TIP3    H144012   1.964   3.812   3.034  1.1976  0.0039 -0.4996
 7507TIP3    H244013   1.847   3.769   2.948  0.4196  1.7159 -0.3417
 7508TIP3   OH244014   2.274   1.346  12.087  0.2369  0.2462 -0.2348
 7508TIP3    H144015   2.185   1.379  12.090  0.3178  0.4123  0.5270
 7508TIP3    H244016   2.329   1.423  12.099  0.4937  0.1550 -0.7622
 7509TIP3   OH244017   1.234   3.058  13.277 -0.1219  0.0911  0.1207
 7509TIP3    H144018   1.192   3.100  13.353 -0.9935  1.5426 -1.1089
 7509TIP3    H244019   1.295   3.123  13.244 -1.1202  0.2427 -1.5292
 7510TIP3   OH244020   0.538   0.331   3.132 -0.0782  0.1848 -0.0343
 7510TIP3    H144021   0.552   0.422   3.107  1.6914 -0.0061  0.1157
 7510TIP3    H244022   0.536   0.333   3.228  3.2440 -0.2495  0.1582
 7511TIP3   OH244023   3.796   0.474   6.612  0.3341 -0.0357  0.1683
 7511TIP3    H144024   3.813   0.429   6.529 -0.6018  3.2450 -1.9917
 7511TIP3    H244025   3.858   0.547   6.612 -0.9905  1.1453  1.3952
 7512TIP3   OH244026   5.186   0.553  12.358 -0.0386  0.1154  0.1205
 7512TIP3    H144027   5.178   0.604  12.439 -1.8699  2.6466 -1.4994
 7512TIP3    H244028   5.255   0.597  12.308 -2.3650  1.8974 -1.7608
 7513TIP3   OH244029   3.800   1.137   3.433  0.0287 -0.1328 -0.2263
 7513TIP3    H144030   3.707   1.152   3.414  0.1662  0.1174 -0.7150
 7513TIP3    H244031   3.808   1.156   3.526 -0.7594 -1.8844  0.2444
 7514TIP3   OH244032   3.658   4.255  15.850 -0.2574  0.6794 -0.4829
 7514TIP3    H144033   3.720   4.287  15.785  1.8188  0.0681  1.0954
 7514TIP3    H244034   3.693   4.171  15.878 -1.8461  0.2763  0.4493
 7515TIP3   OH244035   2.906   2.242  14.500 -0.4049  0.6823  0.0234
 7515TIP3    H144036   2.862   2.231  14.585 -1.7726 -1.4878 -0.8740
 7515TIP3    H244037   2.929   2.153  14.473 -1.3744  1.1221 -2.5403
 7516TIP3   OH244038   1.992   4.082   5.523  0.4075 -0.3507  0.6597
 7516TIP3    H144039   1.984   4.113   5.433  0.6461  0.9037  1.0557
 7516TIP3    H244040   1.932   4.137   5.573 -0.7494 -1.9290  1.0873
 7517TIP3   OH244041   1.419   3.224   4.925 -0.4342 -0.0570  0.2562
 7517TIP3    H144042   1.450   3.136   4.901 -0.7830 -0.5928  1.6508
 7517TIP3    H244043   1.475   3.251   4.998 -1.2022  0.2796  0.7448
 7518TIP3   OH244044   3.590   2.665  11.523 -0.4006 -0.2551  0.1631
 7518TIP3    H144045   3.665   2.609  11.543  0.1202  0.5098  0.4166
 7518TIP3    H244046   3.528   2.649  11.595  0.0433  0.0040  0.6122
 7519TIP3   OH244047   3.642   0.620   0.745 -0.3778  0.2210 -0.2686
 7519TIP3    H144048   3.556   0.600   0.709 -0.0811  0.0189 -0.8854
 7519TIP3    H244049   3.702   0.560   0.700 -0.0865 -0.5289  1.0784
 7520TIP3   OH244050   4.722   1.011  16.640  0.2935 -0.6691  0.0742
 7520TIP3    H144051   4.765   1.067  16.705  0.9769 -0.7187 -0.3238
 7520TIP3    H244052   4.763   1.035  16.557 -2.6730  1.5993 -0.9108
 7521TIP3   OH244053   2.557   5.418   3.705 -0.7115 -0.1105  0.1564
 7521TIP3    H144054   2.488   5.459   3.758 -0.0962  2.0739 -0.6212
 7521TIP3    H244055   2.514   5.394   3.623 -0.5675  1.4489 -0.4157
 7522TIP3   OH244056   0.601   2.143  14.171 -0.2086 -0.1919  0.4949
 7522TIP3    H144057   0.507   2.146  14.156 -0.2843 -0.3430  0.9534
 7522TIP3    H244058   0.615   2.070  14.231  0.2629 -0.5354 -0.0181
 7523TIP3   OH244059   1.174   1.378  11.957  0.1921 -0.5723 -0.1205
 7523TIP3    H144060   1.202   1.293  11.924 -1.1596 -1.3623  0.6729
 7523TIP3    H244061   1.122   1.416  11.886 -0.6709 -1.1895  0.1761
 7524TIP3   OH244062   2.631   6.143  11.422  0.0092  0.1155  0.3788
 7524TIP3    H144063   2.570   6.174  11.355  2.6578  1.3244 -1.6273
 7524TIP3    H244064   2.700   6.097  11.374  0.7382 -1.2835  2.5538
 7525TIP3   OH244065   5.378   0.713   5.622 -0.3479 -0.5315  0.0675
 7525TIP3    H144066   5.346   0.626   5.599  0.1507 -0.3259 -1.5351
 7525TIP3    H244067   5.302   0.770   5.609  0.2752 -0.2045 -2.6565
 7526TIP3   OH244068   3.980   2.524  15.073  0.2709  0.3257  0.3317
 7526TIP3    H144069   3.896   2.546  15.033 -1.1478 -0.6012  2.6268
 7526TIP3    H244070   4.021   2.609  15.092  0.2464  0.7841 -1.4554
 7527TIP3   OH244071   6.726   4.389   2.766 -0.5645 -0.2397  0.4702
 7527TIP3    H144072   6.693   4.337   2.693  1.7035 -1.6258  0.3202
 7527TIP3    H244073   6.724   4.479   2.735 -0.5076 -0.7032 -0.9567
 7528TIP3   OH244074   2.450   3.378   4.848 -0.2015 -0.4149 -0.5535
 7528TIP3    H144075   2.447   3.323   4.926  1.3309  1.2111  0.7199
 7528TIP3    H244076   2.359   3.405   4.835 -0.4083 -0.2381  1.0455
 7529TIP3   OH244077   3.094   4.727  13.482 -0.4451  0.2775 -0.3563
 7529TIP3    H144078   3.172   4.700  13.531 -1.5148  0.4753  1.5735
 7529TIP3    H244079   3.123   4.801  13.429  0.7150  0.2384  0.1934
 7530TIP3   OH244080   3.408   4.214   5.113  0.7688 -0.2828 -0.3040
 7530TIP3    H144081   3.486   4.230   5.059  0.1106  1.1005 -0.8936
 7530TIP3    H244082   3.375   4.301   5.133 -0.4997 -0.8527  0.1394
 7531TIP3   OH244083   3.861   0.697   2.448  0.9617 -0.2243 -0.3909
 7531TIP3    H144084   3.876   0.633   2.518  2.1466  0.0564 -0.3578
 7531TIP3    H244085   3.809   0.651   2.383  0.3637 -0.6843  0.3907
 7532TIP3   OH244086   1.493   4.104  11.941 -0.1494 -0.0298  0.3446
 7532TIP3    H144087   1.450   4.077  12.022  0.2321 -1.4398  0.0986
 7532TIP3    H244088   1.427   4.157  11.896 -0.7795 -0.1880  1.0609
 7533TIP3   OH244089   6.087   4.446   1.492 -0.1506 -0.0762 -0.0387
 7533TIP3    H144090   6.111   4.466   1.401 -0.0547 -1.6655 -0.3926
 7533TIP3    H244091   6.024   4.375   1.485 -0.8381  0.3888  1.1249
 7534TIP3   OH244092   6.573   0.394  16.062  0.1798 -0.2350 -0.3184
 7534TIP3    H144093   6.580   0.454  15.988  1.9907  0.4459  0.3550
 7534TIP3    H244094   6.534   0.447  16.132  1.0869 -0.0481  0.0529
 7535TIP3   OH244095   0.525   0.005   5.000  0.0618 -0.0408  0.8279
 7535TIP3    H144096   0.551  -0.009   5.091  0.6978  2.4066  1.1019
 7535TIP3    H244097   0.548   0.096   4.982 -2.4397  0.3326 -1.0056
 7536TIP3   OH244098   4.050   0.062  15.084 -0.9308 -0.0413  0.3124
 7536TIP3    H144099   4.061   0.032  15.174 -0.1292 -0.5825  0.0419
 7536TIP3    H244100   4.098  -0.002  15.031  0.2038  1.2842 -0.3363
 7537TIP3   OH244101   3.524   0.302  13.453  0.4576 -0.2042  0.4583
 7537TIP3    H144102   3.619   0.299  13.438  0.3806  0.9924 -0.4091
 7537TIP3    H244103   3.487   0.309  13.365 -0.5173 -1.8493  0.7111
 7538TIP3   OH244104   5.418   0.643  17.022 -0.0389  0.1406 -0.1008
 7538TIP3    H144105   5.327   0.630  17.049 -0.5855  2.4460 -0.6326
 7538TIP3    H244106   5.443   0.560  16.983 -1.5318 -0.9218  1.0689
 7539TIP3   OH244107   4.100   5.132   2.289  0.7237  0.1361 -0.4491
 7539TIP3    H144108   4.103   5.124   2.194  1.5836  0.9073 -0.5040
 7539TIP3    H244109   4.078   5.044   2.320  3.1980 -0.8444 -1.2395
 7540TIP3   OH244110   1.334   2.285  12.380  0.3559 -0.0162 -0.2744
 7540TIP3    H144111   1.277   2.207  12.380 -1.0582  0.9503 -1.2712
 7540TIP3    H244112   1.398   2.266  12.312  0.8136 -0.8213  0.3559
 7541TIP3   OH244113   4.127   2.400  14.607 -0.6878  0.1791 -0.0324
 7541TIP3    H144114   4.141   2.449  14.526  0.0414 -2.4239 -1.6357
 7541TIP3    H244115   4.164   2.455  14.676  0.3682  1.6994 -1.7250
 7542TIP3   OH244116   6.404   6.227  17.186  0.0652  0.3529  0.0156
 7542TIP3    H144117   6.310   6.238  17.193 -0.2275 -0.8402 -1.4006
 7542TIP3    H244118   6.416   6.132  17.173  1.5219  0.3714  0.9734
 7543TIP3   OH244119   2.689   2.639   3.321  0.8242  0.1204  0.2324
 7543TIP3    H144120   2.726   2.595   3.398  1.2252  0.5839  0.3031
 7543TIP3    H244121   2.594   2.629   3.331  0.9021 -0.7163  0.2564
 7544TIP3   OH244122   6.099   5.560  13.710  0.0407  0.4625  0.5192
 7544TIP3    H144123   6.142   5.531  13.791 -1.5992  1.3666  1.7665
 7544TIP3    H244124   6.125   5.651  13.700 -0.9399  0.7905  0.8620
 7545TIP3   OH244125   6.653   0.749  15.028 -0.5453  0.4137  0.1028
 7545TIP3    H144126   6.603   0.691  14.970 -0.7392  0.5490  0.1340
 7545TIP3    H244127   6.675   0.695  15.103 -1.3913  0.5872  0.4951
 7546TIP3   OH244128   4.074   0.541  15.611  0.0140  0.4530 -0.2505
 7546TIP3    H144129   4.129   0.613  15.581  2.0113 -1.7915 -2.4179
 7546TIP3    H244130   4.055   0.491  15.532  1.0915 -2.8906  1.4034
 7547TIP3   OH244131   2.121   2.520  12.183 -0.2365 -0.3553 -0.7052
 7547TIP3    H144132   2.140   2.611  12.209  0.9102 -1.1379  1.4764
 7547TIP3    H244133   2.173   2.507  12.104  1.1475  0.3453  0.0433
 7548TIP3   OH244134   6.185   6.455  14.459  0.1538  0.7606 -0.2319
 7548TIP3    H144135   6.119   6.523  14.476 -1.1273 -0.0829 -1.5669
 7548TIP3    H244136   6.138   6.388  14.409  2.6442  1.3796 -3.7437
 7549TIP3   OH244137   5.106   6.456   2.135 -1.0067 -0.3944 -0.1608
 7549TIP3    H144138   5.090   6.451   2.230 -1.2252  0.3459 -0.1585
 7549TIP3    H244139   5.025   6.491   2.098 -0.3277  0.9411 -0.4283
 7550TIP3   OH244140   3.823   1.188  16.052  0.0851 -0.2874  0.5107
 7550TIP3    H144141   3.916   1.208  16.057 -0.2549  1.3017  0.9722
 7550TIP3    H244142   3.802   1.150  16.138  0.5174 -1.7573 -0.0020
 7551TIP3   OH244143   1.290   2.589  11.669 -0.4918 -0.0144  0.4247
 7551TIP3    H144144   1.293   2.663  11.608  0.5421  0.1151  0.6241
 7551TIP3    H244145   1.309   2.627  11.754 -0.6440 -0.4050  0.6371
 7552TIP3   OH244146   3.139   3.844   5.670  0.0337  0.3732  0.0145
 7552TIP3    H144147   3.059   3.792   5.670 -1.2271  2.2028 -0.8577
 7552TIP3    H244148   3.183   3.821   5.588  0.4949 -0.6954  0.5340
 7553TIP3   OH244149   5.335   5.508   1.068  0.4110 -0.5313  0.0101
 7553TIP3    H144150   5.319   5.528   1.160 -1.4008 -1.4062 -0.0721
 7553TIP3    H244151   5.355   5.415   1.067 -1.7304 -1.0406 -0.6505
 7554TIP3   OH244152   4.207   4.133   5.152 -0.2577 -0.0805  0.0037
 7554TIP3    H144153   4.195   4.089   5.236  1.6937 -0.3890  0.1720
 7554TIP3    H244154   4.125   4.181   5.138 -0.4535  0.3851  2.3189
 7555TIP3   OH244155   2.425   1.089  15.541  0.1909 -0.1598 -0.9308
 7555TIP3    H144156   2.512   1.120  15.567  1.1254 -2.0426 -1.6307
 7555TIP3    H244157   2.427   0.995  15.559 -1.8663 -0.1898 -0.5975
 7556TIP3   OH244158   0.692   1.892  14.871 -0.4464  0.0543 -0.4403
 7556TIP3    H144159   0.785   1.873  14.864 -0.0876  1.2292  0.6799
 7556TIP3    H244160   0.673   1.946  14.794  0.0409  0.6171 -0.1799
 7557TIP3   OH244161   4.304   1.746   5.431 -0.7620  0.3107  0.1589
 7557TIP3    H144162   4.257   1.824   5.460  1.9257  1.6545  1.1367
 7557TIP3    H244163   4.324   1.762   5.339  0.0269  0.9377  0.4299
 7558TIP3   OH244164   5.877   4.648   3.573  0.5827 -0.3931 -0.1154
 7558TIP3    H144165   5.931   4.569   3.565  1.0530 -0.0217 -0.6779
 7558TIP3    H244166   5.788   4.617   3.558  0.7605 -0.8297 -0.2832
 7559TIP3   OH244167   5.772   3.507   4.215  0.8999 -0.3938  0.2870
 7559TIP3    H144168   5.722   3.586   4.237  0.9509 -0.4359  0.5493
 7559TIP3    H244169   5.830   3.535   4.145 -0.9494 -0.8460 -1.5349
 7560TIP3   OH244170   0.699   1.188  11.966  0.2580  0.1078 -0.0841
 7560TIP3    H144171   0.635   1.255  11.943 -0.2812  0.1079  1.3017
 7560TIP3    H244172   0.724   1.148  11.882 -2.5388 -0.7821 -0.5992
 7561TIP3   OH244173   1.795   6.334   2.265  0.4412 -0.1959 -0.1616
 7561TIP3    H144174   1.879   6.364   2.299 -0.6982  2.1177  0.7979
 7561TIP3    H244175   1.761   6.275   2.332  1.2645 -1.1424 -0.5565
 7562TIP3   OH244176   6.302   4.895   5.524  0.1631  0.3825  0.3804
 7562TIP3    H144177   6.243   4.844   5.470  2.0457 -0.9356 -0.5700
 7562TIP3    H244178   6.354   4.829   5.571 -1.3925  1.4366  3.9341
 7563TIP3   OH244179   1.776   4.918   5.111  0.0226  0.0562 -0.5245
 7563TIP3    H144180   1.801   4.866   5.035 -0.5086 -0.2703 -0.4874
 7563TIP3    H244181   1.856   4.960   5.140  0.5073 -0.9104 -0.4314
 7564TIP3   OH244182   2.658   0.173   1.764 -0.4143  0.3885  0.3943
 7564TIP3    H144183   2.593   0.104   1.778 -0.0917  0.0357  0.1931
 7564TIP3    H244184   2.659   0.186   1.670  0.1917  0.0035  0.3396
 7565TIP3   OH244185   3.054   0.070   3.927  0.2815  0.0918 -0.3142
 7565TIP3    H144186   3.086   0.140   3.983  1.8778 -0.0126 -1.0260
 7565TIP3    H244187   2.995   0.113   3.865 -0.4977  0.4135  0.6418
 7566TIP3   OH244188   5.962   0.833  14.905 -0.3180 -0.5872 -0.0269
 7566TIP3    H144189   5.966   0.911  14.960  0.8379  1.8320 -3.2617
 7566TIP3    H244190   5.906   0.857  14.832 -0.1744 -2.9244 -1.0151
 7567TIP3   OH244191   3.258   5.305   4.969  0.7909 -1.0754  0.2067
 7567TIP3    H144192   3.278   5.351   4.887 -1.1173  1.2745  0.9105
 7567TIP3    H244193   3.218   5.223   4.942  1.4251 -0.9462 -1.1910
 7568TIP3   OH244194   4.199   1.697   3.466 -0.1585 -0.4302  0.4407
 7568TIP3    H144195   4.221   1.738   3.382 -4.2355 -2.0513 -1.6951
 7568TIP3    H244196   4.159   1.768   3.517 -2.4197 -0.4353 -1.1693
 7569TIP3   OH244197   4.940   0.523  11.744  0.1683  1.1529  0.4996
 7569TIP3    H144198   4.908   0.516  11.654  1.2493  0.9627  0.1206
 7569TIP3    H244199   4.879   0.469  11.795  0.4910 -0.0678 -0.3717
 7570TIP3   OH244200   1.921   5.456   6.097 -0.1615 -0.4163  0.1668
 7570TIP3    H144201   1.872   5.436   6.017 -1.5100  0.7628  0.6466
 7570TIP3    H244202   1.877   5.533   6.133  0.3811 -0.9423  2.0806
 7571TIP3   OH244203   4.042   1.208   4.270 -0.3453 -0.1298  0.2071
 7571TIP3    H144204   4.043   1.157   4.188 -1.2828  1.8854 -1.1466
 7571TIP3    H244205   4.043   1.142   4.339 -0.3350 -1.9473 -1.4327
 7572TIP3   OH244206   4.772   1.569   0.690 -0.0011  0.3645 -0.3227
 7572TIP3    H144207   4.683   1.533   0.697  0.4677 -0.5648  1.1391
 7572TIP3    H244208   4.810   1.524   0.615 -0.5969  0.4459 -0.6887
 7573TIP3   OH244209   1.004   0.743   4.201 -0.0727  0.2879  0.0346
 7573TIP3    H144210   0.981   0.653   4.225 -0.4733  1.1186  3.1832
 7573TIP3    H244211   0.972   0.797   4.273  1.8063  2.7791 -0.8258
 7574TIP3   OH244212   4.018   3.301   6.045  0.2920 -0.4638  0.1043
 7574TIP3    H144213   4.078   3.229   6.060  0.5467  0.0246  1.5628
 7574TIP3    H244214   4.072   3.380   6.053 -0.2797 -0.0568  0.0663
 7575TIP3   OH244215   5.492   5.433   5.476  0.3052  0.2240 -0.3521
 7575TIP3    H144216   5.474   5.482   5.395  0.9596 -0.5767 -1.0040
 7575TIP3    H244217   5.532   5.351   5.446 -1.3592 -1.0266  0.6833
 7576TIP3   OH244218   2.995   4.146  15.520 -0.6297 -0.2127 -0.8262
 7576TIP3    H144219   3.014   4.235  15.490 -2.7914  0.9090  0.8537
 7576TIP3    H244220   3.063   4.092  15.479  2.5467  2.5493  0.3244
 7577TIP3   OH244221   1.611   2.750   1.654  0.8104  0.1168  0.0412
 7577TIP3    H144222   1.550   2.689   1.697  0.5237 -0.8399 -1.6214
 7577TIP3    H244223   1.634   2.706   1.572  2.6692  1.0974 -0.0117
 7578TIP3   OH244224   4.347   3.173   5.836  0.2971  0.4562 -0.0832
 7578TIP3    H144225   4.332   3.092   5.885  0.4209  1.1474  1.1380
 7578TIP3    H244226   4.259   3.207   5.818  0.2369 -0.0952 -0.8714
 7579TIP3   OH244227   6.746   5.404  14.977  0.0006  0.2205  0.1949
 7579TIP3    H144228   6.761   5.443  14.892 -2.7530  0.3525 -0.3076
 7579TIP3    H244229   6.737   5.478  15.037  1.1381  0.1434  0.4895
 7580TIP3   OH244230   5.190   6.392   1.759  0.6720 -0.0229 -0.0605
 7580TIP3    H144231   5.260   6.457   1.763  1.4698 -0.7685 -1.2117
 7580TIP3    H244232   5.205   6.335   1.833 -0.5417  1.5512  1.4771
 7581TIP3   OH244233   3.860   5.496  12.052  0.1103  0.6427  0.4671
 7581TIP3    H144234   3.818   5.491  11.966  1.7175 -1.3278 -0.2909
 7581TIP3    H244235   3.916   5.573  12.046 -0.9604  1.4347  0.3447
 7582TIP3   OH244236   0.101   3.357  13.606 -0.1035 -0.5412 -0.3764
 7582TIP3    H144237   0.154   3.333  13.530  0.5626 -2.5031  0.6340
 7582TIP3    H244238   0.164   3.361  13.678 -0.8356  0.5276  0.2269
 7583TIP3   OH244239   4.532   6.601  13.865 -0.4947  0.0961 -0.2217
 7583TIP3    H144240   4.582   6.607  13.783 -1.6414 -1.4289 -1.0714
 7583TIP3    H244241   4.599   6.596  13.933  0.4911  1.9118 -0.9695
 7584TIP3   OH244242   6.548   2.581   5.723  0.4071 -0.0775 -0.2192
 7584TIP3    H144243   6.502   2.513   5.773  2.8481 -1.4038  0.3777
 7584TIP3    H244244   6.547   2.658   5.779 -0.5092 -0.2601  0.0360
 7585TIP3   OH244245   1.073   3.791   1.210  0.4989  0.1432 -0.4147
 7585TIP3    H144246   1.107   3.841   1.136  0.2367  1.1984  0.1571
 7585TIP3    H244247   1.041   3.857   1.271 -2.1057 -0.7595 -0.6720
 7586TIP3   OH244248   6.298   6.492   1.779 -0.2458  0.1426 -0.1174
 7586TIP3    H144249   6.312   6.502   1.873  1.8734  3.3081 -0.6100
 7586TIP3    H244250   6.382   6.515   1.740 -1.3659 -0.0211 -2.8227
 7587TIP3   OH244251   0.241   2.899  15.249  0.1177 -0.3329 -0.0108
 7587TIP3    H144252   0.336   2.909  15.260  0.0095  1.0016 -0.0947
 7587TIP3    H244253   0.210   2.869  15.334  0.4775  0.4989  0.4337
 7588TIP3   OH244254   2.000   3.846   3.539  0.3903 -0.4492 -0.1325
 7588TIP3    H144255   1.993   3.932   3.499  0.7762 -0.2857  0.1536
 7588TIP3    H244256   2.092   3.837   3.563  0.3465 -0.9242 -0.1183
 7589TIP3   OH244257   1.081   3.748   2.360 -0.5872 -0.3974 -0.2366
 7589TIP3    H144258   1.067   3.685   2.431 -0.4195 -0.2174 -0.0388
 7589TIP3    H244259   1.025   3.822   2.382  0.2554  0.1112  0.2898
 7590TIP3   OH244260   3.159   6.402  11.390  0.0832  0.2972  0.1827
 7590TIP3    H144261   3.067   6.423  11.373  0.3449  0.5056 -1.0622
 7590TIP3    H244262   3.204   6.423  11.308  1.1524 -0.3670  0.5808
 7591TIP3   OH244263   5.204   5.891  13.286  0.0073 -0.1981 -0.7098
 7591TIP3    H144264   5.244   5.805  13.297  0.9896  0.0167 -2.2634
 7591TIP3    H244265   5.263   5.951  13.332  0.6631 -0.0833 -1.6608
 7592TIP3   OH244266   2.743   3.756  13.975  0.5925  0.3660 -0.0060
 7592TIP3    H144267   2.662   3.750  13.925  0.5197  0.8668  0.0454
 7592TIP3    H244268   2.718   3.739  14.066  0.6061  0.1619 -0.0402
 7593TIP3   OH244269   6.323   4.053   4.639 -0.0097  0.0161  1.0299
 7593TIP3    H144270   6.275   3.971   4.631  0.8032 -0.4225  0.4422
 7593TIP3    H244271   6.397   4.044   4.578 -1.5758  2.3905 -1.4931
 7594TIP3   OH244272   4.205   3.819   3.449  0.0093  0.2827  0.2827
 7594TIP3    H144273   4.158   3.754   3.397  0.8429 -0.3791  0.3147
 7594TIP3    H244274   4.251   3.873   3.385 -0.9517  1.0657  0.2426
 7595TIP3   OH244275   3.663   4.772  12.524 -0.2284  0.4176  0.8323
 7595TIP3    H144276   3.688   4.809  12.609 -0.2215 -0.2722  1.1476
 7595TIP3    H244277   3.573   4.743  12.537  0.2180 -0.9521  1.0660
 7596TIP3   OH244278   3.664   1.492   4.562 -0.6843 -0.1922 -0.2408
 7596TIP3    H144279   3.628   1.567   4.609 -1.3918 -1.5078  1.3912
 7596TIP3    H244280   3.588   1.441   4.535 -0.1855 -1.2890  0.3441
 7597TIP3   OH244281   6.018   3.720  16.384  0.1896  0.2905  0.0243
 7597TIP3    H144282   6.007   3.810  16.353  0.9410 -0.3922 -2.4245
 7597TIP3    H244283   6.091   3.725  16.446 -0.6318  1.5353  0.9532
 7598TIP3   OH244284   2.293   1.268  12.950 -0.1609 -0.3949 -0.4193
 7598TIP3    H144285   2.296   1.210  12.875  0.7290 -0.5912 -0.2468
 7598TIP3    H244286   2.264   1.352  12.915  0.2716 -0.4789 -0.9916
 7599TIP3   OH244287   4.518   2.057   2.276  0.3286  0.7024  0.2924
 7599TIP3    H144288   4.505   1.964   2.258  0.3468  0.3944  1.7552
 7599TIP3    H244289   4.431   2.088   2.303  0.4719  0.9486  0.4735
 7600TIP3   OH244290   5.736   4.391   1.607 -0.4099  0.2573  0.2546
 7600TIP3    H144291   5.819   4.407   1.652  1.0850 -1.4193 -1.7169
 7600TIP3    H244292   5.746   4.435   1.522 -0.6900 -1.6242 -0.7895
 7601TIP3   OH244293   3.288   1.263   0.843  0.4361 -0.1769 -0.1162
 7601TIP3    H144294   3.357   1.205   0.875  2.3397  0.5880 -2.5755
 7601TIP3    H244295   3.290   1.253   0.748 -1.6961  1.2049 -0.3756
 7602TIP3   OH244296   5.131   1.984  15.774  0.2001  0.4720 -0.2132
 7602TIP3    H144297   5.109   1.897  15.741  1.6981  0.6662 -1.9135
 7602TIP3    H244298   5.164   1.969  15.863 -1.9705 -0.3455  0.5018
 7603TIP3   OH244299   4.961   3.102  11.308 -0.3517  0.1462  0.2590
 7603TIP3    H144300   4.992   3.126  11.220 -0.5700  0.1902  0.1945
 7603TIP3    H244301   4.931   3.012  11.300 -0.9531  0.3503  0.1359
 7604TIP3   OH244302   1.049   6.808   2.187 -0.1097  0.4272  0.0033
 7604TIP3    H144303   1.013   6.731   2.231 -0.0477  0.0188 -0.6554
 7604TIP3    H244304   1.004   6.812   2.103 -1.2980  2.0557  0.6757
 7605TIP3   OH244305   1.040   6.565  17.118  0.1055  0.1326  0.1549
 7605TIP3    H144306   1.067   6.524  17.036 -0.4051 -1.1112  0.5939
 7605TIP3    H244307   1.052   6.498  17.185 -0.6518  0.7218  0.9147
 7606TIP3   OH244308   1.604   2.328   3.835 -0.0422 -0.3383 -0.3737
 7606TIP3    H144309   1.617   2.356   3.926 -1.3750  2.1941 -0.8805
 7606TIP3    H244310   1.536   2.261   3.839 -1.4763  1.1118  0.3654
 7607TIP3   OH244311   1.520   1.578   0.314 -0.3854 -0.1510  0.3618
 7607TIP3    H144312   1.547   1.552   0.402 -0.5747 -0.4441  0.3318
 7607TIP3    H244313   1.425   1.590   0.320 -0.4215 -0.3324  0.1558
 7608TIP3   OH244314   3.884   0.157  16.450 -0.1378  0.4578 -0.0104
 7608TIP3    H144315   3.794   0.164  16.417  0.7739  0.8289 -2.6785
 7608TIP3    H244316   3.879   0.188  16.540 -2.8522 -0.5381  0.2789
 7609TIP3   OH244317   6.164   6.287  15.782  0.0982 -0.5062  0.7463
 7609TIP3    H144318   6.142   6.303  15.874  0.1879 -0.3945  0.7500
 7609TIP3    H244319   6.148   6.194  15.769  0.6320 -0.6460  1.0356
 7610TIP3   OH244320   0.675   1.503  14.791  0.6558  0.4084 -0.1824
 7610TIP3    H144321   0.705   1.414  14.777  0.7302  0.0112  2.1039
 7610TIP3    H244322   0.725   1.534  14.866  0.3497  2.2555 -0.6804
 7611TIP3   OH244323   6.716   1.996   2.176  0.2105  0.5523  0.2202
 7611TIP3    H144324   6.738   1.941   2.100 -0.8484  0.6546 -0.1813
 7611TIP3    H244325   6.709   2.085   2.140  0.4115  0.7219  0.5865
 7612TIP3   OH244326   2.955   5.687  14.550 -0.1821 -0.3975  0.0389
 7612TIP3    H144327   3.043   5.655  14.532  0.4566  1.7025 -0.9320
 7612TIP3    H244328   2.897   5.619  14.518  1.0748 -0.4622 -2.3229
 7613TIP3   OH244329   6.618   4.657   4.666  0.1480  0.3871  0.3304
 7613TIP3    H144330   6.643   4.734   4.615  0.8744  0.7812  1.2533
 7613TIP3    H244331   6.564   4.692   4.737  0.2673  0.0207  0.6054
 7614TIP3   OH244332   5.557   5.362  13.436  0.2164  0.4721  0.3570
 7614TIP3    H144333   5.540   5.445  13.480  2.9250  1.1336  0.3488
 7614TIP3    H244334   5.538   5.380  13.343 -1.3138  0.3784  0.6268
 7615TIP3   OH244335   0.312   2.422  15.806  0.1414  0.3218  0.6296
 7615TIP3    H144336   0.325   2.426  15.901  0.7674  1.5965  0.5255
 7615TIP3    H244337   0.275   2.336  15.789 -0.9835  0.4739  2.1512
 7616TIP3   OH244338   2.937   1.058   3.595 -0.5669  0.3938 -0.0930
 7616TIP3    H144339   2.844   1.045   3.617 -0.5791 -0.8777 -0.8027
 7616TIP3    H244340   2.939   1.065   3.500  0.0001  1.2100 -0.0346
 7617TIP3   OH244341   3.329   2.716   4.235  0.4742  0.6173  0.1643
 7617TIP3    H144342   3.250   2.667   4.256  0.7448  0.0487 -0.1237
 7617TIP3    H244343   3.392   2.650   4.207  0.8236  1.1388 -0.3046
 7618TIP3   OH244344   2.289   4.853   5.473  0.2486 -0.1322 -0.2175
 7618TIP3    H144345   2.369   4.823   5.430  0.0657 -0.2169 -0.4977
 7618TIP3    H244346   2.307   4.843   5.567  1.0889  1.1421 -0.2109
 7619TIP3   OH244347   3.732   4.462   1.807 -0.8734 -0.1144 -0.4471
 7619TIP3    H144348   3.668   4.534   1.811  0.9542  1.5438  1.4173
 7619TIP3    H244349   3.778   4.476   1.724 -0.1085  1.3299  0.1849
 7620TIP3   OH244350   3.554   3.211  12.572  0.0442  0.1327  0.0799
 7620TIP3    H144351   3.559   3.290  12.627 -2.3411  0.4437 -0.0427
 7620TIP3    H244352   3.467   3.176  12.588  1.1920 -2.8392  0.5123
 7621TIP3   OH244353   1.751   0.338  15.844 -0.3579 -0.3150  0.2042
 7621TIP3    H144354   1.829   0.387  15.817 -0.4255 -0.3849 -0.1170
 7621TIP3    H244355   1.735   0.367  15.934 -0.5936  0.5065 -0.0953
 7622TIP3   OH244356   0.320   2.117   3.550  0.8011  0.2249  0.2651
 7622TIP3    H144357   0.258   2.126   3.623  0.0902  0.0969 -0.3108
 7622TIP3    H244358   0.401   2.085   3.591  0.4548  0.2829  1.0126
 7623TIP3   OH244359   3.663   0.522   5.881  0.0726 -0.9549 -0.7414
 7623TIP3    H144360   3.690   0.447   5.827  1.8439  0.3962 -1.8343
 7623TIP3    H244361   3.695   0.599   5.833 -3.0719  0.6797 -0.5047
 7624TIP3   OH244362   3.635   2.637  16.229 -0.0121 -0.6337  0.2062
 7624TIP3    H144363   3.572   2.566  16.241 -0.3418 -0.2056  1.0996
 7624TIP3    H244364   3.616   2.671  16.142 -1.6930  0.1158  0.8190
 7625TIP3   OH244365   5.341   0.592  15.603 -0.2692  0.3308 -0.4833
 7625TIP3    H144366   5.308   0.654  15.538 -0.1442  1.6880  0.6978
 7625TIP3    H244367   5.407   0.641  15.652  1.0928 -1.2875 -0.6064
 7626TIP3   OH244368   1.809   5.106   3.600  0.6779 -0.5283  0.1164
 7626TIP3    H144369   1.861   5.028   3.583  1.2223  0.0663 -1.0648
 7626TIP3    H244370   1.873   5.176   3.616  0.2821  0.1687 -1.1604
 7627TIP3   OH244371   1.199   2.309   0.923  0.1084  0.3349  0.3287
 7627TIP3    H144372   1.282   2.353   0.943 -1.2613  2.3207  2.0667
 7627TIP3    H244373   1.160   2.363   0.854 -0.5631  0.4928  0.8310
 7628TIP3   OH244374   2.955   1.917  15.178 -0.1761 -0.2594  0.0597
 7628TIP3    H144375   2.918   1.973  15.110 -0.2614 -0.2938  0.0771
 7628TIP3    H244376   3.044   1.949  15.191 -1.0151  1.5270  1.8699
 7629TIP3   OH244377   2.564   5.010  14.849 -0.1082  0.3899 -0.1161
 7629TIP3    H144378   2.532   5.101  14.847  1.7832  1.1086  0.6102
 7629TIP3    H244379   2.589   4.992  14.758 -0.9228  0.4045 -0.3556
 7630TIP3   OH244380   2.464   3.873  15.855  0.2844  0.1601 -0.3376
 7630TIP3    H144381   2.555   3.902  15.858  0.3528 -0.0341 -0.4888
 7630TIP3    H244382   2.459   3.819  15.776  0.7228 -2.1309  1.1219
 7631TIP3   OH244383   3.380   1.323   2.821  0.1395 -0.5109  0.4852
 7631TIP3    H144384   3.402   1.255   2.757 -2.1132 -1.0606  0.2159
 7631TIP3    H244385   3.366   1.276   2.903 -0.4086 -0.2538  0.5439
 7632TIP3   OH244386   0.166   6.614  15.162 -0.1118  0.2420 -0.6404
 7632TIP3    H144387   0.167   6.685  15.226  0.7904  0.8418 -1.2952
 7632TIP3    H244388   0.078   6.578  15.166 -0.2487  0.6855  0.4837
 7633TIP3   OH244389   6.011   1.636  12.051 -0.5344  0.1145 -0.1171
 7633TIP3    H144390   6.050   1.593  12.126  1.9277  2.4159  0.0747
 7633TIP3    H244391   6.046   1.588  11.975  1.2474  0.9466  0.1218
 7634TIP3   OH244392   1.594   0.271  15.054 -0.2228  0.1743  0.4998
 7634TIP3    H144393   1.686   0.282  15.079 -0.2917  1.9145  0.0665
 7634TIP3    H244394   1.594   0.195  14.996  0.9345  0.1198  0.5463
 7635TIP3   OH244395   0.202   6.675   1.342 -0.4256  0.3969 -0.2079
 7635TIP3    H144396   0.174   6.591   1.378  0.6026  0.8731  1.8284
 7635TIP3    H244397   0.163   6.677   1.255  0.1081 -2.4963 -0.6313
 7636TIP3   OH244398   0.129   5.858   1.920 -0.2720 -0.0326 -0.1614
 7636TIP3    H144399   0.116   5.899   2.005 -0.2419  0.6874 -0.4980
 7636TIP3    H244400   0.066   5.787   1.917 -1.1057  0.6877 -0.0131
 7637TIP3   OH244401   1.457   3.126   6.029 -0.2336 -0.3609 -0.5051
 7637TIP3    H144402   1.412   3.204   6.060  1.6035  1.0197 -1.1529
 7637TIP3    H244403   1.426   3.056   6.087  0.6898  1.4752  2.4150
 7638TIP3   OH244404   5.241   4.727   0.675 -0.1140 -0.0195 -0.4867
 7638TIP3    H144405   5.264   4.712   0.766  0.0264 -0.1116 -0.5358
 7638TIP3    H244406   5.221   4.640   0.640 -3.5853  0.2994  0.3262
 7639TIP3   OH244407   5.092   4.101  17.137 -0.5896  0.1882 -0.3908
 7639TIP3    H144408   5.022   4.115  17.201  0.6120 -1.4193  1.3804
 7639TIP3    H244409   5.069   4.157  17.063 -1.7858  2.5360  1.6448
 7640TIP3   OH244410   2.871   2.796  14.878  0.9499  1.0713 -0.4305
 7640TIP3    H144411   2.819   2.724  14.843 -1.0226  1.2620  1.8214
 7640TIP3    H244412   2.893   2.849  14.802  0.4511 -0.6685 -1.8453
 7641TIP3   OH244413   6.663   1.987  15.940  0.0998  0.5874  0.5514
 7641TIP3    H144414   6.746   2.034  15.929  0.8075 -0.4242  1.3089
 7641TIP3    H244415   6.643   1.996  16.033  0.6660 -1.2143  0.8913
 7642TIP3   OH244416   5.601   2.036   2.377 -0.0339 -0.4134 -0.6348
 7642TIP3    H144417   5.638   2.105   2.322 -0.5306 -0.8192 -1.5052
 7642TIP3    H244418   5.674   2.006   2.431  0.9841 -1.3245 -2.4359
 7643TIP3   OH244419   3.412   5.718  16.401  0.4432  0.5674  0.2374
 7643TIP3    H144420   3.445   5.632  16.374  0.5228  1.0004 -1.1074
 7643TIP3    H244421   3.449   5.779  16.338 -1.5517  1.2803 -0.3319
 7644TIP3   OH244422   5.478   6.836  11.705  0.8201  0.1696 -0.3012
 7644TIP3    H144423   5.545   6.862  11.769  0.3173 -2.1343  1.2751
 7644TIP3    H244424   5.426   6.771  11.751 -2.8843  2.1771 -1.2783
 7645TIP3   OH244425   4.100   5.460  16.909 -0.2471 -0.2060  0.4824
 7645TIP3    H144426   4.036   5.389  16.907 -0.0547 -0.4715  2.3169
 7645TIP3    H244427   4.173   5.428  16.856 -0.5711 -0.9434  0.4652
 7646TIP3   OH244428   2.457   3.250   4.226  0.0324  0.1158  0.1918
 7646TIP3    H144429   2.457   3.230   4.319 -0.5791 -0.7064  0.0263
 7646TIP3    H244430   2.424   3.340   4.221 -0.8862 -0.1807  0.7062
 7647TIP3   OH244431   6.667   3.139   3.545  0.2310  0.1497 -0.9344
 7647TIP3    H144432   6.757   3.106   3.542  0.2485 -0.2454  1.5175
 7647TIP3    H244433   6.614   3.070   3.508  0.8334 -0.0878 -1.3685
 7648TIP3   OH244434   3.512   1.259  15.584 -0.2937  0.0690  0.5130
 7648TIP3    H144435   3.531   1.220  15.669  0.0215  1.6483  1.2165
 7648TIP3    H244436   3.464   1.340  15.605 -0.3793  0.3910 -0.8166
 7649TIP3   OH244437   4.143   3.100  11.911 -0.3895  0.7623  0.0340
 7649TIP3    H144438   4.216   3.145  11.868 -0.6054  1.4020  0.3255
 7649TIP3    H244439   4.066   3.153  11.891 -0.7571  0.1730 -0.1466
 7650TIP3   OH244440   3.449   6.538   4.163 -0.1898 -0.3097 -0.5634
 7650TIP3    H144441   3.411   6.617   4.123 -0.9291 -1.6764 -2.7708
 7650TIP3    H244442   3.543   6.547   4.149 -0.1902  0.5406 -0.0688
 7651TIP3   OH244443   2.822   3.819  14.448  0.0798  0.3623  0.3184
 7651TIP3    H144444   2.915   3.801  14.458 -0.1025 -1.1490 -0.4487
 7651TIP3    H244445   2.813   3.847  14.357 -0.1263  1.2487  0.5991
 7652TIP3   OH244446   0.333   4.544  14.956  0.1492  0.3629  0.3648
 7652TIP3    H144447   0.344   4.454  14.927  0.3139  0.4494  0.1489
 7652TIP3    H244448   0.327   4.595  14.875  1.2328  0.6851  0.4732
 7653TIP3   OH244449   5.465   6.246   5.775 -0.3360 -0.4770 -0.5387
 7653TIP3    H144450   5.462   6.326   5.828  0.4570  0.4330 -1.8016
 7653TIP3    H244451   5.488   6.277   5.687  0.4814 -2.1529 -0.9485
 7654TIP3   OH244452   6.241   4.076  11.129 -0.1061 -0.4925  0.1955
 7654TIP3    H144453   6.286   4.023  11.063  0.5867 -0.3515  0.5366
 7654TIP3    H244454   6.223   4.015  11.201  3.0988  0.1779  1.7643
 7655TIP3   OH244455   4.275   2.173  11.318  0.7735 -0.1664  0.8969
 7655TIP3    H144456   4.267   2.225  11.238  0.9839 -1.0008  0.3280
 7655TIP3    H244457   4.350   2.212  11.364  0.9593  0.0015  0.4550
 7656TIP3   OH244458   6.507   5.795  15.935  0.0499  0.2919 -0.7429
 7656TIP3    H144459   6.506   5.888  15.915  1.8084 -0.1486 -3.4667
 7656TIP3    H244460   6.428   5.760  15.892 -0.3909  0.4545 -0.0724
 7657TIP3   OH244461   3.309   0.169  12.962  0.8596 -0.0603  0.4094
 7657TIP3    H144462   3.313   0.169  13.057  0.3872  0.5366  0.4388
 7657TIP3    H244463   3.306   0.262  12.938  0.1460 -0.2126 -0.1395
 7658TIP3   OH244464   6.552   1.014   5.290  0.2913  0.6604  0.3544
 7658TIP3    H144465   6.563   1.106   5.314  2.1976  0.3809  0.7168
 7658TIP3    H244466   6.553   1.014   5.195  0.4993  1.0085  0.3525
 7659TIP3   OH244467   3.729   5.778  14.282 -0.2749 -0.1269  0.4445
 7659TIP3    H144468   3.726   5.682  14.282 -2.6638 -0.1723 -1.8493
 7659TIP3    H244469   3.822   5.800  14.274  0.1699 -2.3093 -1.1936
 7660TIP3   OH244470   0.093   4.129  14.272 -0.3873 -0.2664  0.1489
 7660TIP3    H144471   0.133   4.213  14.251 -1.8305  0.8066  1.4637
 7660TIP3    H244472   0.149   4.091  14.340  0.4549 -0.5584 -0.6888
 7661TIP3   OH244473   6.588   1.674  14.959  0.0224  0.0415 -0.0946
 7661TIP3    H144474   6.634   1.666  15.043 -0.6729  1.7522  0.5046
 7661TIP3    H244475   6.656   1.699  14.897  0.1514  1.2542  0.5074
 7662TIP3   OH244476   1.534   5.503   6.295  0.2454 -0.7526  0.0816
 7662TIP3    H144477   1.456   5.448   6.292  0.9668 -1.8040  0.2426
 7662TIP3    H244478   1.583   5.473   6.372  1.8688 -1.6155 -1.2189
 7663TIP3   OH244479   3.965   5.901   4.728  0.2825 -0.0323 -0.0351
 7663TIP3    H144480   3.893   5.924   4.669 -1.1583  1.4696  2.1585
 7663TIP3    H244481   3.936   5.820   4.771  0.2932  0.1147  0.2480
 7664TIP3   OH244482   2.447   2.511  15.019 -0.3234  0.2811  0.0366
 7664TIP3    H144483   2.396   2.443  15.063 -0.2747  0.7539  0.8490
 7664TIP3    H244484   2.391   2.540  14.947 -0.3520 -0.5940 -0.3076
 7665TIP3   OH244485   2.699   3.527  14.188  0.5958  0.0840  0.0543
 7665TIP3    H144486   2.665   3.471  14.119  0.9271 -1.6841  1.2719
 7665TIP3    H244487   2.775   3.481  14.223  0.2721  0.7699  1.7855
 7666TIP3   OH244488   2.236   4.287   1.853  0.0690 -0.4544 -0.3706
 7666TIP3    H144489   2.177   4.307   1.925 -0.5036 -1.1944 -0.6282
 7666TIP3    H244490   2.276   4.203   1.876  1.3170  0.2029 -0.0218
 7667TIP3   OH244491   6.569   1.440  12.522 -0.4966  0.7372  0.1048
 7667TIP3    H144492   6.523   1.407  12.599 -2.6930  0.5067 -1.2413
 7667TIP3    H244493   6.635   1.373  12.504  0.5971  1.1486  2.1601
 7668TIP3   OH244494   1.451   2.365  16.305  0.4353 -0.6455 -0.1494
 7668TIP3    H144495   1.442   2.423  16.381 -1.2630  0.2874 -0.9884
 7668TIP3    H244496   1.385   2.397  16.243  0.9677 -2.1197 -1.5438
 7669TIP3   OH244497   5.093   6.535   5.943  0.1730 -0.4906 -0.1376
 7669TIP3    H144498   5.083   6.449   5.904  2.2859  0.1176 -2.2228
 7669TIP3    H244499   5.053   6.595   5.880  0.4741  0.2291  0.3338
 7670TIP3   OH244500   2.912   0.751  11.336  0.0446 -0.1003  0.0473
 7670TIP3    H144501   2.857   0.754  11.415  2.2072 -3.5858  1.9467
 7670TIP3    H244502   2.989   0.804  11.358 -0.5054  1.1657 -0.9062
 7671TIP3   OH244503   2.819   5.211  15.577 -0.6369  0.4701  0.7197
 7671TIP3    H144504   2.790   5.132  15.532  2.7500  0.2114 -1.3586
 7671TIP3    H244505   2.870   5.179  15.651  1.4007  0.5298 -0.5633
 7672TIP3   OH244506   3.563   4.972  13.565  0.6136 -0.1396 -0.4536
 7672TIP3    H144507   3.497   4.918  13.608  0.4830 -0.2003 -0.7249
 7672TIP3    H244508   3.572   4.934  13.477  1.1172 -0.2248 -0.3723
 7673TIP3   OH244509   3.160   5.948  15.690 -0.5173  0.0968  0.5595
 7673TIP3    H144510   3.205   5.890  15.629  2.6224  1.0108  1.8169
 7673TIP3    H244511   3.177   6.036  15.657 -2.4496  0.4627  0.4554
 7674TIP3   OH244512   5.525   2.117  14.103 -0.3839  0.2649 -0.4856
 7674TIP3    H144513   5.498   2.096  14.013 -0.3732 -0.9975 -0.2034
 7674TIP3    H244514   5.482   2.201  14.121 -0.1253  0.7169 -1.7747
 7675TIP3   OH244515   1.340   4.402   3.717 -0.1935  0.4431 -0.3890
 7675TIP3    H144516   1.255   4.361   3.702 -0.5234  0.9957 -0.0856
 7675TIP3    H244517   1.330   4.491   3.683  0.4920  0.2950 -0.9952
 7676TIP3   OH244518   0.499   5.841   1.990 -0.5998  0.6514 -0.1342
 7676TIP3    H144519   0.462   5.895   1.920 -0.6496  0.8968  0.0765
 7676TIP3    H244520   0.435   5.771   2.003 -0.0830 -0.0138 -1.0607
 7677TIP3   OH244521   1.141   2.554   1.065  0.4956 -0.1481  0.0755
 7677TIP3    H144522   1.104   2.600   0.990  1.1539 -1.0893 -0.8539
 7677TIP3    H244523   1.236   2.556   1.051  0.8049  1.3467  1.9018
 7678TIP3   OH244524   4.449   3.999  11.499  0.2720 -0.5260 -0.2298
 7678TIP3    H144525   4.386   3.979  11.568 -0.4416  0.3201 -0.6237
 7678TIP3    H244526   4.396   4.031  11.426  1.1069 -0.3802 -0.7881
 7679TIP3   OH244527   0.604   2.640   3.964 -0.1598 -0.5071  0.3109
 7679TIP3    H144528   0.634   2.618   3.876  0.3041 -1.6317  0.7416
 7679TIP3    H244529   0.530   2.699   3.950 -1.3467 -2.2022 -0.8880
 7680TIP3   OH244530   2.857   2.012   3.569 -0.1100  0.3457 -0.3025
 7680TIP3    H144531   2.830   2.090   3.618 -0.1336  0.6005 -0.7181
 7680TIP3    H244532   2.841   2.034   3.478  1.6196  0.5688 -0.5846
 7681TIP3   OH244533   2.341   4.027  17.057 -0.0499 -0.1161  0.3516
 7681TIP3    H144534   2.417   4.053  17.109 -0.2628  0.3957  0.4177
 7681TIP3    H244535   2.317   3.941  17.091 -0.2731  0.2708  1.2115
 7682TIP3   OH244536   4.124   4.148   4.446  0.3261 -0.1445 -0.2907
 7682TIP3    H144537   4.141   4.235   4.410 -0.5960 -0.3561 -1.2851
 7682TIP3    H244538   4.182   4.090   4.398  0.7277 -0.1255  0.1665
 7683TIP3   OH244539   2.407   4.034  15.127 -0.3088 -0.0690 -0.0195
 7683TIP3    H144540   2.425   4.095  15.055  1.1064  2.3370  2.2068
 7683TIP3    H244541   2.489   3.987  15.141 -0.8558 -1.2077 -0.5355
 7684TIP3   OH244542   5.581   1.173  13.561 -0.3430  0.1200  0.4080
 7684TIP3    H144543   5.657   1.163  13.503  0.4293  0.5400  1.3234
 7684TIP3    H244544   5.523   1.232  13.514 -1.0572 -1.7461 -1.2166
 7685TIP3   OH244545   0.062   4.877   1.371  0.0035 -0.5423 -0.5254
 7685TIP3    H144546  -0.019   4.928   1.366  0.7869  0.8044  0.0583
 7685TIP3    H244547   0.033   4.786   1.363 -1.8094 -0.2603  1.8400
 7686TIP3   OH244548   2.534   3.756  11.432 -0.3587  0.0223 -0.0528
 7686TIP3    H144549   2.629   3.764  11.432 -0.4327  1.6161  1.7086
 7686TIP3    H244550   2.503   3.846  11.445 -2.2457  0.1451 -3.8369
 7687TIP3   OH244551   3.819   4.659   5.396  0.5419 -0.3452 -0.6265
 7687TIP3    H144552   3.836   4.704   5.479 -0.5137  0.0370 -0.5980
 7687TIP3    H244553   3.729   4.627   5.404  0.5596 -0.6449 -1.4789
 7688TIP3   OH244554   4.841   6.516   0.048  0.2727  0.3607 -0.4416
 7688TIP3    H144555   4.894   6.489   0.123  1.3064  1.2804 -0.8215
 7688TIP3    H244556   4.770   6.568   0.086 -0.5800 -1.1350  0.0990
 7689TIP3   OH244557   0.865   1.293   0.150  0.4127 -0.1342  0.1095
 7689TIP3    H144558   0.786   1.282   0.204  0.6183 -0.5819  0.3268
 7689TIP3    H244559   0.898   1.204   0.138  1.1175  0.0888  0.3591
 7690TIP3   OH244560   5.136   6.323  13.789  0.0828  0.0820 -0.5760
 7690TIP3    H144561   5.140   6.371  13.872  0.0261  1.3426 -1.2819
 7690TIP3    H244562   5.228   6.309  13.765  0.1300  1.1337 -1.0750
 7691TIP3   OH244563   6.646   5.876   1.348  0.7847  0.2345  0.0008
 7691TIP3    H144564   6.664   5.782   1.350 -0.7627 -0.1204  2.8879
 7691TIP3    H244565   6.731   5.916   1.329  1.4696 -1.6994 -1.3373
 7692TIP3   OH244566   3.296   4.083  17.180  0.0339 -0.3002  0.2030
 7692TIP3    H144567   3.269   4.173  17.202 -1.2970 -1.1499  2.3433
 7692TIP3    H244568   3.387   4.078  17.208  0.4271  0.6107 -0.8058
 7693TIP3   OH244569   4.306   3.701  16.474 -0.5138 -0.2718 -0.8764
 7693TIP3    H144570   4.284   3.625  16.419  2.1793 -0.6249 -1.6158
 7693TIP3    H244571   4.336   3.663  16.556 -1.9193  0.1658 -0.1267
 7694TIP3   OH244572   2.378   0.887   2.720 -0.4187  0.0007  0.4893
 7694TIP3    H144573   2.426   0.903   2.801 -0.6918  1.1099  0.4403
 7694TIP3    H244574   2.399   0.796   2.698  1.2698  0.2972  0.7174
 7695TIP3   OH244575   5.511   2.643  17.127 -0.1255  0.2439  0.1432
 7695TIP3    H144576   5.590   2.603  17.090 -0.1205  0.9957 -0.6722
 7695TIP3    H244577   5.501   2.726  17.080 -1.1068  0.4082  0.6111
 7696TIP3   OH244578   6.797   1.649   4.279 -0.0345  0.0511 -0.3824
 7696TIP3    H144579   6.812   1.653   4.374 -2.2178 -0.5456  0.0409
 7696TIP3    H244580   6.795   1.741   4.251 -2.5413  0.4329  0.7716
 7697TIP3   OH244581   0.559   5.350  13.067  0.0288 -0.1471 -0.3709
 7697TIP3    H144582   0.540   5.427  13.013 -0.1240 -1.6189 -2.5914
 7697TIP3    H244583   0.474   5.320  13.096  0.0418  0.2086  0.0385
 7698TIP3   OH244584   5.446   1.015   6.397  0.5053 -0.1344 -0.3131
 7698TIP3    H144585   5.481   1.021   6.308 -0.4024  0.5238 -0.6415
 7698TIP3    H244586   5.404   0.929   6.400  1.8752 -0.8317  0.0077
 7699TIP3   OH244587   6.364   3.167   0.049  0.4509  0.3040 -0.3193
 7699TIP3    H144588   6.307   3.160   0.125 -1.7958  0.4128 -1.9095
 7699TIP3    H244589   6.333   3.245   0.003  1.9156  0.3804 -1.2533
 7700TIP3   OH244590   2.420   1.492   0.259 -0.6685  0.4777  0.1421
 7700TIP3    H144591   2.513   1.505   0.241 -0.9548  0.3702 -1.5364
 7700TIP3    H244592   2.410   1.519   0.350  0.7518  1.7918 -0.0419
 7701TIP3   OH244593   1.379   2.367   3.096  0.0326 -0.3233 -0.6909
 7701TIP3    H144594   1.407   2.435   3.034  0.5659  0.9361  0.8661
 7701TIP3    H244595   1.355   2.293   3.041  2.0855  0.1398 -2.3361
 7702TIP3   OH244596   3.224   3.114  11.186 -0.2867 -0.2248  0.6778
 7702TIP3    H144597   3.319   3.126  11.180 -0.4051  0.0445 -0.9533
 7702TIP3    H244598   3.213   3.024  11.216  0.4827 -0.6835 -0.3590
 7703TIP3   OH244599   6.489   4.724   0.589 -0.0285  0.5893  0.1376
 7703TIP3    H144600   6.458   4.751   0.675  0.2972  0.1941  0.3819
 7703TIP3    H244601   6.577   4.690   0.604  0.6154  1.8654 -0.5740
 7704TIP3   OH244602   0.017   1.023   5.099  0.1494  0.0084  0.0647
 7704TIP3    H144603   0.066   1.064   5.027  1.9936 -1.2460  0.5357
 7704TIP3    H244604   0.084   0.997   5.162 -1.4368  1.5689  2.5737
 7705TIP3   OH244605   3.821   5.872   4.201 -0.0024  0.2301 -0.0062
 7705TIP3    H144606   3.793   5.949   4.250 -0.6682  0.1694 -0.2816
 7705TIP3    H244607   3.915   5.865   4.218 -0.1431  0.4679  0.8992
 7706TIP3   OH244608   2.404   4.358   2.370  0.6361  0.4320  0.2878
 7706TIP3    H144609   2.338   4.418   2.405 -1.3727 -0.6112 -1.5071
 7706TIP3    H244610   2.414   4.384   2.278  0.7748 -1.0706 -0.1474
 7707TIP3   OH244611   5.170   2.061   5.559 -0.1558 -0.1983 -0.0459
 7707TIP3    H144612   5.242   2.025   5.507 -1.3057 -2.1229 -0.4178
 7707TIP3    H244613   5.092   2.017   5.526 -1.6337  2.2703 -0.0673
 7708TIP3   OH244614   4.189   3.083   6.125  0.4151 -0.1862 -0.0425
 7708TIP3    H144615   4.108   3.046   6.160  0.8960 -1.7805 -0.4906
 7708TIP3    H244616   4.238   3.112   6.202  0.0909 -0.6955  0.3623
 7709TIP3   OH244617   1.268   3.281   3.126  0.4834 -0.4433  0.0758
 7709TIP3    H144618   1.329   3.347   3.157 -0.6406  0.5648  0.2398
 7709TIP3    H244619   1.249   3.227   3.202  0.3608 -0.1062  0.2836
 7710TIP3   OH244620   4.060   4.818  11.777 -0.1239 -0.6361 -0.2808
 7710TIP3    H144621   4.085   4.902  11.816 -1.8110 -0.8510  1.3614
 7710TIP3    H244622   4.144   4.779  11.750  0.9429  0.4315  1.2953
 7711TIP3   OH244623   2.919   3.214   5.466 -0.0666 -0.7265  0.5695
 7711TIP3    H144624   2.867   3.188   5.542 -0.7969  0.7981  0.6329
 7711TIP3    H244625   2.862   3.198   5.391 -0.1735 -0.2190  0.5360
 7712TIP3   OH244626   1.765   5.016   0.122 -0.0136  0.4710 -0.7362
 7712TIP3    H144627   1.853   4.983   0.139 -0.0606 -0.1481 -1.6080
 7712TIP3    H244628   1.733   4.962   0.049 -0.8329  1.1753 -0.9123
 7713TIP3   OH244629   0.069   4.764  15.260  0.4932 -0.0992  0.0209
 7713TIP3    H144630   0.130   4.761  15.186 -0.7908 -1.3131 -1.0390
 7713TIP3    H244631   0.104   4.700  15.323  0.3677 -0.7587 -0.5658
 7714TIP3   OH244632   6.117   1.401   6.473 -0.1331  0.0381  0.2664
 7714TIP3    H144633   6.144   1.312   6.496 -0.1406  0.4452  2.0418
 7714TIP3    H244634   6.021   1.396   6.465 -0.0527 -0.2907 -0.5976
 7715TIP3   OH244635   4.294   2.862  17.029 -0.1108 -0.4307  0.1341
 7715TIP3    H144636   4.204   2.882  17.003 -0.1027 -0.4448  0.0961
 7715TIP3    H244637   4.285   2.810  17.109 -0.3491 -4.1249 -2.0236
 7716TIP3   OH244638   1.491   2.197  16.510  0.2164 -0.4032 -0.5812
 7716TIP3    H144639   1.471   2.240  16.426 -1.1159 -1.4371 -0.8254
 7716TIP3    H244640   1.551   2.127  16.487  1.2604  0.4064 -0.3899
 7717TIP3   OH244641   4.714   4.614   0.856 -0.5675  0.0180  0.1609
 7717TIP3    H144642   4.754   4.660   0.782 -1.9562 -2.3323 -2.1961
 7717TIP3    H244643   4.633   4.662   0.872  0.3461  1.3256  1.1355
 7718TIP3   OH244644   3.789   2.202   0.682  0.2043 -0.1344 -0.0034
 7718TIP3    H144645   3.785   2.294   0.709  0.9221 -0.2935  0.6452
 7718TIP3    H244646   3.775   2.205   0.587  0.2064  0.6405  0.0128
 7719TIP3   OH244647   0.811   3.674   6.800  0.5439 -0.3041  0.0317
 7719TIP3    H144648   0.831   3.594   6.751  0.5000 -0.8687  0.9095
 7719TIP3    H244649   0.855   3.743   6.751  0.5205 -0.8534 -0.7860
 7720TIP3   OH244650   1.471   5.585  11.250  0.2311 -1.0071 -0.0960
 7720TIP3    H144651   1.433   5.564  11.165  0.9630 -0.2391 -0.6279
 7720TIP3    H244652   1.534   5.655  11.232  0.8727 -1.2825  0.9746
 7721TIP3   OH244653   1.770   4.702   2.366  0.4969 -0.3087 -0.3643
 7721TIP3    H144654   1.695   4.686   2.309 -1.2308 -0.2741  1.7484
 7721TIP3    H244655   1.784   4.797   2.362 -0.7993 -0.0452  0.5784
 7722TIP3   OH244656   0.019   5.168  13.965  0.2848 -0.0476  0.1212
 7722TIP3    H144657  -0.061   5.172  13.913 -0.7413  1.3456  1.6953
 7722TIP3    H244658   0.004   5.098  14.027  1.3533 -1.4527 -1.1393
 7723TIP3   OH244659   3.242   5.731   1.692  0.2248  0.1090  0.2879
 7723TIP3    H144660   3.167   5.787   1.713  0.0017 -0.2187  0.3792
 7723TIP3    H244661   3.235   5.716   1.598 -0.0383 -0.2240  0.3588
 7724TIP3   OH244662   2.929   3.650  15.351  0.4283  0.3748  0.2468
 7724TIP3    H144663   2.927   3.562  15.312  1.0582 -0.0590  1.1514
 7724TIP3    H244664   2.989   3.641  15.426  1.5692  1.9009 -0.4346
 7725TIP3   OH244665   3.049   6.060  11.261 -0.1816 -0.0854  0.1508
 7725TIP3    H144666   3.132   6.050  11.307 -0.3411 -0.9151  0.2821
 7725TIP3    H244667   3.072   6.097  11.177  0.2661  0.1478  0.3739
 7726TIP3   OH244668   3.896   3.100   4.188  0.1219  0.3125  0.2903
 7726TIP3    H144669   3.885   3.043   4.113  1.0906 -0.2070  0.5369
 7726TIP3    H244670   3.860   3.051   4.262  1.2229 -0.1193  0.5550
 7727TIP3   OH244671   1.179   3.335  15.743  0.0835 -0.3816  0.4869
 7727TIP3    H144672   1.159   3.421  15.705  0.0474 -0.2938  0.6975
 7727TIP3    H244673   1.157   3.345  15.836 -0.5462 -0.8220  0.3942
 7728TIP3   OH244674   2.630   5.016  12.466  0.0708 -0.6037 -0.3787
 7728TIP3    H144675   2.700   5.081  12.460 -2.1529  2.1180  0.6197
 7728TIP3    H244676   2.564   5.047  12.404 -1.3544 -1.5275  0.6201
 7729TIP3   OH244677   4.845   4.494   1.862  0.3313  0.1228  0.5435
 7729TIP3    H144678   4.877   4.404   1.870  0.0789  0.0407  0.6432
 7729TIP3    H244679   4.920   4.543   1.829 -0.1103 -0.5198 -1.5636
 7730TIP3   OH244680   3.127   5.734   3.179 -0.0194 -0.2197  0.5394
 7730TIP3    H144681   3.115   5.774   3.265  3.2235  2.3817 -0.0154
 7730TIP3    H244682   3.117   5.806   3.117 -1.3565 -1.8524 -1.2515
 7731TIP3   OH244683   6.306   4.737   2.040 -0.4814  0.0808  0.5002
 7731TIP3    H144684   6.326   4.669   2.104 -0.2634 -0.3993 -0.0695
 7731TIP3    H244685   6.232   4.703   1.991 -1.1876  0.8133  1.0376
 7732TIP3   OH244686   1.779   4.117  15.947  0.1219 -0.1152 -0.1360
 7732TIP3    H144687   1.849   4.054  15.960  2.3054  1.7547 -1.9264
 7732TIP3    H244688   1.765   4.119  15.852 -1.3256  0.6356  0.0619
 7733TIP3   OH244689   4.516   5.144  10.914  0.8128 -0.1288  0.3046
 7733TIP3    H144690   4.472   5.213  10.964  1.5453  0.1479  0.5835
 7733TIP3    H244691   4.451   5.117  10.849  0.0681 -0.0599  0.9972
 7734TIP3   OH244692   6.501   5.987   4.021 -0.6421  0.0550 -0.4613
 7734TIP3    H144693   6.595   5.976   4.007 -0.4379 -0.7801  1.2392
 7734TIP3    H244694   6.468   5.899   4.036 -1.6919  0.3474 -0.9285
 7735TIP3   OH244695   5.181   0.592   4.219 -0.1775  0.1780 -1.2228
 7735TIP3    H144696   5.168   0.685   4.236 -0.0267  0.0241 -0.2102
 7735TIP3    H244697   5.263   0.588   4.169  0.9322  0.4512  0.5041
 7736TIP3   OH244698   0.932   3.092  16.363 -0.0691  0.1400 -0.2473
 7736TIP3    H144699   0.890   3.175  16.385 -1.7404 -0.8893  0.6909
 7736TIP3    H244700   1.011   3.090  16.417 -1.7675 -0.3192  2.4542
 7737TIP3   OH244701   5.625   3.930  11.670  0.0359 -0.3913 -0.6598
 7737TIP3    H144702   5.554   3.866  11.678 -0.1999 -0.0682 -0.1474
 7737TIP3    H244703   5.665   3.932  11.757  0.7082 -0.6118 -0.9612
 7738TIP3   OH244704   0.498   5.274   3.687  0.1290 -0.9468 -0.0395
 7738TIP3    H144705   0.454   5.317   3.614 -1.4601 -1.6022  0.4746
 7738TIP3    H244706   0.578   5.324   3.701 -0.6721  0.5856 -0.7489
 7739TIP3   OH244707   6.055   5.297  15.887 -0.3809 -0.2241 -0.4638
 7739TIP3    H144708   5.984   5.318  15.948 -1.2102 -1.4928 -0.9528
 7739TIP3    H244709   6.128   5.353  15.915 -0.8573 -0.4703  1.4527
 7740TIP3   OH244710   6.722   0.594  16.305 -0.1430  0.1122 -0.4595
 7740TIP3    H144711   6.685   0.508  16.326 -0.2455  0.0520 -0.8729
 7740TIP3    H244712   6.812   0.577  16.281  0.4805  0.3720  1.5016
 7741TIP3   OH244713   3.761   1.944   2.755  0.3315 -0.2948 -0.3473
 7741TIP3    H144714   3.806   2.020   2.719 -0.4894 -0.1800 -1.1701
 7741TIP3    H244715   3.831   1.881   2.772  0.9053  0.2263 -0.7091
 7742TIP3   OH244716   3.837   4.783  17.186  0.1547 -0.0007 -0.1479
 7742TIP3    H144717   3.798   4.827  17.110  1.2621 -0.0549 -0.7676
 7742TIP3    H244718   3.906   4.729  17.149 -0.7140 -1.7375  0.6851
 7743TIP3   OH244719   5.871   4.641  13.834 -0.1425 -0.5114 -0.2329
 7743TIP3    H144720   5.908   4.555  13.811  0.7423 -0.6358  1.5057
 7743TIP3    H244721   5.820   4.625  13.913  1.4543  0.8445  1.1330
 7744TIP3   OH244722   3.230   5.672  15.059  0.2001 -0.8233 -0.3651
 7744TIP3    H144723   3.151   5.724  15.046  0.0135 -0.5280  1.5468
 7744TIP3    H244724   3.302   5.735  15.046  0.1077 -0.9296 -1.4321
 7745TIP3   OH244725   3.542   2.611   0.615 -0.1155  0.4184  0.0944
 7745TIP3    H144726   3.515   2.522   0.592  0.4179 -0.6642  3.2336
 7745TIP3    H244727   3.632   2.618   0.584 -0.2929  0.0614 -0.5264
 7746TIP3   OH244728   6.473   5.661  13.402 -0.3773  0.0178  0.1023
 7746TIP3    H144729   6.535   5.644  13.330 -0.1794 -0.3777  0.3602
 7746TIP3    H244730   6.431   5.576  13.417  1.2338 -0.5329  1.9940
 7747TIP3   OH244731   0.859   4.634   0.823 -0.2469  0.4318 -0.3419
 7747TIP3    H144732   0.768   4.662   0.836 -0.0516  2.1038 -2.1028
 7747TIP3    H244733   0.867   4.553   0.874 -3.2083 -0.7197 -1.4680
 7748TIP3   OH244734   6.501   4.316  13.746  0.0706 -0.0708 -0.6463
 7748TIP3    H144735   6.448   4.289  13.670 -0.4933  0.1621 -0.3414
 7748TIP3    H244736   6.441   4.308  13.820  1.0033 -1.5887 -0.0148
 7749TIP3   OH244737   2.426   0.512   5.887 -0.1924  0.0807 -0.0109
 7749TIP3    H144738   2.336   0.497   5.858 -0.2649  0.9215 -0.2626
 7749TIP3    H244739   2.480   0.490   5.811 -0.4266  3.0366 -1.1965
 7750TIP3   OH244740   2.638   2.690   1.707  0.0940  0.1458  0.1338
 7750TIP3    H144741   2.580   2.758   1.740  2.2898  1.9141  0.5748
 7750TIP3    H244742   2.721   2.705   1.751  0.5436 -3.2919  0.7529
 7751TIP3   OH244743   3.795   6.802  14.480 -0.0426  0.5305  0.0348
 7751TIP3    H144744   3.788   6.748  14.401 -2.1609  0.3859  0.2633
 7751TIP3    H244745   3.849   6.877  14.453 -2.3249  1.5376 -2.2404
 7752TIP3   OH244746   6.302   4.348  11.670  0.1482  0.4939  0.4864
 7752TIP3    H144747   6.214   4.311  11.670  0.1082  0.5868  0.6200
 7752TIP3    H244748   6.291   4.436  11.706  0.3239  0.4330  0.6931
 7753TIP3   OH244749   2.534   3.715  11.960 -0.4795 -0.0662  0.0678
 7753TIP3    H144750   2.533   3.627  11.999 -0.2984 -0.3587 -0.5599
 7753TIP3    H244751   2.616   3.754  11.990  0.8043 -1.1497 -1.8176
 7754TIP3   OH244752   3.316   6.028  16.891 -0.5294 -0.0819  0.2604
 7754TIP3    H144753   3.308   5.955  16.829 -0.5855  0.3509 -0.2468
 7754TIP3    H244754   3.348   5.987  16.971  1.3700 -0.3990 -0.5998
 7755TIP3   OH244755   5.484   3.329   6.012 -0.4574 -0.4444  0.2176
 7755TIP3    H144756   5.523   3.253   5.970 -1.2014 -1.1770  0.8201
 7755TIP3    H244757   5.483   3.308   6.105 -3.8719 -1.2674  0.1124
 7756TIP3   OH244758   1.515   3.156   1.171 -0.1812 -0.0663  0.4187
 7756TIP3    H144759   1.534   3.075   1.125  2.4854  0.5574  0.2339
 7756TIP3    H244760   1.430   3.185   1.137 -0.0800 -1.5675 -1.2232
 7757TIP3   OH244761   4.657   3.722  11.440 -0.4998 -0.6401 -0.7603
 7757TIP3    H144762   4.724   3.658  11.416  0.0975 -0.4766  0.3713
 7757TIP3    H244763   4.611   3.682  11.514  0.7058  0.6948  0.8046
 7758TIP3   OH244764   3.347   5.113  14.796  0.0798 -0.1030 -0.1884
 7758TIP3    H144765   3.414   5.121  14.864 -0.0696 -1.1901  0.0960
 7758TIP3    H244766   3.389   5.063  14.726 -0.5700 -1.2227  0.1982
 7759TIP3   OH244767   6.357   4.401   0.616 -0.2686  0.6335  0.2604
 7759TIP3    H144768   6.340   4.319   0.568  2.6150 -0.4271  0.8586
 7759TIP3    H244769   6.367   4.467   0.548  1.9216 -0.4879 -0.6203
 7760TIP3   OH244770   0.730   0.064  11.041 -0.1508  0.1001  0.5535
 7760TIP3    H144771   0.757  -0.015  10.995 -1.4537  0.0679 -0.1976
 7760TIP3    H244772   0.636   0.052  11.057 -0.3249  1.3974  0.6186
 7761TIP3   OH244773   5.405   2.577  13.936  0.1157 -0.3120  0.1777
 7761TIP3    H144774   5.311   2.585  13.920 -0.0903 -0.1804  1.3756
 7761TIP3    H244775   5.443   2.570  13.848 -1.1794 -2.6036 -0.2872
 7762TIP3   OH244776   0.579   1.045   3.348  0.0589 -0.0291 -0.3317
 7762TIP3    H144777   0.591   1.068   3.440 -1.6927  0.7915 -0.2635
 7762TIP3    H244778   0.552   0.953   3.350  0.3885 -0.1201 -0.0528
 7763TIP3   OH244779   4.927   1.486   1.387  0.1493  0.2300  0.2739
 7763TIP3    H144780   4.869   1.415   1.358  0.3506  0.6791 -1.3192
 7763TIP3    H244781   5.015   1.454   1.367  0.3273  0.3652  0.8450
 7764TIP3   OH244782   2.691   5.103   2.153  0.0192  0.2301 -0.5398
 7764TIP3    H144783   2.750   5.135   2.221 -1.0285  0.5002  0.2802
 7764TIP3    H244784   2.748   5.068   2.085  1.3131  3.9388 -1.6048
 7765TIP3   OH244785   5.660   3.457   1.580 -0.0199 -0.7257 -0.2675
 7765TIP3    H144786   5.594   3.458   1.511 -1.0335  1.4661  0.6264
 7765TIP3    H244787   5.718   3.530   1.558  0.4611 -0.8727  0.4741
 7766TIP3   OH244788   1.556   2.858  16.141  0.2075  0.0756 -0.4634
 7766TIP3    H144789   1.609   2.902  16.075  0.6004 -0.4946 -0.5298
 7766TIP3    H244790   1.541   2.925  16.208  0.6229  0.3726 -0.6634
 7767TIP3   OH244791   2.118   0.788   1.433  0.0470  0.1990 -0.6089
 7767TIP3    H144792   2.119   0.749   1.346 -0.6867 -0.6458 -0.2595
 7767TIP3    H244793   2.202   0.763   1.472 -0.0024 -0.1978 -0.7509
 7768TIP3   OH244794   1.194   1.480   6.300  0.1791  0.0763  0.0550
 7768TIP3    H144795   1.238   1.486   6.216 -0.4606 -0.1408 -0.3011
 7768TIP3    H244796   1.260   1.508   6.364  0.4003  1.0819 -0.5897
 7769TIP3   OH244797   5.935   3.149   0.397  0.2242 -0.9037 -0.0679
 7769TIP3    H144798   5.866   3.086   0.374  0.0278 -0.3245 -1.1425
 7769TIP3    H244799   5.948   3.137   0.491 -1.5586 -0.8405  0.2301
 7770TIP3   OH244800   5.822   3.034  15.244 -0.0546 -0.0528  0.3512
 7770TIP3    H144801   5.800   2.987  15.163 -0.0062  0.2557  0.1558
 7770TIP3    H244802   5.872   3.110  15.214  1.2607 -0.7158  0.7659
 7771TIP3   OH244803   1.010   2.496   2.012  0.2239 -0.6581  0.0575
 7771TIP3    H144804   0.944   2.431   1.986 -1.3299  1.4268 -1.5965
 7771TIP3    H244805   0.998   2.506   2.107 -2.4874  0.2154 -0.2891
 7772TIP3   OH244806   4.911   1.950   5.053  0.1255  0.9645  0.0030
 7772TIP3    H144807   4.933   2.014   5.121 -0.6708 -0.0112  1.2131
 7772TIP3    H244808   4.991   1.897   5.045  1.1592  2.6426 -1.7188
 7773TIP3   OH244809   3.444   0.918   3.548 -0.5629  0.1705  0.0054
 7773TIP3    H144810   3.426   0.955   3.461 -0.4779  0.2454  0.0197
 7773TIP3    H244811   3.491   0.837   3.530  1.7198  1.3973  0.0198
 7774TIP3   OH244812   6.784   5.709   0.513  0.1235  0.3350 -0.0341
 7774TIP3    H144813   6.708   5.742   0.465  0.7359 -0.2132 -1.4343
 7774TIP3    H244814   6.784   5.758   0.596 -2.3602 -0.4034  0.4900
 7775TIP3   OH244815   1.709   4.204   3.177 -0.0438  0.7692 -0.5108
 7775TIP3    H144816   1.736   4.293   3.202  1.8574 -0.0162  0.3428
 7775TIP3    H244817   1.764   4.146   3.229 -0.0739 -0.9410 -2.2783
 7776TIP3   OH244818   1.088   6.394   1.607  0.1397 -0.3788  0.0373
 7776TIP3    H144819   1.113   6.320   1.662  1.1869  0.8500  1.2952
 7776TIP3    H244820   1.106   6.471   1.661 -1.4363  0.7887 -1.0172
 7777TIP3   OH244821   5.805   3.074   1.086  0.1001 -0.0247 -0.4529
 7777TIP3    H144822   5.779   3.140   1.151 -1.7240  1.3311 -2.4363
 7777TIP3    H244823   5.839   3.001   1.139  0.8455  1.8821  1.8842
 7778TIP3   OH244824   5.387   5.611   1.543  0.0950 -0.3253  0.2954
 7778TIP3    H144825   5.387   5.619   1.638  0.1961  1.0345  0.2091
 7778TIP3    H244826   5.428   5.526   1.526  0.3411 -0.4569  1.4546
 7779TIP3   OH244827   4.005   0.645  13.690 -0.0360 -0.4197 -0.3376
 7779TIP3    H144828   4.078   0.670  13.634  0.2977 -1.4728 -0.3988
 7779TIP3    H244829   3.970   0.565  13.651 -0.3592 -0.6779  0.4464
 7780TIP3   OH244830   2.760   3.852   3.619  0.2026 -0.3959  0.4205
 7780TIP3    H144831   2.806   3.932   3.596  1.7905 -1.4281 -0.1614
 7780TIP3    H244832   2.821   3.781   3.596 -1.9383 -1.8905 -1.0350
 7781TIP3   OH244833   4.152   5.184   1.405  0.5490  0.6409  0.1139
 7781TIP3    H144834   4.136   5.109   1.462  0.8684 -0.4751 -1.2045
 7781TIP3    H244835   4.222   5.232   1.449  0.5912 -0.0313  0.8111
 7782TIP3   OH244836   6.614   2.469   4.456 -0.3220 -0.1646  0.2582
 7782TIP3    H144837   6.640   2.395   4.402  0.1368 -1.2809  1.9490
 7782TIP3    H244838   6.521   2.456   4.472 -0.5739  0.4353 -0.6190
 7783TIP3   OH244839   3.764   1.747  13.358  0.5379  0.2149  0.1594
 7783TIP3    H144840   3.803   1.789  13.434  0.2289  1.4245 -0.3257
 7783TIP3    H244841   3.672   1.735  13.382  0.3211  1.0947 -0.2245
 7784TIP3   OH244842   6.556   3.731   0.994 -0.0882 -0.4718  0.5616
 7784TIP3    H144843   6.538   3.819   1.027  2.0323 -0.2567  1.2978
 7784TIP3    H244844   6.594   3.685   1.068 -1.6751 -2.2490  0.3552
 7785TIP3   OH244845   6.798   1.421  13.806  0.1286  0.0099  0.4918
 7785TIP3    H144846   6.789   1.501  13.755 -0.1653 -0.4707 -0.2290
 7785TIP3    H244847   6.811   1.451  13.896 -1.6390  0.8600  0.5081
 7786TIP3   OH244848   4.593   1.443  12.135 -0.2400  0.2605  0.2476
 7786TIP3    H144849   4.592   1.476  12.225  0.7927  1.8927 -0.3002
 7786TIP3    H244850   4.553   1.512  12.084 -1.1275 -0.7999 -0.5447
 7787TIP3   OH244851   5.383   6.709  16.614  0.0595 -0.4486 -0.3763
 7787TIP3    H144852   5.474   6.702  16.643 -0.3471 -0.7293  0.8916
 7787TIP3    H244853   5.359   6.621  16.585  0.6164 -0.0663 -2.1352
 7788TIP3   OH244854   4.128   2.362  10.682  0.0754  0.5560 -0.0536
 7788TIP3    H144855   4.178   2.281  10.672  1.2368  1.3937 -1.4832
 7788TIP3    H244856   4.062   2.358  10.613  0.9703  1.3632 -1.0021
 7789TIP3   OH244857   4.105   2.268  13.258  0.0462 -0.5638 -0.4711
 7789TIP3    H144858   4.039   2.206  13.291  1.4130 -0.9554  1.7545
 7789TIP3    H244859   4.094   2.346  13.313 -0.1712  0.3352 -1.7563
 7790TIP3   OH244860   5.183   2.457   4.342 -0.9308  0.4557 -0.1959
 7790TIP3    H144861   5.117   2.502   4.289 -1.7927  0.1150  0.5706
 7790TIP3    H244862   5.169   2.489   4.431  0.3759  0.8672 -0.1193
 7791TIP3   OH244863   1.223   2.237   1.444  0.0171  0.4233 -0.1135
 7791TIP3    H144864   1.223   2.316   1.390  0.2337  1.2164  1.0130
 7791TIP3    H244865   1.149   2.186   1.412 -0.7170  1.5307 -0.2375
 7792TIP3   OH244866   2.635   4.663   4.065  0.0874  0.4357 -0.1986
 7792TIP3    H144867   2.616   4.589   4.123  0.6282  1.2350  1.0590
 7792TIP3    H244868   2.562   4.663   4.003 -1.9636  1.0110  2.0173
 7793TIP3   OH244869   4.978   2.475   3.157  0.2347 -0.4709  0.5345
 7793TIP3    H144870   5.014   2.517   3.079  0.2110 -1.6267 -0.1267
 7793TIP3    H244871   4.883   2.481   3.145  0.2256 -1.7143 -0.1466
 7794TIP3   OH244872   0.001   5.462  13.956  0.3688 -0.0610 -0.5497
 7794TIP3    H144873  -0.085   5.473  13.914  0.2469 -1.5760 -0.7475
 7794TIP3    H244874  -0.015   5.481  14.048 -0.0616  0.1834 -0.6710
 7795TIP3   OH244875   1.935   4.998   1.073 -0.3165 -0.4435  0.5292
 7795TIP3    H144876   1.873   4.938   1.032  1.4020 -1.9426  0.0051
 7795TIP3    H244877   1.986   5.034   1.000  0.4384 -0.4218  1.0522
 7796TIP3   OH244878   0.195   4.918  11.385  0.1883 -0.0118  0.0261
 7796TIP3    H144879   0.111   4.894  11.345 -0.0312  1.2701 -0.3185
 7796TIP3    H244880   0.242   4.835  11.393 -0.6197 -0.5863 -0.9177
 7797TIP3   OH244881   4.782   4.179  15.299  0.0269 -0.0226  0.0611
 7797TIP3    H144882   4.871   4.184  15.265 -0.4710 -1.0314 -1.4886
 7797TIP3    H244883   4.726   4.182  15.221 -1.1325 -3.6696  0.5805
 7798TIP3   OH244884   0.796   4.574  16.286  0.2422 -0.0834  0.1803
 7798TIP3    H144885   0.842   4.605  16.208 -0.3113 -1.2891 -0.6587
 7798TIP3    H244886   0.710   4.616  16.282 -0.8953 -2.3749 -1.5155
 7799TIP3   OH244887   0.316   2.398   3.783  0.2346 -0.4450 -0.0598
 7799TIP3    H144888   0.223   2.376   3.781 -0.0985  0.9021 -0.2610
 7799TIP3    H244889   0.336   2.409   3.876  0.3153 -1.1812  0.0157
 7800TIP3   OH244890   4.522   0.912  14.185  0.4599  0.3577 -0.1676
 7800TIP3    H144891   4.479   0.828  14.166  0.6658  0.3253 -0.5080
 7800TIP3    H244892   4.450   0.973  14.200 -0.0452  1.3791 -4.9525
 7801TIP3   OH244893   2.132   3.196  15.491  0.7902  0.1350  0.0878
 7801TIP3    H144894   2.134   3.288  15.465  1.2061  0.1052 -0.0036
 7801TIP3    H244895   2.209   3.158  15.449  1.4478  0.0680  1.2981
 7802TIP3   OH244896   6.332   4.780  10.518  0.3308  0.0073  1.0520
 7802TIP3    H144897   6.308   4.872  10.505 -0.0865  0.0247  1.9022
 7802TIP3    H244898   6.264   4.745  10.575  2.0421 -0.0565  3.2063
 7803TIP3   OH244899   1.140   1.064  10.664 -0.4716  0.3314 -0.0216
 7803TIP3    H144900   1.082   1.018  10.602  0.5615 -1.4476  0.2531
 7803TIP3    H244901   1.086   1.078  10.741 -0.6829 -0.9698  0.0938
 7804TIP3   OH244902   5.376   6.068  13.457  0.0320  0.0594 -0.4476
 7804TIP3    H144903   5.460   6.113  13.447  1.0996 -1.2313  1.7523
 7804TIP3    H244904   5.329   6.118  13.524 -1.5252  1.4173 -2.4401
 7805TIP3   OH244905   5.708   5.246  11.512 -0.2003 -0.0491  0.2406
 7805TIP3    H144906   5.769   5.180  11.545  0.1125  0.6877  1.1770
 7805TIP3    H244907   5.744   5.329  11.542 -1.1674  0.4734  0.0010
 7806TIP3   OH244908   5.652   3.677   5.636 -0.1525 -0.3573  0.2619
 7806TIP3    H144909   5.652   3.641   5.725 -0.9947  0.5277  0.6341
 7806TIP3    H244910   5.612   3.608   5.583 -1.1266 -0.2713  0.8551
 7807TIP3   OH244911   2.025   5.153   2.516  0.1846 -0.3101  0.2650
 7807TIP3    H144912   2.002   5.114   2.600 -1.0090 -2.3166 -0.9089
 7807TIP3    H244913   2.072   5.084   2.469 -0.8405  0.0755 -1.4186
 7808TIP3   OH244914   4.096   2.712  12.319 -0.2519 -0.0905  0.0716
 7808TIP3    H144915   4.157   2.775  12.283  2.6203 -1.6633  1.7845
 7808TIP3    H244916   4.117   2.630  12.274 -1.9219 -0.4831 -0.0746
 7809TIP3   OH244917   1.006   5.239   0.775 -0.1175 -0.7316 -0.6107
 7809TIP3    H144918   0.921   5.279   0.759 -0.1733 -0.5270  0.1625
 7809TIP3    H244919   0.995   5.191   0.857 -0.0801 -2.4284 -1.5501
 7810TIP3   OH244920   2.857   2.648   3.590  0.1681  0.4076 -0.1214
 7810TIP3    H144921   2.828   2.622   3.678 -2.8487  2.6671 -0.2808
 7810TIP3    H244922   2.942   2.688   3.604  0.5427 -0.8261  1.4640
 7811TIP3   OH244923   3.159   5.548  16.567 -0.6019  0.1194  0.2966
 7811TIP3    H144924   3.232   5.570  16.624 -2.0332  3.1059  1.1516
 7811TIP3    H244925   3.198   5.538  16.480  1.0858 -0.8546  1.1174
 7812TIP3   OH244926   4.616   0.325  13.849  0.4281 -0.3974  0.8505
 7812TIP3    H144927   4.570   0.285  13.923 -1.7101 -0.6582 -0.5206
 7812TIP3    H244928   4.684   0.380  13.889 -0.7254 -0.4501  3.0055
 7813TIP3   OH244929   0.577   0.127  15.539  0.0523  0.0266 -0.2217
 7813TIP3    H144930   0.666   0.156  15.559  0.6416 -1.1357 -1.0094
 7813TIP3    H244931   0.571   0.133  15.444 -1.0704  1.0350 -0.1036
 7814TIP3   OH244932   4.127   4.482  12.388  0.3797 -0.8882 -0.1207
 7814TIP3    H144933   4.095   4.445  12.306  0.3776  1.3038 -1.1815
 7814TIP3    H244934   4.089   4.570  12.392 -0.1368 -1.1505  2.5779
 7815TIP3   OH244935   3.210   0.056  13.459  0.5368  0.7349 -0.4324
 7815TIP3    H144936   3.244   0.113  13.390 -1.0703 -0.0325 -1.9175
 7815TIP3    H244937   3.145   0.109  13.504  0.7214  0.8386 -0.2869
 7816TIP3   OH244938   6.736   2.657  14.736  0.0133 -0.0087  0.0897
 7816TIP3    H144939   6.811   2.621  14.688 -1.5434 -1.7213 -1.1822
 7816TIP3    H244940   6.721   2.595  14.807 -0.4978  0.0566  0.0398
 7817TIP3   OH244941   5.036   2.248   4.556  0.5442  0.1363  0.2821
 7817TIP3    H144942   5.008   2.313   4.621  0.3562 -0.2892  0.6330
 7817TIP3    H244943   4.996   2.277   4.474  0.2868  0.3485  0.4808
 7818TIP3   OH244944   4.866   1.514   2.651 -0.0927  0.2619  0.2709
 7818TIP3    H144945   4.939   1.480   2.598 -0.1720  0.4715  0.0267
 7818TIP3    H244946   4.788   1.497   2.598 -0.1242  0.9180  0.0948
 7819TIP3   OH244947   4.016   3.125   1.651  0.7621  0.4894  0.9366
 7819TIP3    H144948   4.069   3.180   1.593  0.5000  0.4468  0.6507
 7819TIP3    H244949   3.936   3.176   1.665 -1.0142 -1.1638 -2.0625
 7820TIP3   OH244950   4.813   5.605   0.179  0.5533  0.1636 -0.3518
 7820TIP3    H144951   4.887   5.651   0.139  0.3886 -1.3144 -2.5284
 7820TIP3    H244952   4.853   5.532   0.226  0.5312 -1.2278 -2.3533
 7821TIP3   OH244953   2.447   4.467  15.310  0.0945 -0.1853  0.1072
 7821TIP3    H144954   2.355   4.441  15.303  0.5624 -1.4937 -1.8806
 7821TIP3    H244955   2.461   4.528  15.238  1.0088 -0.7248 -0.1912
 7822TIP3   OH244956   5.206   5.183   4.103 -0.1219 -0.2908 -0.6776
 7822TIP3    H144957   5.223   5.194   4.010 -2.4139  1.4455 -0.9766
 7822TIP3    H244958   5.157   5.101   4.109 -0.9977  0.1888 -1.1658
 7823TIP3   OH244959   6.697   3.089   6.270 -0.4448  0.4448  0.1074
 7823TIP3    H144960   6.626   3.120   6.325 -0.5167  1.3972 -0.5111
 7823TIP3    H244961   6.774   3.138   6.299 -0.1442 -0.1817  0.4006
 7824TIP3   OH244962   4.535   3.671   5.757 -0.1808  0.3610 -0.1424
 7824TIP3    H144963   4.441   3.680   5.773  0.2907  1.4961  2.5944
 7824TIP3    H244964   4.564   3.759   5.733  0.4376  0.4930  0.9845
 7825TIP3   OH244965   6.533   4.345   1.614  0.1296 -0.7956 -0.0253
 7825TIP3    H144966   6.488   4.365   1.532 -2.6940 -1.8002  1.1385
 7825TIP3    H244967   6.592   4.420   1.628 -2.3286  1.4818 -0.9485
 7826TIP3   OH244968   4.840   0.194   0.331 -0.1685 -0.4376  0.0264
 7826TIP3    H144969   4.907   0.138   0.370  0.0256  0.3118  0.7987
 7826TIP3    H244970   4.874   0.283   0.341 -1.5784  0.0125  1.0623
 7827TIP3   OH244971   6.031   2.099   0.348  0.2455  0.2463 -0.8324
 7827TIP3    H144972   6.029   2.028   0.412 -4.6194  0.0786 -0.7578
 7827TIP3    H244973   6.007   2.177   0.399 -0.7541  0.6702 -1.9064
 7828TIP3   OH244974   3.848   1.368  16.452  0.0871  0.2149 -0.0458
 7828TIP3    H144975   3.868   1.281  16.486  1.5587 -0.2417 -1.9219
 7828TIP3    H244976   3.827   1.354  16.360 -0.9090  1.7200 -0.0857
 7829TIP3   OH244977   5.292   0.919  11.442 -0.5389 -0.4379 -0.3988
 7829TIP3    H144978   5.223   0.985  11.441  0.2700  0.5137  1.1323
 7829TIP3    H244979   5.309   0.904  11.535  1.8381 -0.0029 -0.6803
 7830TIP3   OH244980   1.262   6.438  16.049 -0.2293  0.8266 -0.1344
 7830TIP3    H144981   1.330   6.477  15.994  1.2316  0.2222  1.1701
 7830TIP3    H244982   1.309   6.377  16.106 -1.6427  1.5358  1.8884
 7831TIP3   OH244983   6.011   1.474   1.171  0.0003 -0.4212  0.0961
 7831TIP3    H144984   6.097   1.467   1.213  0.6785 -3.5023 -1.4511
 7831TIP3    H244985   5.950   1.436   1.234  0.0904 -0.0647  0.4032
 7832TIP3   OH244986   2.961   3.859  11.852 -0.7339  0.2521 -0.6308
 7832TIP3    H144987   2.928   3.787  11.798 -1.2440  1.0427 -1.3953
 7832TIP3    H244988   2.907   3.934  11.827  1.3850  1.5267 -1.6877
 7833TIP3   OH244989   5.112   2.615  13.900 -0.5396 -0.0746 -0.3342
 7833TIP3    H144990   5.117   2.521  13.885 -0.4322 -0.2495  0.7208
 7833TIP3    H244991   5.019   2.637  13.890 -1.3351 -1.0468  3.3809
 7834TIP3   OH244992   1.409   1.208  15.685 -0.0823 -0.4502 -0.4018
 7834TIP3    H144993   1.379   1.130  15.731  0.3544 -0.6705 -0.4838
 7834TIP3    H244994   1.424   1.273  15.754 -0.0558 -0.5690 -0.2959
 7835TIP3   OH244995   0.121   2.148   0.129  0.2067 -0.6847  0.0801
 7835TIP3    H144996   0.165   2.066   0.108 -0.3412 -0.7849 -0.7525
 7835TIP3    H244997   0.176   2.190   0.195  0.1512 -2.0117  0.9920
 7836TIP3   OH244998   1.511   3.985  15.507  0.3651  0.2883  0.0643
 7836TIP3    H144999   1.568   3.910  15.492  0.0098 -0.0311  0.2870
 7836TIP3    H245000   1.493   3.983  15.601  0.4774  0.7421  0.0984
 7837TIP3   OH245001   3.360   0.032   6.525  0.0536 -0.1801  0.0043
 7837TIP3    H145002   3.445   0.010   6.564  0.0999  0.4764  0.2869
 7837TIP3    H245003   3.342   0.120   6.556 -0.2542  0.0779 -0.8841
 7838TIP3   OH245004   3.920   1.759   4.629  0.0196  0.4972 -0.6852
 7838TIP3    H145005   3.937   1.835   4.684  0.8966  1.4955 -2.2655
 7838TIP3    H245006   3.824   1.754   4.624 -0.0680  0.6161  0.5636
 7839TIP3   OH245007   1.480   3.882  12.783  0.0815 -0.1702  0.5697
 7839TIP3    H145008   1.487   3.864  12.689  0.5171 -0.8193  0.7256
 7839TIP3    H245009   1.524   3.809  12.826 -1.0262 -0.4307  1.3260
 7840TIP3   OH245010   2.829   4.202   0.431 -0.1004  0.5763 -0.0360
 7840TIP3    H145011   2.851   4.288   0.468 -0.2603 -0.3228  2.3139
 7840TIP3    H245012   2.752   4.174   0.481 -0.9166 -0.3585 -1.7446
 7841TIP3   OH245013   1.502   2.605  11.349  0.2775  0.8238  0.5243
 7841TIP3    H145014   1.525   2.698  11.344 -0.2100  0.9535  0.7412
 7841TIP3    H245015   1.526   2.579  11.438 -1.4970  1.2533  1.1618
 7842TIP3   OH245016   2.772   2.620  10.993 -0.0363  0.0341 -0.3674
 7842TIP3    H145017   2.741   2.538  10.954 -1.1796  0.1274  0.3047
 7842TIP3    H245018   2.718   2.632  11.071 -0.4697  1.8570 -0.8964
 7843TIP3   OH245019   0.735   4.843   3.431  0.4978 -0.6205  0.1676
 7843TIP3    H145020   0.741   4.928   3.475 -0.4281 -0.3542 -0.1770
 7843TIP3    H245021   0.776   4.781   3.490 -1.3994 -0.4168  1.8017
 7844TIP3   OH245022   6.125   1.282   1.003 -0.1613 -0.2620  0.0980
 7844TIP3    H145023   6.068   1.333   1.061  0.7337 -0.9063  1.5836
 7844TIP3    H245024   6.204   1.266   1.054  0.5469 -1.1112 -1.2041
 7845TIP3   OH245025   4.233   4.911   3.440  0.0397  0.2961  0.1153
 7845TIP3    H145026   4.307   4.889   3.497 -0.7968 -0.4234  0.9638
 7845TIP3    H245027   4.239   5.005   3.428  1.1178  0.2481  0.1233
 7846TIP3   OH245028   5.164   4.609  13.092  0.6527 -0.0435 -0.1187
 7846TIP3    H145029   5.147   4.588  13.001 -0.6399  0.5183 -0.0266
 7846TIP3    H245030   5.129   4.535  13.141 -1.0390  0.8245  0.0381
 7847TIP3   OH245031   3.619   0.452  12.585 -0.1228  0.2921 -0.6572
 7847TIP3    H145032   3.622   0.407  12.669 -0.3398 -0.2777 -0.9494
 7847TIP3    H245033   3.525   0.460  12.565 -0.0682 -0.0854 -1.1040
 7848TIP3   OH245034   5.187   0.957  13.375 -0.4754  0.5469 -0.0517
 7848TIP3    H145035   5.180   0.863  13.355  0.3456  0.1951  1.1649
 7848TIP3    H245036   5.269   0.964  13.424 -0.1864  2.0161 -0.7194
 7849TIP3   OH245037   3.084   5.520  13.346  0.2290 -0.3344  0.0356
 7849TIP3    H145038   3.080   5.430  13.377 -0.5041 -0.4198 -0.2787
 7849TIP3    H245039   3.170   5.528  13.304  0.3614 -0.8336  0.2113
 7850TIP3   OH245040   4.816   4.036  12.124 -0.4173 -0.0936 -0.5375
 7850TIP3    H145041   4.825   3.941  12.129 -2.0901 -0.4178 -2.2459
 7850TIP3    H245042   4.877   4.062  12.055  0.5549  0.1960  0.4111
 7851TIP3   OH245043   1.750   1.004   2.847  0.4041 -0.1529 -0.3718
 7851TIP3    H145044   1.797   0.980   2.927  0.3913  1.8880  0.3120
 7851TIP3    H245045   1.668   1.042   2.878  0.9030  1.7753 -1.2394
 7852TIP3   OH245046   1.293   6.271  11.269 -0.1114 -0.1023 -0.4683
 7852TIP3    H145047   1.345   6.330  11.214  0.8778 -0.6550 -0.1401
 7852TIP3    H245048   1.357   6.223  11.321 -1.0264  1.5202  2.3919
 7853TIP3   OH245049   6.449   0.222  13.001  0.5100 -0.4290  0.3841
 7853TIP3    H145050   6.498   0.288  12.952 -1.3081  2.2196  1.8785
 7853TIP3    H245051   6.370   0.208  12.950  0.4602 -0.7508  0.5503
 7854TIP3   OH245052   0.338   5.622  16.467 -0.2884  0.4344 -0.3949
 7854TIP3    H145053   0.291   5.686  16.413  0.0612  0.8332 -0.2244
 7854TIP3    H245054   0.277   5.549  16.474 -0.7123  0.7665 -0.5511
 7855TIP3   OH245055   0.251   4.929   1.715  0.2822 -0.3948 -0.0009
 7855TIP3    H145056   0.281   4.967   1.633 -0.3812 -1.8501 -0.9646
 7855TIP3    H245057   0.331   4.908   1.762  0.7064  3.1272  1.1223
 7856TIP3   OH245058   6.319   4.516   5.772  0.1229 -0.1422 -0.1827
 7856TIP3    H145059   6.383   4.469   5.826 -0.9943 -1.3455  0.1403
 7856TIP3    H245060   6.333   4.483   5.683  1.1901  0.9926 -0.4613
 7857TIP3   OH245061   5.704   5.265   2.050 -0.4264  0.2635 -0.0962
 7857TIP3    H145062   5.785   5.246   2.097 -0.6122 -0.4033 -0.0447
 7857TIP3    H245063   5.669   5.179   2.026 -0.2577  0.5715 -1.5945
 7858TIP3   OH245064   6.074   3.442  15.283 -0.5354 -0.2896 -0.4239
 7858TIP3    H145065   5.983   3.472  15.282 -0.8524 -1.1858 -2.0208
 7858TIP3    H245066   6.068   3.348  15.268  0.6473 -0.4394 -0.0660
 7859TIP3   OH245067   3.440   2.921   2.930 -0.5310 -0.5148  0.4060
 7859TIP3    H145068   3.514   2.896   2.985  0.3227  0.3020 -0.3344
 7859TIP3    H245069   3.363   2.909   2.986  0.1007 -1.8454  1.0331
 7860TIP3   OH245070   0.791   6.654  10.959  0.1705  0.0484  0.5274
 7860TIP3    H145071   0.813   6.586  10.896  1.2090  1.4500 -0.6739
 7860TIP3    H245072   0.792   6.609  11.044 -0.6861 -1.7436 -0.3519
 7861TIP3   OH245073   5.233   6.363   5.360 -0.2858 -0.1474 -0.8515
 7861TIP3    H145074   5.201   6.450   5.385 -0.9162 -0.1588 -1.5757
 7861TIP3    H245075   5.306   6.381   5.301 -0.7853 -0.1025 -1.4598
 7862TIP3   OH245076   1.870   4.794  10.725 -0.0738 -0.2508 -0.6050
 7862TIP3    H145077   1.949   4.741  10.714 -0.4306 -0.6688 -1.1976
 7862TIP3    H245078   1.840   4.811  10.635 -2.0279 -2.1534 -0.3861
 7863TIP3   OH245079   0.079   3.765  14.232  0.4373 -0.5273 -0.3421
 7863TIP3    H145080   0.077   3.860  14.246  1.6480 -0.4307 -0.7643
 7863TIP3    H245081   0.105   3.729  14.316 -1.1763 -0.6027  0.1738
 7864TIP3   OH245082   2.688   6.040   3.899  0.3811 -0.3478  0.3714
 7864TIP3    H145083   2.744   6.105   3.942  1.5050 -1.6039  0.8695
 7864TIP3    H245084   2.749   5.977   3.860 -0.6693 -0.8754 -0.4883
 7865TIP3   OH245085   2.122   0.486  17.212  0.4704  0.3227 -0.5482
 7865TIP3    H145086   2.188   0.431  17.169  1.0025  1.1384 -0.7971
 7865TIP3    H245087   2.045   0.429  17.219  1.3747 -0.8650  0.3137
 7866TIP3   OH245088   4.623   6.437  15.013 -0.1350  0.1856 -0.1764
 7866TIP3    H145089   4.622   6.468  14.923 -0.9344  0.5740 -0.0383
 7866TIP3    H245090   4.697   6.377  15.017  0.4151  0.8111 -0.8713
 7867TIP3   OH245091   3.927   1.168  16.610  0.1779  0.4764  0.1306
 7867TIP3    H145092   3.878   1.137  16.686 -1.3024  3.4379  0.5141
 7867TIP3    H245093   4.010   1.199  16.647  1.2177 -1.7355 -0.1249
 7868TIP3   OH245094   4.135   0.534  11.170 -0.3063  0.1265  0.5412
 7868TIP3    H145095   4.195   0.466  11.141 -0.6671 -0.9609  2.2225
 7868TIP3    H245096   4.095   0.567  11.090 -0.0557 -1.5864 -0.3270
 7869TIP3   OH245097   0.854   6.098   5.881 -0.5516 -0.0624  0.0020
 7869TIP3    H145098   0.890   6.164   5.940 -0.5620 -0.2633  0.2358
 7869TIP3    H245099   0.767   6.078   5.916 -0.8249  0.2966 -0.4635
 7870TIP3   OH245100   3.394   3.490   5.991  0.6316 -0.1662  0.5864
 7870TIP3    H145101   3.377   3.414   6.046 -0.6706  0.9898  1.8669
 7870TIP3    H245102   3.388   3.565   6.051 -1.1347  1.1794 -1.1407
 7871TIP3   OH245103   6.127   3.828  16.756  0.2131  0.1735 -0.6099
 7871TIP3    H145104   6.167   3.786  16.680  0.5463  0.7948 -0.7822
 7871TIP3    H245105   6.060   3.886  16.720  0.3352  0.4291 -0.4264
 7872TIP3   OH245106   3.630   3.180  14.513 -0.5966 -0.0930 -0.5473
 7872TIP3    H145107   3.589   3.258  14.477 -1.2292  0.3314  0.9994
 7872TIP3    H245108   3.681   3.212  14.588 -1.2752 -1.1905  0.4224
 7873TIP3   OH245109   5.723   1.535  15.623 -0.0533  0.1560 -0.2468
 7873TIP3    H145110   5.717   1.447  15.587 -1.1681 -0.7070  1.8699
 7873TIP3    H245111   5.637   1.574  15.605 -0.7240 -0.3837  1.5912
 7874TIP3   OH245112   0.589   5.264   0.861  0.0035 -0.0170 -0.6774
 7874TIP3    H145113   0.632   5.350   0.860  0.5290 -0.1717  1.7776
 7874TIP3    H245114   0.661   5.201   0.867 -0.4143 -0.5654 -1.4108
 7875TIP3   OH245115   6.322   5.687  14.161 -0.1601  0.7660  0.0969
 7875TIP3    H145116   6.346   5.761  14.217 -1.4161  1.9097 -0.8128
 7875TIP3    H245117   6.373   5.699  14.081 -0.0400  0.4010  0.1176
 7876TIP3   OH245118   2.969   3.382   0.714 -0.1817 -0.2677  0.4009
 7876TIP3    H145119   2.880   3.397   0.682  0.2207  1.1293 -0.0791
 7876TIP3    H245120   2.976   3.438   0.791  0.7886  0.7865 -0.4455
 7877TIP3   OH245121   1.301   6.541   1.952  0.1391 -0.2967 -0.3516
 7877TIP3    H145122   1.318   6.450   1.930 -1.1824 -0.9055  0.9642
 7877TIP3    H245123   1.314   6.546   2.047 -0.2215  0.7721 -0.3406
 7878TIP3   OH245124   3.761   4.660  16.546 -0.0660 -0.5789  0.3027
 7878TIP3    H145125   3.797   4.622  16.466  1.3772 -1.1662  1.1965
 7878TIP3    H245126   3.716   4.739  16.516  2.1067  0.3052 -0.8951
 7879TIP3   OH245127   0.209   3.086  14.910  0.0634 -0.5797  0.3508
 7879TIP3    H145128   0.284   3.078  14.969 -0.2560 -0.4242  0.7885
 7879TIP3    H245129   0.162   3.004  14.921  1.1510 -1.4688 -1.3284
 7880TIP3   OH245130   0.142   5.642  16.018  0.0877 -0.0029 -0.2125
 7880TIP3    H145131   0.071   5.671  15.962  0.3778 -0.0878 -0.6304
 7880TIP3    H245132   0.149   5.710  16.086  1.4263  1.4973 -1.7487
 7881TIP3   OH245133   5.152   3.341  13.930 -0.5035  0.5080 -0.1969
 7881TIP3    H145134   5.242   3.310  13.945 -0.9416 -0.4670  0.5767
 7881TIP3    H245135   5.161   3.409  13.864  0.9487  1.2459  0.7058
 7882TIP3   OH245136   1.811   5.657   5.836  0.0133 -0.4548 -0.4014
 7882TIP3    H145137   1.739   5.610   5.794 -1.4586  0.6571  0.7430
 7882TIP3    H245138   1.768   5.728   5.884  1.9277  0.4827  0.0166
 7883TIP3   OH245139   5.823   6.040   3.508 -0.3163  0.1359  0.3334
 7883TIP3    H145140   5.861   6.091   3.579  0.6062 -0.8465  0.5784
 7883TIP3    H245141   5.898   6.017   3.452 -0.9755  0.5888 -0.7703
 7884TIP3   OH245142   5.829   1.150   6.353  0.5189  0.4976 -0.3432
 7884TIP3    H145143   5.762   1.099   6.307  1.4118 -0.7630 -0.2931
 7884TIP3    H245144   5.878   1.086   6.404  1.6806  1.3957 -0.2747
 7885TIP3   OH245145   2.210   1.222  12.368 -0.1206  0.2462 -0.8510
 7885TIP3    H145146   2.205   1.275  12.288  0.1489  1.8390  0.1515
 7885TIP3    H245147   2.292   1.249  12.410 -0.8961  0.4298  0.6203
 7886TIP3   OH245148   1.101   2.198   2.806  0.8005 -0.1654 -0.3099
 7886TIP3    H145149   1.066   2.125   2.755 -1.2032  0.6814 -0.2327
 7886TIP3    H245150   1.053   2.274   2.775  2.0185  0.9330  0.4255
 7887TIP3   OH245151   4.594   5.562  11.185 -0.1187 -0.4289 -0.4864
 7887TIP3    H145152   4.527   5.604  11.132  0.4617 -0.3392 -1.1740
 7887TIP3    H245153   4.585   5.600  11.272  0.3560  1.0834 -1.0780
 7888TIP3   OH245154   3.140   1.318   2.125 -0.2163  0.4879  0.5616
 7888TIP3    H145155   3.113   1.381   2.191 -0.6416  0.1990  0.6686
 7888TIP3    H245156   3.200   1.259   2.170 -1.3400 -0.3685  1.0051
 7889TIP3   OH245157   2.804   1.246  12.414 -0.4466 -0.5611  0.1492
 7889TIP3    H145158   2.766   1.311  12.355  1.4085  0.4583  0.0026
 7889TIP3    H245159   2.858   1.296  12.475  1.1845 -1.9163 -0.0728
 7890TIP3   OH245160   5.495   4.581  13.801  0.3426 -0.4803  0.1915
 7890TIP3    H145161   5.536   4.620  13.723  0.2889 -0.6601  0.0732
 7890TIP3    H245162   5.517   4.488  13.796  2.0344 -0.2052  1.4323
 7891TIP3   OH245163   0.827   6.829  15.699 -0.4843 -0.4285  0.1965
 7891TIP3    H145164   0.857   6.904  15.749  0.8387 -0.7759 -0.0397
 7891TIP3    H245165   0.843   6.852  15.607  0.0917 -1.0379  0.1284
 7892TIP3   OH245166   6.613   1.653   2.390 -0.1158  0.4347 -0.3432
 7892TIP3    H145167   6.660   1.680   2.311 -0.8636  0.5662 -0.7575
 7892TIP3    H245168   6.606   1.732   2.443 -1.2352  0.8006 -1.0013
 7893TIP3   OH245169   1.855   3.529   2.271 -0.5619  0.0983  0.0200
 7893TIP3    H145170   1.891   3.611   2.303  0.8063 -0.6274  0.4254
 7893TIP3    H245171   1.794   3.555   2.202 -1.0529  1.5015  0.9299
 7894TIP3   OH245172   3.131   0.462  15.022  0.3006 -0.2500 -0.2705
 7894TIP3    H145173   3.121   0.371  14.993 -0.1729  0.2024 -1.6060
 7894TIP3    H245174   3.143   0.512  14.941  0.1667  0.9261  0.4120
 7895TIP3   OH245175   1.293   6.660   4.953  0.3293 -0.3169 -0.1067
 7895TIP3    H145176   1.269   6.595   5.020 -0.5342 -1.7594 -1.7357
 7895TIP3    H245177   1.328   6.608   4.881  1.0052  1.1758 -0.8915
 7896TIP3   OH245178   4.301   4.155  11.356 -0.0802 -0.5568 -0.1586
 7896TIP3    H145179   4.236   4.087  11.374 -0.5539 -0.1823 -0.4227
 7896TIP3    H245180   4.258   4.213  11.294  0.6038 -0.4398 -0.5336
 7897TIP3   OH245181   0.813   1.512  16.195 -0.2906  0.3170  0.5262
 7897TIP3    H145182   0.745   1.467  16.145 -2.5543  1.4545  2.4100
 7897TIP3    H245183   0.867   1.441  16.231  0.0246 -0.5816 -1.5722
 7898TIP3   OH245184   4.244   6.430  16.846  0.2784  0.1882  0.3256
 7898TIP3    H145185   4.193   6.399  16.920 -0.8805  1.2003 -0.0169
 7898TIP3    H245186   4.267   6.351  16.797  0.4914 -0.4262  1.3882
 7899TIP3   OH245187   4.733   3.674  16.351  0.3810 -0.0494  0.1809
 7899TIP3    H145188   4.701   3.708  16.434 -3.1360  1.7046 -1.6706
 7899TIP3    H245189   4.695   3.586  16.344 -1.8374  0.8965 -0.6915
 7900TIP3   OH245190   4.536   3.179  16.875 -0.0903 -0.0773  0.3427
 7900TIP3    H145191   4.552   3.085  16.887 -0.2591 -0.3719 -1.4977
 7900TIP3    H245192   4.573   3.199  16.790  0.9062  1.7975  1.1557
 7901TIP3   OH245193   4.467   3.644   0.242  0.4747  0.1929  0.3128
 7901TIP3    H145194   4.397   3.705   0.262 -1.1723 -2.0273  1.8004
 7901TIP3    H245195   4.444   3.606   0.158  0.5775  0.3884  0.1969
 7902TIP3   OH245196   6.422   5.412  14.787  0.3686  0.3164  0.4184
 7902TIP3    H145197   6.502   5.444  14.743  1.3608 -0.8057  1.3457
 7902TIP3    H245198   6.354   5.474  14.760  1.6909  1.7252  0.1459
 7903TIP3   OH245199   3.206   1.230  16.780 -0.4191 -0.0519 -0.2364
 7903TIP3    H145200   3.267   1.226  16.854  1.6358 -1.0514 -1.8767
 7903TIP3    H245201   3.121   1.212  16.818  0.2660  1.3291  2.1699
 7904TIP3   OH245202   4.183   6.089   0.826  0.2575  0.4619  0.3803
 7904TIP3    H145203   4.257   6.076   0.886 -0.5340  0.1324  1.3322
 7904TIP3    H245204   4.107   6.059   0.877 -0.3971 -0.1784 -0.9382
 7905TIP3   OH245205   2.187   2.045  13.150 -0.0982  0.4537  0.3403
 7905TIP3    H145206   2.193   2.038  13.246 -0.1615  1.4160  0.4264
 7905TIP3    H245207   2.107   2.096  13.135 -0.4562 -0.2713 -0.2579
 7906TIP3   OH245208   2.057   4.198   6.432  0.4656  0.4326  0.2714
 7906TIP3    H145209   2.015   4.158   6.355 -0.1984  0.9089  0.3815
 7906TIP3    H245210   2.120   4.132   6.462 -0.7721 -0.6367  0.5878
 7907TIP3   OH245211   0.056   2.776  11.175 -0.1183 -0.4966  0.6564
 7907TIP3    H145212   0.132   2.801  11.228 -0.2064 -0.2048  0.6479
 7907TIP3    H245213   0.091   2.715  11.110  0.2797  0.3552  0.0611
 7908TIP3   OH245214   3.796   0.625   5.317  0.1105  0.8124  0.0516
 7908TIP3    H145215   3.776   0.705   5.365  0.0334  0.5198  0.5175
 7908TIP3    H245216   3.890   0.613   5.329 -0.0333  0.3393  0.7680
 7909TIP3   OH245217   4.199   0.592   5.040 -0.2014  0.3033  0.2446
 7909TIP3    H145218   4.267   0.524   5.039  0.5014  0.9110  2.1017
 7909TIP3    H245219   4.156   0.584   4.955  0.1110 -2.1953  0.2575
 7910TIP3   OH245220   3.662   2.602  15.585 -0.9505  0.0069  0.0095
 7910TIP3    H145221   3.638   2.576  15.496 -0.0614  0.9708 -0.5410
 7910TIP3    H245222   3.741   2.552  15.605 -0.5716  0.5298 -0.1484
 7911TIP3   OH245223   1.066   6.134  12.536  0.7094  0.0599  0.3090
 7911TIP3    H145224   1.140   6.141  12.597  0.5387  1.7087  0.3708
 7911TIP3    H245225   1.089   6.192  12.464  0.4594 -1.1231 -0.7498
 7912TIP3   OH245226   6.500   5.209   5.055 -0.0179  0.2143  0.1974
 7912TIP3    H145227   6.504   5.210   5.151 -0.2517 -1.1364  0.2474
 7912TIP3    H245228   6.538   5.124   5.031  0.4478  0.7279 -0.9370
 7913TIP3   OH245229   5.753   2.689  12.906 -0.3910 -0.7457 -0.5830
 7913TIP3    H145230   5.801   2.643  12.974 -2.7689 -0.0149  1.7492
 7913TIP3    H245231   5.800   2.669  12.825  1.8802 -2.6052  1.0827
 7914TIP3   OH245232   6.191   4.275   4.133 -0.1281  0.3626  0.0403
 7914TIP3    H145233   6.236   4.210   4.187  0.4698  0.4198 -0.3746
 7914TIP3    H245234   6.262   4.321   4.088 -0.5657  1.0721  0.0665
 7915TIP3   OH245235   4.250   5.737   5.375 -0.0238 -0.1769 -0.3773
 7915TIP3    H145236   4.234   5.644   5.390  3.4497 -0.4628  3.0032
 7915TIP3    H245237   4.190   5.782   5.435 -0.2006 -0.3317 -0.4369
 7916TIP3   OH245238   3.675   4.730   2.655 -0.9402  0.0859 -0.5508
 7916TIP3    H145239   3.621   4.681   2.593  0.9352 -1.3785 -1.0970
 7916TIP3    H245240   3.765   4.716   2.626 -0.1145  0.8810  1.4259
 7917TIP3   OH245241   6.288   6.190  12.540 -0.4084  0.0436  0.0510
 7917TIP3    H145242   6.236   6.217  12.464 -1.6296 -0.3464  0.7346
 7917TIP3    H245243   6.285   6.265  12.599  1.2333  0.6736 -0.5903
 7918TIP3   OH245244   4.030   5.504   1.138 -0.3748  0.0095 -0.0210
 7918TIP3    H145245   4.028   5.460   1.052  0.9544 -0.2879  0.0730
 7918TIP3    H245246   3.963   5.460   1.189  0.3307 -1.3458 -0.2171
 7919TIP3   OH245247   4.794   3.655   1.217 -0.3562  0.0431 -0.1105
 7919TIP3    H145248   4.780   3.607   1.135  0.5401  1.1553 -0.9556
 7919TIP3    H245249   4.768   3.593   1.285  1.3204 -1.9043 -1.1117
 7920TIP3   OH245250   1.321   5.630  12.229  0.8052 -0.4669  0.3270
 7920TIP3    H145251   1.230   5.657  12.244  0.3888 -2.3859  1.5126
 7920TIP3    H245252   1.315   5.559  12.165  1.7162  0.7869 -1.2383
 7921TIP3   OH245253   5.136   2.663   2.149  0.0346  0.0331  0.0633
 7921TIP3    H145254   5.170   2.592   2.203  0.5533 -0.9029 -1.4300
 7921TIP3    H245255   5.041   2.654   2.153 -0.0117  0.7990  1.8266
 7922TIP3   OH245256   2.019   5.066  11.594  0.2465 -0.3069  0.2457
 7922TIP3    H145257   2.027   5.115  11.675  2.3941 -0.5680  0.2382
 7922TIP3    H245258   2.041   5.129  11.525 -0.2843 -0.4248 -0.0370
 7923TIP3   OH245259   6.195   1.952   4.814  0.1901 -0.4429  0.0188
 7923TIP3    H145260   6.136   1.908   4.752 -1.6817  0.6822  0.8901
 7923TIP3    H245261   6.264   1.990   4.759 -0.1397 -1.4191 -1.1006
 7924TIP3   OH245262   3.548   2.100   2.328  0.1173 -0.0396 -0.1233
 7924TIP3    H145263   3.621   2.082   2.269  1.7896 -0.5323  1.9874
 7924TIP3    H245264   3.565   2.189   2.361 -0.5614  0.0735 -0.0573
 7925TIP3   OH245265   4.798   2.686  15.333 -0.1001 -0.5130  0.1845
 7925TIP3    H145266   4.844   2.756  15.378  3.2283 -2.2936 -0.1638
 7925TIP3    H245267   4.786   2.619  15.400 -1.8113 -0.3273  0.1144
 7926TIP3   OH245268   3.293   0.343  12.572 -0.6376  0.4618 -0.1741
 7926TIP3    H145269   3.265   0.418  12.624 -0.6842  0.3931 -0.0995
 7926TIP3    H245270   3.321   0.278  12.636 -4.0183 -1.0090  0.0199
 7927TIP3   OH245271   3.028   5.281   2.576 -0.6388 -0.0171  0.0500
 7927TIP3    H145272   3.091   5.211   2.593 -0.5993 -0.0525 -0.2378
 7927TIP3    H245273   3.079   5.349   2.531 -0.0573  1.2995  2.5019
 7928TIP3   OH245274   3.453   2.837  13.000  0.0777 -0.2495 -0.1302
 7928TIP3    H145275   3.426   2.745  13.002 -0.1204 -0.2098 -0.8267
 7928TIP3    H245276   3.405   2.875  12.926 -0.8510  0.7305  0.9325
 7929TIP3   OH245277   6.072   4.903   1.705 -0.2216  0.0521  0.6483
 7929TIP3    H145278   6.119   4.943   1.632 -1.1400  0.4034  0.2429
 7929TIP3    H245279   6.092   4.960   1.780 -1.0951  0.9915  0.1848
 7930TIP3   OH245280   5.271   2.586  14.932 -0.0393  0.0454 -0.2521
 7930TIP3    H145281   5.221   2.507  14.951  0.1241  0.1115  0.4866
 7930TIP3    H245282   5.225   2.656  14.978  0.1033  0.2993 -0.4866
 7931TIP3   OH245283   5.481   6.144   3.790 -0.0184 -0.3294 -0.5578
 7931TIP3    H145284   5.540   6.069   3.777 -0.1618 -0.6376  0.4508
 7931TIP3    H245285   5.419   6.114   3.857  0.2804  0.8794  0.2951
 7932TIP3   OH245286   5.394   2.622   1.309  0.1816  0.4283  0.0938
 7932TIP3    H145287   5.307   2.610   1.270 -0.1032  2.5827 -0.0352
 7932TIP3    H245288   5.425   2.533   1.326 -1.8468 -0.3997 -0.2927
 7933TIP3   OH245289   1.442   0.664  15.070 -0.2185 -0.8611 -0.1024
 7933TIP3    H145290   1.430   0.595  15.004  1.7270  0.6768 -2.2589
 7933TIP3    H245291   1.503   0.626  15.133 -0.0171 -1.5104 -0.6693
 7934TIP3   OH245292   2.304   2.556  16.385 -0.9335 -0.0579  0.1290
 7934TIP3    H145293   2.356   2.522  16.313  0.1839 -0.8739  1.2629
 7934TIP3    H245294   2.225   2.591  16.344  0.2768  0.7917 -1.6018
 7935TIP3   OH245295   3.332   6.315  13.434  0.0371  0.4700 -0.1731
 7935TIP3    H145296   3.264   6.373  13.402  1.5508  1.4149 -1.8582
 7935TIP3    H245297   3.392   6.372  13.482  0.1810 -0.1678  0.4287
 7936TIP3   OH245298   5.459   4.618   1.737  0.5729 -0.2339  0.5386
 7936TIP3    H145299   5.404   4.625   1.816 -0.2164 -0.3267  0.0042
 7936TIP3    H245300   5.517   4.544   1.755 -1.5732 -2.1713 -0.1147
 7937TIP3   OH245301   0.953   3.641   1.853  0.0725  0.3462  0.2237
 7937TIP3    H145302   1.037   3.648   1.897  1.0666  0.0100 -1.5512
 7937TIP3    H245303   0.906   3.721   1.879  0.9142  0.5252  1.2535
 7938TIP3   OH245304   1.900   4.784   0.165  0.2278 -0.6027  0.1103
 7938TIP3    H145305   1.971   4.723   0.181  1.0004  0.5346  1.2426
 7938TIP3    H245306   1.821   4.730   0.169  0.8491 -1.4616  1.5123
 7939TIP3   OH245307   1.877   6.150  15.998  0.0593  0.2379 -0.1989
 7939TIP3    H145308   1.850   6.062  15.971  1.4847 -0.6017  0.9581
 7939TIP3    H245309   1.969   6.139  16.024  0.4967  2.2401 -0.7520
 7940TIP3   OH245310   4.590   5.083  12.583 -0.3111 -0.1895 -0.4245
 7940TIP3    H145311   4.537   5.152  12.543  0.1660 -0.4505 -1.5367
 7940TIP3    H245312   4.621   5.030  12.509  2.1071  0.3673  0.0903
 7941TIP3   OH245313   6.705   4.907   5.279 -0.6551  0.0545  0.3495
 7941TIP3    H145314   6.657   4.912   5.196 -0.2588 -0.6643  0.0700
 7941TIP3    H245315   6.714   4.999   5.306 -0.9779  0.2862 -0.2872
 7942TIP3   OH245316   6.109   6.565  12.247  0.5494 -0.6709 -0.1038
 7942TIP3    H145317   6.191   6.612  12.260  0.5599 -0.8986  0.6697
 7942TIP3    H245318   6.074   6.602  12.165  0.2800  1.1106  0.7499
 7943TIP3   OH245319   1.864   6.510   4.727  0.3916  0.1180 -0.8022
 7943TIP3    H145320   1.827   6.580   4.673  0.3574  1.0658  0.4011
 7943TIP3    H245321   1.943   6.482   4.680 -0.8692 -0.7017 -2.4913
 7944TIP3   OH245322   0.005   5.668  11.434 -0.0838  0.2708  0.9664
 7944TIP3    H145323  -0.041   5.709  11.361  0.4435  1.0324  1.0588
 7944TIP3    H245324   0.062   5.602  11.393 -0.3283  0.1895  0.7548
 7945TIP3   OH245325   4.239   2.854  11.909 -0.3290 -0.4542 -0.2632
 7945TIP3    H145326   4.243   2.852  12.005  0.0035 -0.6336 -0.2776
 7945TIP3    H245327   4.193   2.935  11.888  0.2518 -0.0475  0.0321
 7946TIP3   OH245328   5.913   5.998   3.098 -0.3717 -0.4349 -0.6269
 7946TIP3    H145329   5.886   6.089   3.103 -0.3202 -0.4994  1.7188
 7946TIP3    H245330   5.832   5.948   3.106 -0.4431 -0.6337 -2.2713
 7947TIP3   OH245331   4.004   0.255   0.610  0.0499  0.2411  0.2285
 7947TIP3    H145332   4.030   0.300   0.690  0.4820  0.7185 -0.1740
 7947TIP3    H245333   3.971   0.170   0.639  2.6790 -0.6823  0.7326
 7948TIP3   OH245334   0.244   4.526  13.121  0.0646  0.4050 -1.1629
 7948TIP3    H145335   0.241   4.522  13.025 -2.7710  1.1058 -1.1986
 7948TIP3    H245336   0.164   4.483  13.150  0.1753  1.3990  0.8253
 7949TIP3   OH245337   3.110   2.242   0.472 -0.3813 -0.1343 -0.1231
 7949TIP3    H145338   3.145   2.305   0.410 -0.5475 -2.0562 -2.3287
 7949TIP3    H245339   3.017   2.236   0.451 -0.7427  0.1634  1.2777
 7950TIP3   OH245340   6.372   0.275  10.798 -0.3181 -0.9552  0.2504
 7950TIP3    H145341   6.459   0.284  10.760 -0.2131 -2.0307  0.2076
 7950TIP3    H245342   6.313   0.314  10.733  0.1361 -0.0328  0.3731
 7951TIP3   OH245343   4.919   4.469  16.343  0.2130  0.1331  0.3104
 7951TIP3    H145344   4.864   4.539  16.308  1.3647  1.3156  0.7438
 7951TIP3    H245345   4.923   4.486  16.437 -0.5461 -1.3135  0.6313
 7952TIP3   OH245346   0.542   2.056  10.563 -0.4346  0.3473  0.1841
 7952TIP3    H145347   0.613   2.120  10.558  1.0347 -1.1490  0.7637
 7952TIP3    H245348   0.587   1.972  10.573 -2.2868 -0.8390 -1.0407
 7953TIP3   OH245349   0.905   3.117  14.487 -0.1016  0.4637  0.6430
 7953TIP3    H145350   0.846   3.191  14.487  0.3741  0.8500  0.6333
 7953TIP3    H245351   0.921   3.099  14.394  0.5405  0.9709  0.6482
 7954TIP3   OH245352   4.848   1.087   4.819  0.2026 -0.2963 -0.5831
 7954TIP3    H145353   4.862   1.157   4.756 -1.4994 -0.9502 -1.7591
 7954TIP3    H245354   4.786   1.123   4.883  0.9310 -0.0644  0.0083
 7955TIP3   OH245355   4.692   0.072   0.579  0.0969  0.0755 -0.5243
 7955TIP3    H145356   4.733   0.156   0.598  0.9093  0.0657 -2.0488
 7955TIP3    H245357   4.599   0.092   0.566  0.2827  0.7559 -0.8749
 7956TIP3   OH245358   5.755   1.895   4.799  0.2550 -0.2862 -0.1608
 7956TIP3    H145359   5.846   1.876   4.777  0.2916  0.3282 -0.5547
 7956TIP3    H245360   5.750   1.884   4.894  0.7979 -0.0810 -0.1044
 7957TIP3   OH245361   2.600   3.105   3.797 -0.4547 -0.0769  0.1146
 7957TIP3    H145362   2.657   3.116   3.873 -0.5380  0.4367  0.1079
 7957TIP3    H245363   2.596   3.010   3.783 -1.6871 -0.2974  1.6977
 7958TIP3   OH245364   3.710   3.330   0.940  0.7102 -0.0486 -0.1775
 7958TIP3    H145365   3.739   3.239   0.928  0.7177  0.1902 -2.3358
 7958TIP3    H245366   3.652   3.326   1.016  3.0286 -1.2849  1.6866
 7959TIP3   OH245367   2.548   0.990   4.667 -0.1367 -0.3217 -0.5363
 7959TIP3    H145368   2.501   1.008   4.748 -0.8310  1.6727 -1.3074
 7959TIP3    H245369   2.576   0.899   4.675  2.8036  0.6763  3.4028
 7960TIP3   OH245370   2.184   0.736  15.102  0.0745  0.6956  0.2921
 7960TIP3    H145371   2.261   0.785  15.129  1.1032  0.2676 -1.6227
 7960TIP3    H245372   2.131   0.798  15.052  0.7789  0.2270 -1.0936
 7961TIP3   OH245373   1.281   6.840  16.568  0.0416 -0.2557  0.1301
 7961TIP3    H145374   1.276   6.745  16.572 -0.2996 -0.3413 -1.6429
 7961TIP3    H245375   1.310   6.866  16.656 -2.1608 -1.8151  1.4408
 7962TIP3   OH245376   0.959   0.370   1.944 -0.8068 -0.2145  0.0686
 7962TIP3    H145377   1.033   0.369   2.004  0.2276 -0.6011 -1.1498
 7962TIP3    H245378   0.882   0.358   1.999  0.1242 -0.8875  1.2569
 7963TIP3   OH245379   6.747   0.631  15.247 -0.3107 -0.0659 -0.3328
 7963TIP3    H145380   6.685   0.560  15.264 -2.7582  2.0573  0.4393
 7963TIP3    H245381   6.731   0.693  15.318  2.5138  0.7948 -0.3482
 7964TIP3   OH245382   4.297   6.399  16.050  0.2584 -0.2579 -0.0948
 7964TIP3    H145383   4.213   6.433  16.019  0.5875 -0.1222 -0.8719
 7964TIP3    H245384   4.302   6.311  16.013  0.6444 -0.1074 -0.4033
 7965TIP3   OH245385   3.462   6.556  15.625  0.0296 -0.4810  1.0131
 7965TIP3    H145386   3.554   6.560  15.597 -0.0409 -0.3090  0.8053
 7965TIP3    H245387   3.466   6.555  15.721  0.2997 -1.5667  1.0080
 7966TIP3   OH245388   1.519   0.828  17.038 -0.0961  0.2178 -0.4943
 7966TIP3    H145389   1.515   0.918  17.070  0.3365  0.0053  0.1621
 7966TIP3    H245390   1.554   0.836  16.949  1.0135  0.6107 -0.0414
 7967TIP3   OH245391   3.706   1.852   2.315  0.4416 -0.4572 -0.2177
 7967TIP3    H145392   3.763   1.928   2.324  0.3424 -0.1429 -2.0206
 7967TIP3    H245393   3.621   1.881   2.350  1.5549 -1.3445  3.7829
 7968TIP3   OH245394   0.056   2.954  12.688 -0.3495 -0.0810 -0.3308
 7968TIP3    H145395   0.043   2.922  12.599 -1.8363 -2.1232  0.5651
 7968TIP3    H245396   0.151   2.954  12.700 -0.1854 -0.9368 -1.5037
 7969TIP3   OH245397   1.637   0.673   1.451 -0.2980 -0.6056  0.3392
 7969TIP3    H145398   1.577   0.743   1.477  0.0120  0.4563 -1.5946
 7969TIP3    H245399   1.724   0.709   1.467 -0.0990  0.0420 -1.8604
 7970TIP3   OH245400   6.588   4.643   5.436  0.1408 -0.5820  0.1131
 7970TIP3    H145401   6.646   4.567   5.439  0.0590 -0.7402 -1.3805
 7970TIP3    H245402   6.565   4.659   5.527  0.4961 -2.0842  0.4996
 7971TIP3   OH245403   6.546   5.904   1.616 -0.2576 -0.0091  0.5388
 7971TIP3    H145404   6.527   5.816   1.648 -2.5093 -0.0402 -0.6884
 7971TIP3    H245405   6.549   5.895   1.521 -0.0354  1.1705  0.4218
 7972TIP3   OH245406   5.100   0.067   0.854 -0.4225 -0.8168 -0.2738
 7972TIP3    H145407   5.097  -0.007   0.913 -2.5669  0.4800  1.3917
 7972TIP3    H245408   5.150   0.134   0.900  0.2790 -0.7018 -1.1556
 7973TIP3   OH245409   1.612   4.408  11.789  0.3787  0.1215  0.2403
 7973TIP3    H145410   1.631   4.347  11.719 -0.4309 -0.1728  0.2594
 7973TIP3    H245411   1.656   4.371  11.866  0.8996  0.2116 -0.0158
 7974TIP3   OH245412   2.708   6.173   5.132  0.0928 -0.3237 -0.0742
 7974TIP3    H145413   2.754   6.256   5.119  0.5049 -0.8513 -2.6485
 7974TIP3    H245414   2.777   6.107   5.135 -0.3267 -0.7962 -0.4885
 7975TIP3   OH245415   4.278   6.005  16.492 -0.1209  0.6107  0.3798
 7975TIP3    H145416   4.351   6.065  16.480  0.4592 -0.0813  0.3589
 7975TIP3    H245417   4.270   5.960  16.408 -0.0862  0.1583  0.6167
 7976TIP3   OH245418   0.856   0.869  13.927  0.3394  0.2225  0.0256
 7976TIP3    H145419   0.784   0.924  13.894  1.4450  0.8787 -1.4204
 7976TIP3    H245420   0.871   0.901  14.016  0.0900  1.3767 -0.3257
 7977TIP3   OH245421   2.645   1.989   4.586 -0.2423 -0.1436 -0.1378
 7977TIP3    H145422   2.722   1.979   4.531  0.5585  0.2782  0.8820
 7977TIP3    H245423   2.679   2.000   4.674 -1.2872  3.0722  0.0014
 7978TIP3   OH245424   6.150   6.108   0.577 -0.0500  0.1848 -0.8008
 7978TIP3    H145425   6.186   6.091   0.489 -0.5602 -2.1717 -0.6353
 7978TIP3    H245426   6.210   6.061   0.636 -0.1507  1.0927  0.0441
 7979TIP3   OH245427   6.175   4.919  10.790  0.1148  0.2760 -0.7213
 7979TIP3    H145428   6.169   4.971  10.710  0.1670  0.4617 -0.6062
 7979TIP3    H245429   6.147   4.832  10.764  1.6388 -0.0666 -1.2999
 7980TIP3   OH245430   2.975   4.921  15.667  0.0764  0.8340  0.0968
 7980TIP3    H145431   2.895   4.870  15.655 -0.1800  1.4666 -0.8979
 7980TIP3    H245432   3.008   4.891  15.752  0.4390 -1.6757 -0.8290
 7981TIP3   OH245433   3.084   2.338   4.921 -0.5423 -0.5866 -0.1037
 7981TIP3    H145434   3.145   2.410   4.909 -1.5042 -0.0521 -2.1656
 7981TIP3    H245435   3.021   2.371   4.986  0.2346 -0.4201  0.5817
 7982TIP3   OH245436   4.102   4.634  16.809 -0.1905 -0.0457 -0.5500
 7982TIP3    H145437   4.096   4.640  16.905 -1.3007 -0.7528 -0.5574
 7982TIP3    H245438   4.012   4.618  16.781  0.0505  0.6344 -1.7634
 7983TIP3   OH245439   4.264   3.428   0.255  0.1517 -0.3385 -0.2159
 7983TIP3    H145440   4.173   3.420   0.228 -0.5362 -1.7706  2.2144
 7983TIP3    H245441   4.283   3.521   0.246 -0.7808 -0.3118 -2.8517
 7984TIP3   OH245442   5.915   4.055  15.686 -0.2752 -0.5727  0.3277
 7984TIP3    H145443   5.949   3.965  15.679  0.7114 -0.2556  0.8334
 7984TIP3    H245444   5.987   4.104  15.726 -1.7697 -0.0978  2.5460
 7985TIP3   OH245445   0.181   3.419   3.492  0.6505 -0.6517 -0.1358
 7985TIP3    H145446   0.160   3.362   3.418  1.0685  0.2160 -0.9463
 7985TIP3    H245447   0.131   3.383   3.565  0.2972 -1.5788 -0.8166
 7986TIP3   OH245448   1.964   0.896  15.061 -0.4767 -0.0690 -0.2407
 7986TIP3    H145449   1.922   0.823  15.107 -0.3983  1.0273  1.6584
 7986TIP3    H245450   1.965   0.968  15.124  1.3420  0.9640 -1.3411
 7987TIP3   OH245451   3.507   2.105   0.845 -0.0840  0.1417 -0.0165
 7987TIP3    H145452   3.447   2.150   0.785 -2.4668 -1.4835  0.9703
 7987TIP3    H245453   3.512   2.015   0.811  2.8378  0.4968 -0.7379
 7988TIP3   OH245454   2.177   4.987   3.002 -0.0805 -0.2965  0.0803
 7988TIP3    H145455   2.245   5.003   3.067  0.0064 -2.8798  0.7062
 7988TIP3    H245456   2.221   4.998   2.918  0.5399  0.2256  0.4625
 7989TIP3   OH245457   4.120   6.005   0.193 -0.6595  0.2456  0.0375
 7989TIP3    H145458   4.191   6.016   0.130 -0.8948 -0.4797 -0.3805
 7989TIP3    H245459   4.056   6.072   0.170 -0.9309 -0.2675 -0.7905
 7990TIP3   OH245460   2.436   3.323  12.481  0.4417  0.7850  0.4615
 7990TIP3    H145461   2.370   3.255  12.467  1.7078 -0.0211 -2.4286
 7990TIP3    H245462   2.460   3.315  12.573 -1.4180 -0.7809  0.8827
 7991TIP3   OH245463   3.882   6.233  15.173  0.6980  0.0361 -0.2039
 7991TIP3    H145464   3.914   6.159  15.225  1.7865 -0.7829 -1.9283
 7991TIP3    H245465   3.788   6.219  15.167  0.4545  0.4580  1.9361
 7992TIP3   OH245466   6.784   6.798  14.234  0.3959 -0.3575  0.0875
 7992TIP3    H145467   6.880   6.803  14.230  0.5092  0.6273  2.1941
 7992TIP3    H245468   6.761   6.854  14.309 -2.0451  1.5596 -1.9185
 7993TIP3   OH245469   2.418   4.132  12.812  0.0489 -0.1658 -0.5470
 7993TIP3    H145470   2.436   4.198  12.879  1.9011 -0.8242 -0.3209
 7993TIP3    H245471   2.501   4.121  12.766 -0.3642 -1.8762 -0.9859
 7994TIP3   OH245472   2.065   2.338  11.196 -0.0817 -0.6518 -0.1268
 7994TIP3    H145473   2.012   2.311  11.120 -1.4179 -0.7484  0.8047
 7994TIP3    H245474   2.129   2.268  11.207  0.7121 -0.2143 -1.6856
 7995TIP3   OH245475   2.765   1.052   2.034 -0.1892  0.2535 -0.1596
 7995TIP3    H145476   2.683   1.037   1.986  0.2457  1.3892 -1.3020
 7995TIP3    H245477   2.763   0.987   2.104 -1.1736 -0.9971 -1.2922
 7996TIP3   OH245478   6.299   4.869  12.230  0.2927  0.6522 -0.1120
 7996TIP3    H145479   6.208   4.846  12.209  0.2115  0.1461  0.7701
 7996TIP3    H245480   6.293   4.953  12.277  0.2323  0.3415  0.4382
 7997TIP3   OH245481   2.233   0.106   1.076  0.3693  0.0881  0.9056
 7997TIP3    H145482   2.205   0.068   1.159 -0.4252  0.3417  0.7629
 7997TIP3    H245483   2.155   0.153   1.043 -0.0036 -1.6709 -0.9433
 7998TIP3   OH245484   0.500   0.908  12.577  0.1692  0.8801 -0.2552
 7998TIP3    H145485   0.568   0.867  12.523  0.3792  1.9936 -0.8661
 7998TIP3    H245486   0.489   0.995  12.540 -0.9451  1.0492  0.4236
 7999TIP3   OH245487   2.079   5.493   0.180  0.2772  0.1644  0.6736
 7999TIP3    H145488   2.163   5.538   0.192 -0.3075  1.1960  0.9997
 7999TIP3    H245489   2.080   5.423   0.245  0.6947  0.4583  0.9919
 8000TIP3   OH245490   1.950   2.392  11.896 -0.0601 -0.3523 -0.4683
 8000TIP3    H145491   1.978   2.435  11.815  0.7630 -0.2586 -0.1472
 8000TIP3    H245492   2.030   2.386  11.948 -0.7718  0.5082  0.7672
 8001TIP3   OH245493   5.802   2.622  14.907 -0.1207 -0.0554  0.2002
 8001TIP3    H145494   5.768   2.538  14.938 -1.3533 -0.0786 -1.1089
 8001TIP3    H245495   5.894   2.622  14.934  0.0837 -2.1049 -0.3332
 8002TIP3   OH245496   1.040   3.830   6.134 -0.1117 -0.4615  0.3724
 8002TIP3    H145497   1.096   3.767   6.179  0.3554 -0.2324  0.1224
 8002TIP3    H245498   0.951   3.798   6.148  0.0759 -0.7964  0.8293
 8003TIP3   OH245499   3.456   3.665   5.031 -0.6166 -0.0583 -0.2384
 8003TIP3    H145500   3.533   3.710   5.067  0.4687 -1.7017 -0.3747
 8003TIP3    H245501   3.391   3.734   5.021  0.1799  1.0652  1.6794
 8004TIP3   OH245502   3.399   6.839  15.648  0.1229  0.0966 -0.2986
 8004TIP3    H145503   3.401   6.749  15.682  0.9252  1.1266  2.6394
 8004TIP3    H245504   3.490   6.868  15.653 -0.5615  2.1215  2.0476
 8005TIP3   OH245505   5.880   3.906  12.773  0.2428  0.0444 -0.2611
 8005TIP3    H145506   5.943   3.972  12.802  1.6643 -1.3979  0.1025
 8005TIP3    H245507   5.882   3.840  12.842  0.1306 -1.1803 -1.3863
 8006TIP3   OH245508   1.233   1.143  11.841 -0.2570  0.4237  0.7999
 8006TIP3    H145509   1.294   1.102  11.902 -1.0113  1.0114  1.9800
 8006TIP3    H245510   1.159   1.082  11.836 -0.5473  0.7462  1.1036
 8007TIP3   OH245511   0.282   5.166  11.254 -0.2748  0.3843 -0.5686
 8007TIP3    H145512   0.259   5.083  11.296 -0.0474 -0.1326 -1.4401
 8007TIP3    H245513   0.234   5.165  11.171 -0.7001  1.3751 -0.3546
 8008TIP3   OH245514   3.953   3.501   0.806 -0.2469  0.1876  0.5826
 8008TIP3    H145515   3.881   3.464   0.755  0.4710  0.7563 -0.9102
 8008TIP3    H245516   3.912   3.570   0.859 -0.6359  1.3917 -1.2113
 8009TIP3   OH245517   1.244   3.111   4.391 -0.2137  0.2383 -0.5750
 8009TIP3    H145518   1.274   3.115   4.300 -1.2734 -1.2326 -1.0417
 8009TIP3    H245519   1.305   3.052   4.433  0.4848  1.1946 -0.2245
 8010TIP3   OH245520   3.601   5.275   4.599 -0.5859  0.9761 -0.1154
 8010TIP3    H145521   3.573   5.314   4.516 -0.5961  2.9228  0.7479
 8010TIP3    H245522   3.556   5.190   4.602 -0.7361  0.9446 -1.9864
 8011TIP3   OH245523   4.726   4.583   4.630 -0.5750  0.5402  0.0566
 8011TIP3    H145524   4.749   4.567   4.721  0.4769 -0.7094 -0.4036
 8011TIP3    H245525   4.672   4.508   4.605 -0.4547  0.6269 -0.4794
 8012TIP3   OH245526   1.357   2.368   6.346 -0.0281  0.0596 -0.3576
 8012TIP3    H145527   1.406   2.439   6.303  0.9041  0.2676  0.9647
 8012TIP3    H245528   1.416   2.292   6.341 -0.2390 -0.1168 -0.1529
 8013TIP3   OH245529   2.741   5.220  10.601 -0.3275  0.8005 -0.1620
 8013TIP3    H145530   2.759   5.178  10.516 -0.1301 -4.6580  2.1312
 8013TIP3    H245531   2.815   5.278  10.615 -0.8949  2.7842 -4.0202
 8014TIP3   OH245532   6.807   5.046   6.067 -0.0755 -0.0379  0.0776
 8014TIP3    H145533   6.792   5.049   6.162  1.2143  1.5762  0.2727
 8014TIP3    H245534   6.881   4.986   6.057  0.2195  0.3017  0.1796
 8015TIP3   OH245535   6.474   3.503   0.583  0.3256  0.1739  0.4688
 8015TIP3    H145536   6.389   3.510   0.538  1.9019  0.3398 -2.7459
 8015TIP3    H245537   6.493   3.410   0.585 -0.3564  0.0465  2.1553
 8016TIP3   OH245538   2.272   6.516  14.294 -0.2129  0.2528 -0.4626
 8016TIP3    H145539   2.199   6.546  14.239  0.4660  2.3856 -0.2887
 8016TIP3    H245540   2.277   6.581  14.364  0.7698 -0.8390  0.5321
 8017TIP3   OH245541   1.764   4.040   0.269 -0.1947  0.5543  0.1867
 8017TIP3    H145542   1.771   3.961   0.324  1.4119 -0.5126 -1.4322
 8017TIP3    H245543   1.707   4.098   0.318  1.4599 -0.1461  3.2195
 8018TIP3   OH245544   2.115   4.475  11.361 -0.1242 -0.2123  0.1851
 8018TIP3    H145545   2.034   4.519  11.383 -0.2201  0.4884 -1.4046
 8018TIP3    H245546   2.178   4.505  11.426 -0.5724  1.0730  0.0440
 8019TIP3   OH245547   2.031   0.782  15.807  0.1105 -0.1396 -0.1145
 8019TIP3    H145548   2.021   0.798  15.901 -2.1130 -0.7890 -0.1796
 8019TIP3    H245549   1.989   0.697  15.793  0.9864 -0.3619 -1.6110
 8020TIP3   OH245550   0.990   3.889   2.814  0.0569 -0.4534  0.5816
 8020TIP3    H145551   0.945   3.971   2.837 -1.0985 -1.1021  0.6931
 8020TIP3    H245552   0.920   3.826   2.798  0.8513 -0.7546 -2.2231
 8021TIP3   OH245553   6.703   6.153   3.396 -0.0827  0.3341  0.1780
 8021TIP3    H145554   6.721   6.122   3.485 -0.5150 -2.6686 -0.6587
 8021TIP3    H245555   6.789   6.163   3.356  0.1220  1.8525  0.9174
 8022TIP3   OH245556   1.577   0.595  16.404  0.3333 -0.2941 -0.1472
 8022TIP3    H145557   1.631   0.564  16.332  1.2869 -0.2397  0.5308
 8022TIP3    H245558   1.547   0.515  16.447  0.3212 -0.3164 -0.1966
 8023TIP3   OH245559   0.853   2.008   5.123 -0.2274  0.2732  0.6289
 8023TIP3    H145560   0.771   2.058   5.121 -0.0374  0.5754  0.4602
 8023TIP3    H245561   0.826   1.921   5.153 -0.7609  0.0871 -0.3412
 8024TIP3   OH245562   4.133   0.721   2.411 -0.5597  0.3299 -0.0818
 8024TIP3    H145563   4.166   0.665   2.482 -0.8059 -0.1435 -0.3340
 8024TIP3    H245564   4.041   0.734   2.432 -0.3923  1.0532  0.2343
 8025TIP3   OH245565   3.929   2.378   2.406 -0.3990 -0.2339  0.5394
 8025TIP3    H145566   4.014   2.409   2.438 -0.2484  1.2133 -1.1160
 8025TIP3    H245567   3.948   2.331   2.325 -1.0755 -1.0012  0.8085
 8026TIP3   OH245568   2.456   2.457  14.241 -0.2087 -0.5612  0.4466
 8026TIP3    H145569   2.501   2.385  14.285  0.3038  0.5788  1.9056
 8026TIP3    H245570   2.489   2.536  14.286 -3.0817  0.3847  1.0692
 8027TIP3   OH245571   2.560   3.044  13.977  0.0354 -0.6211 -0.9320
 8027TIP3    H145572   2.594   2.975  14.033 -0.9626 -1.3192 -1.1713
 8027TIP3    H245573   2.538   3.001  13.895  0.8116  0.2637 -1.6324
 8028TIP3   OH245574   5.011   1.080  13.015  0.1591  0.0687  0.2125
 8028TIP3    H145575   4.917   1.061  13.016  0.1543  0.0428 -0.5408
 8028TIP3    H245576   5.053   0.994  13.027  0.1549 -0.7460 -3.9489
 8029TIP3   OH245577   6.234   4.358  13.291 -0.0711  0.3250  0.3095
 8029TIP3    H145578   6.147   4.390  13.267 -0.0494  0.1343 -0.0303
 8029TIP3    H245579   6.294   4.424  13.258  0.1021 -0.8910 -2.0283
 8030TIP3   OH245580   1.101   4.441   3.251  0.0836 -0.2500 -0.1683
 8030TIP3    H145581   1.191   4.422   3.280  0.0349  0.6591  0.6663
 8030TIP3    H245582   1.104   4.534   3.226 -0.8662  0.0992  0.9319
 8031TIP3   OH245583   3.704   1.356   2.243 -0.3614 -0.3606 -0.5745
 8031TIP3    H145584   3.621   1.374   2.198 -0.3348  0.8419 -0.1646
 8031TIP3    H245585   3.763   1.427   2.215  0.1576 -0.5222  0.0773
 8032TIP3   OH245586   0.593   0.760   3.980  0.1098  0.3583 -0.2715
 8032TIP3    H145587   0.655   0.726   3.916  0.8206 -1.7312  1.3819
 8032TIP3    H245588   0.569   0.683   4.033 -2.1872  1.5373  0.5448
 8033TIP3   OH245589   3.567   5.659  10.501 -0.0304  0.4012  0.1563
 8033TIP3    H145590   3.602   5.745  10.525  0.0508 -0.2560  2.6362
 8033TIP3    H245591   3.474   5.675  10.485  0.2430  1.1595 -0.8031
 8034TIP3   OH245592   5.008   1.594   3.666  0.2769 -0.1603  0.1870
 8034TIP3    H145593   4.956   1.515   3.653  0.2728 -0.0265 -0.6229
 8034TIP3    H245594   4.944   1.663   3.683  0.2045 -0.0695 -0.4397
 8035TIP3   OH245595   1.980   5.708  13.415 -0.1086  0.0848 -0.1302
 8035TIP3    H145596   2.027   5.747  13.341  1.5707  0.3981  1.0652
 8035TIP3    H245597   2.039   5.718  13.489 -0.9447 -1.9553  0.8707
 8036TIP3   OH245598   0.369   3.111  12.675 -0.0679  0.2803 -0.1078
 8036TIP3    H145599   0.414   3.071  12.749 -0.2090  0.9098  0.3214
 8036TIP3    H245600   0.410   3.071  12.598 -0.1616 -0.6404  0.3043
 8037TIP3   OH245601   2.039   0.371   0.769  0.6686  0.4306 -0.2468
 8037TIP3    H145602   1.991   0.429   0.710  0.8343 -0.7380 -1.5871
 8037TIP3    H245603   1.978   0.300   0.788 -0.5160  2.1844  3.4957
 8038TIP3   OH245604   4.874   4.152   0.091 -0.1056 -0.2378  0.0050
 8038TIP3    H145605   4.779   4.151   0.099 -0.2919 -0.5142 -1.7593
 8038TIP3    H245606   4.906   4.119   0.175 -1.4949  1.1625  1.1392
 8039TIP3   OH245607   1.274   3.196  16.257  0.2212  0.0819 -0.1929
 8039TIP3    H145608   1.361   3.188  16.296  0.0517 -1.5235 -0.0569
 8039TIP3    H245609   1.238   3.107  16.260 -2.0337  0.9451  1.1569
 8040TIP3   OH245610   5.016   1.244  14.591 -0.3746  0.4505 -0.3575
 8040TIP3    H145611   5.057   1.197  14.518  0.6401  1.0174 -0.1721
 8040TIP3    H245612   5.083   1.244  14.660  0.0977  3.0539 -0.7044
 8041TIP3   OH245613   1.731   0.686   0.410  0.2725 -0.0880 -0.3364
 8041TIP3    H145614   1.725   0.759   0.349 -0.0010 -1.5789 -2.1678
 8041TIP3    H245615   1.655   0.695   0.467 -0.6440  0.1687 -1.5760
 8042TIP3   OH245616   0.271   4.617  16.107  0.2456 -0.4602 -0.1860
 8042TIP3    H145617   0.175   4.612  16.105  0.1543 -0.2528  1.7779
 8042TIP3    H245618   0.290   4.710  16.115  0.4989 -0.6177  1.4319
 8043TIP3   OH245619   2.276   0.899   3.671 -0.4897 -0.3876  0.1432
 8043TIP3    H145620   2.285   0.864   3.583  0.2050 -1.5553  0.6496
 8043TIP3    H245621   2.281   0.994   3.661  0.5777 -0.5477 -0.9571
 8044TIP3   OH245622   5.858   5.201   0.305  0.7623 -0.3130 -0.1336
 8044TIP3    H145623   5.935   5.258   0.308 -0.0481  0.8533 -0.8205
 8044TIP3    H245624   5.806   5.235   0.232 -0.0610 -1.5308 -0.1344
 8045TIP3   OH245625   3.811   5.317   2.048 -0.0081 -0.4386  0.8342
 8045TIP3    H145626   3.879   5.380   2.026  1.2831 -2.5635 -2.0068
 8045TIP3    H245627   3.734   5.370   2.068  1.3199  1.9946 -0.0704
 8046TIP3   OH245628   3.229   6.711   3.431 -0.1351 -0.1351  0.0915
 8046TIP3    H145629   3.162   6.697   3.497  0.0209 -2.1895 -0.1344
 8046TIP3    H245630   3.207   6.650   3.361  0.2128  1.3597 -1.3856
 8047TIP3   OH245631   1.934   6.416  16.461 -0.0255  0.3242  0.2587
 8047TIP3    H145632   1.923   6.494  16.516  1.6980  0.8764 -0.1055
 8047TIP3    H245633   2.025   6.390  16.476  0.4548  0.3887 -2.1741
 8048TIP3   OH245634   2.800   5.053  16.127 -0.0476  0.4001  0.2135
 8048TIP3    H145635   2.849   5.098  16.195 -1.7462  2.0471  0.4565
 8048TIP3    H245636   2.742   4.993  16.174  0.7867 -0.5775  0.0147
 8049TIP3   OH245637   6.635   6.232  12.808  0.5726  0.3422 -0.2381
 8049TIP3    H145638   6.552   6.264  12.842  1.1186  0.2437  1.2491
 8049TIP3    H245639   6.655   6.290  12.734 -0.3936  0.8996 -0.0755
 8050TIP3   OH245640   3.830   6.814   0.397  0.2608 -0.1937  0.4014
 8050TIP3    H145641   3.842   6.722   0.375 -1.1164 -0.0108 -1.3310
 8050TIP3    H245642   3.795   6.813   0.487 -1.2525 -1.4942 -0.1551
 8051TIP3   OH245643   2.751   2.501  15.130 -0.2270 -0.6617  0.3000
 8051TIP3    H145644   2.682   2.448  15.089  0.0215 -1.8043  1.3001
 8051TIP3    H245645   2.704   2.573  15.172 -0.6535 -0.5408 -0.3668
 8052TIP3   OH245646   5.479   4.740   2.513  0.2237 -0.6669 -0.6386
 8052TIP3    H145647   5.473   4.817   2.571  2.0464 -0.9649  0.0231
 8052TIP3    H245648   5.391   4.730   2.478 -0.8653 -0.1499  1.6935
 8053TIP3   OH245649   6.325   5.082   4.717  0.1259 -0.5432  0.3446
 8053TIP3    H145650   6.253   5.054   4.774 -1.1691 -1.2388 -1.5649
 8053TIP3    H245651   6.359   5.162   4.758 -0.0664 -1.5561  2.6296
 8054TIP3   OH245652   5.108   3.896   1.838  0.3930 -0.1599 -0.2472
 8054TIP3    H145653   5.133   3.859   1.923 -1.7538  0.5986  0.7777
 8054TIP3    H245654   5.019   3.864   1.823 -0.8437  2.9266 -0.2074
 8055TIP3   OH245655   4.358   0.941  15.640 -0.3589 -0.6211 -0.3663
 8055TIP3    H145656   4.311   0.909  15.717 -0.8067  2.2658  0.7046
 8055TIP3    H245657   4.443   0.897  15.644 -1.5440 -3.0301 -0.1644
 8056TIP3   OH245658   3.451   4.178  13.228 -0.8654  0.2761 -0.5964
 8056TIP3    H145659   3.502   4.254  13.201 -1.1650 -0.0114 -2.0907
 8056TIP3    H245660   3.374   4.215  13.271  0.1214  0.7339  0.8201
 8057TIP3   OH245661   3.712   1.885  14.472  0.7716  0.4667 -0.1987
 8057TIP3    H145662   3.726   1.791  14.467  0.6436  0.4206  0.2263
 8057TIP3    H245663   3.670   1.908  14.389 -1.0006 -0.1734  0.4703
 8058TIP3   OH245664   6.595   3.715  11.957  0.3064  0.4982 -0.5799
 8058TIP3    H145665   6.518   3.680  11.914  1.2643 -0.1221 -1.8596
 8058TIP3    H245666   6.603   3.805  11.924  1.1715 -0.0501 -1.9596
 8059TIP3   OH245667   2.292   5.343   6.431 -0.4686 -0.0306  0.0433
 8059TIP3    H145668   2.219   5.390   6.391 -1.8539 -2.7398 -0.8502
 8059TIP3    H245669   2.256   5.257   6.454  2.4861 -1.5894 -0.6599
 8060TIP3   OH245670   4.566   4.537  12.160 -0.2400  0.5146  0.1940
 8060TIP3    H145671   4.640   4.588  12.194 -0.5667  0.8010  0.4881
 8060TIP3    H245672   4.500   4.541  12.230 -0.3303 -0.1849  0.1579
 8061TIP3   OH245673   3.881   0.366  13.682 -0.0733  0.5482  0.2060
 8061TIP3    H145674   3.902   0.407  13.766  0.2061 -0.6845  0.7647
 8061TIP3    H245675   3.896   0.272  13.697 -1.8378  0.0855 -0.6735
 8062TIP3   OH245676   5.655   1.082  13.120 -0.0382 -0.1402  1.0349
 8062TIP3    H145677   5.572   1.053  13.081  0.5168  1.2630 -1.4152
 8062TIP3    H245678   5.688   1.147  13.059  2.5827 -0.1643  2.3079
 8063TIP3   OH245679   1.795   0.486  16.623 -0.7087 -0.3253  0.2980
 8063TIP3    H145680   1.799   0.433  16.703 -1.7496 -1.5991 -0.4398
 8063TIP3    H245681   1.844   0.436  16.558 -1.6130 -0.3505 -0.3884
 8064TIP3   OH245682   2.815   1.310  15.205  0.1652 -0.0582  0.0851
 8064TIP3    H145683   2.904   1.339  15.223  0.1774  0.5504 -0.9140
 8064TIP3    H245684   2.804   1.322  15.111 -1.8266  2.3537  0.5365
 8065TIP3   OH245685   3.427   2.984   0.263 -0.6888 -0.0633  0.1537
 8065TIP3    H145686   3.349   2.996   0.209 -1.0480 -1.8728  0.1848
 8065TIP3    H245687   3.438   3.067   0.309 -0.8223  1.2791 -2.0845
 8066TIP3   OH245688   2.154   5.216  15.732 -0.7785 -0.3786  0.3417
 8066TIP3    H145689   2.088   5.160  15.692 -0.8657 -0.2308  0.2740
 8066TIP3    H245690   2.106   5.267  15.798 -0.4610 -1.2698  1.2860
 8067TIP3   OH245691   1.461   2.936   1.898  0.7335 -0.2942 -0.1935
 8067TIP3    H145692   1.369   2.909   1.893  0.3830  0.5379  1.3743
 8067TIP3    H245693   1.509   2.860   1.863 -0.4055 -1.7206  1.1816
 8068TIP3   OH245694   3.714   2.933  15.100 -0.2293 -0.3097 -0.3161
 8068TIP3    H145695   3.647   2.868  15.123  0.4857 -1.3937 -1.1684
 8068TIP3    H245696   3.769   2.939  15.179  0.2203 -1.4321 -0.5278
 8069TIP3   OH245697   3.072   6.545  12.290  0.0774 -0.5262  0.2600
 8069TIP3    H145698   2.998   6.551  12.350 -1.7647 -0.8109 -1.8487
 8069TIP3    H245699   3.082   6.634  12.255 -0.3326 -0.8286 -0.6452
 8070TIP3   OH245700   0.918   3.676  11.417 -0.0455  0.3783  0.3446
 8070TIP3    H145701   0.982   3.611  11.389 -1.3560 -0.8903  0.2072
 8070TIP3    H245702   0.834   3.639  11.394 -0.8612  2.0258  0.5035
 8071TIP3   OH245703   5.560   3.697  14.717 -0.1450  0.0346  0.6032
 8071TIP3    H145704   5.581   3.780  14.760 -1.3817 -0.2273  1.7776
 8071TIP3    H245705   5.550   3.635  14.789 -0.3005 -0.8905 -0.2004
 8072TIP3   OH245706   0.021   3.240  12.679  0.5518 -0.2955  0.0500
 8072TIP3    H145707   0.108   3.265  12.709  0.2934  0.4687  0.2002
 8072TIP3    H245708   0.025   3.145  12.667  1.1779 -0.3731  0.7980
 8073TIP3   OH245709   5.463   4.112   1.976  0.6552 -0.4361  0.4438
 8073TIP3    H145710   5.416   4.127   2.058  0.3618 -0.1129  0.2199
 8073TIP3    H245711   5.484   4.019   1.976 -0.8894 -0.8044  0.0766
 8074TIP3   OH245712   1.252   4.556  14.306 -0.5427  0.0141 -0.2680
 8074TIP3    H145713   1.183   4.518  14.360  0.6981 -1.0085  0.6651
 8074TIP3    H245714   1.271   4.489  14.240  0.0521 -0.0338 -0.0590
 8075TIP3   OH245715   0.571   6.105  17.214 -0.3998 -0.6612  0.6966
 8075TIP3    H145716   0.628   6.182  17.221 -1.3867  0.2313 -0.5174
 8075TIP3    H245717   0.520   6.106  17.295 -0.3993 -0.0257  0.6958
 8076TIP3   OH245718   1.521   4.262  10.461 -0.1582  0.3842 -0.0450
 8076TIP3    H145719   1.516   4.285  10.554  0.9866 -0.7291  0.3183
 8076TIP3    H245720   1.510   4.167  10.459  2.3915  0.0386 -0.7594
 8077TIP3   OH245721   6.015   5.793   5.835 -0.7011 -0.3245  0.1240
 8077TIP3    H145722   6.020   5.745   5.753  0.1483 -1.2232  0.6746
 8077TIP3    H245723   5.954   5.742   5.889 -0.9386  0.0292  0.1884
 8078TIP3   OH245724   1.279   2.165   1.695  0.0429 -0.0316  0.0693
 8078TIP3    H145725   1.254   2.171   1.603 -1.1995  2.1981  0.4827
 8078TIP3    H245726   1.234   2.238   1.737 -0.0258 -1.3956  2.5961
 8079TIP3   OH245727   1.782   6.390   6.328  0.5892 -0.0854  0.7072
 8079TIP3    H145728   1.857   6.440   6.296 -0.0271  1.5182  1.6463
 8079TIP3    H245729   1.759   6.431   6.412 -0.3468 -1.5625  1.2172
 8080TIP3   OH245730   3.807   5.221   4.183  0.5144 -0.2669 -0.0580
 8080TIP3    H145731   3.727   5.169   4.191 -0.3955  1.0729 -0.0442
 8080TIP3    H245732   3.870   5.178   4.241 -0.3278 -1.1106  0.2544
 8081TIP3   OH245733   6.641   2.231  15.073  0.2105  0.1793  0.3770
 8081TIP3    H145734   6.665   2.140  15.058 -0.4791  0.2650 -1.5406
 8081TIP3    H245735   6.551   2.228  15.104  0.3172  0.1955  0.6910
 8082TIP3   OH245736   5.295   3.117  16.565  0.7298  0.1309 -0.1065
 8082TIP3    H145737   5.349   3.176  16.617  0.7592 -0.9730  1.1796
 8082TIP3    H245738   5.311   3.031  16.603 -0.9839 -0.3928 -0.4905
 8083TIP3   OH245739   4.741   4.684  11.582 -0.3676 -0.2543 -0.2660
 8083TIP3    H145740   4.701   4.610  11.628  0.9731 -0.9383 -0.1708
 8083TIP3    H245741   4.789   4.644  11.510  0.0481  0.5626 -0.4523
 8084TIP3   OH245742   4.242   0.965   2.201  0.3907  0.3023  0.1829
 8084TIP3    H145743   4.267   1.052   2.170  0.0854 -0.1226 -1.3588
 8084TIP3    H245744   4.188   0.982   2.278  1.2109  1.4241  0.5345
 8085TIP3   OH245745   5.641   5.297  12.101 -0.0448 -0.5200  0.1273
 8085TIP3    H145746   5.570   5.309  12.037 -0.7295  0.4073  1.0453
 8085TIP3    H245747   5.709   5.360  12.074 -0.8156  0.7118  0.9538
 8086TIP3   OH245748   0.232   5.688  15.296  0.0201 -0.3615 -0.2471
 8086TIP3    H145749   0.247   5.649  15.382  0.0460 -0.3319 -0.2382
 8086TIP3    H245750   0.308   5.744  15.282 -1.5615  2.3891  1.2474
 8087TIP3   OH245751   6.235   1.706  14.399 -0.0555 -0.1792 -0.2868
 8087TIP3    H145752   6.297   1.637  14.374 -1.0444 -0.4543 -2.1980
 8087TIP3    H245753   6.149   1.670  14.377 -1.0296 -0.0276  2.8148
 8088TIP3   OH245754   6.367   5.310  12.403  0.0051 -0.1645  0.7011
 8088TIP3    H145755   6.338   5.225  12.436  0.6455 -0.4872  0.4476
 8088TIP3    H245756   6.383   5.295  12.310 -2.2828  0.8666  0.0792
 8089TIP3   OH245757   3.171   3.310   2.497  0.8161  0.5908 -0.4127
 8089TIP3    H145758   3.082   3.334   2.471  0.3104 -1.5978 -0.9332
 8089TIP3    H245759   3.182   3.349   2.584 -0.6747  0.8451 -0.3095
 8090TIP3   OH245760   5.732   2.728   0.988  0.2195  0.0159  0.3744
 8090TIP3    H145761   5.747   2.773   0.905  0.0314  1.1602  0.9423
 8090TIP3    H245762   5.738   2.635   0.967  0.2161  0.2981 -0.9080
 8091TIP3   OH245763   3.398   1.132  12.575  0.6697  0.5536 -0.4021
 8091TIP3    H145764   3.447   1.099  12.499 -0.3203  1.1657 -1.3411
 8091TIP3    H245765   3.388   1.226  12.558  2.6596  1.2454  1.7847
 8092TIP3   OH245766   4.079   0.163  11.651 -0.9623 -0.5517 -0.0816
 8092TIP3    H145767   4.144   0.093  11.654 -0.6568 -0.3232 -0.8909
 8092TIP3    H245768   4.006   0.125  11.602 -0.5576 -0.1306 -1.0337
 8093TIP3   OH245769   1.994   3.895  16.502  0.2661  0.0088  0.3446
 8093TIP3    H145770   1.984   3.865  16.592 -1.5903  0.3221  0.2829
 8093TIP3    H245771   2.085   3.924  16.496  0.9008 -1.6189  1.5979
 8094TIP3   OH245772   4.339   4.917  10.432  0.0400  0.5269  0.0962
 8094TIP3    H145773   4.313   4.991  10.488  0.9666  1.7423 -1.0141
 8094TIP3    H245774   4.258   4.868  10.418 -0.5760  1.2614  0.9639
 8095TIP3   OH245775   3.238   4.755  13.073  0.6952  0.3274  0.2606
 8095TIP3    H145776   3.334   4.756  13.064  0.5545 -0.4316 -1.7355
 8095TIP3    H245777   3.205   4.754  12.983 -1.2128  0.6189  0.9074
 8096TIP3   OH245778   3.936   1.589   3.373  0.4577 -0.1639  0.0338
 8096TIP3    H145779   4.025   1.615   3.396 -0.2279  2.1461  0.3302
 8096TIP3    H245780   3.903   1.546   3.452  0.1969  2.1194  1.2553
 8097TIP3   OH245781   1.099   4.267  13.125 -0.3515  0.1849  0.0428
 8097TIP3    H145782   1.187   4.277  13.162  0.4829 -0.8882 -1.5039
 8097TIP3    H245783   1.106   4.305  13.037 -1.8925  1.4868  0.4377
 8098TIP3   OH245784   3.365   4.052  10.530 -0.1158  0.3502  0.0957
 8098TIP3    H145785   3.407   3.989  10.472  1.1841  1.3324 -0.0844
 8098TIP3    H245786   3.275   4.059  10.498 -0.2623 -1.3022  0.0610
 8099TIP3   OH245787   0.660   0.856  12.361  0.4797  0.1922 -0.3519
 8099TIP3    H145788   0.685   0.789  12.297  0.5873 -0.6144  0.5058
 8099TIP3    H245789   0.637   0.932  12.308  1.0836 -0.2760 -1.3243
 8100TIP3   OH245790   2.473   3.164   5.028  0.5839 -0.4490 -0.3609
 8100TIP3    H145791   2.423   3.116   5.094  0.1436  1.6037  0.9232
 8100TIP3    H245792   2.552   3.112   5.015 -0.0588 -1.7203  0.5958
 8101TIP3   OH245793   5.515   2.329  11.159 -0.5899 -0.1927 -0.3711
 8101TIP3    H145794   5.594   2.319  11.212 -1.1664  0.9626  0.7583
 8101TIP3    H245795   5.505   2.423  11.147 -1.1111 -0.3832 -1.5812
 8102TIP3   OH245796   4.700   5.679   2.687  0.0892 -0.1806  0.3522
 8102TIP3    H145797   4.628   5.739   2.708  0.2508 -0.1915  0.9700
 8102TIP3    H245798   4.668   5.593   2.715  0.5486 -0.1017  1.1699
 8103TIP3   OH245799   4.057   5.914  16.927  0.7624  0.0268  0.2195
 8103TIP3    H145800   3.976   5.869  16.900  1.0611  0.0426 -0.7474
 8103TIP3    H245801   4.120   5.844  16.940  0.7890  0.0632  0.2873
 8104TIP3   OH245802   3.059   0.442   0.988 -0.4302  0.0480 -0.1482
 8104TIP3    H145803   3.053   0.407   1.077 -0.0188 -2.9367 -1.1914
 8104TIP3    H245804   3.040   0.535   0.998  1.2145  0.1824  3.2883
 8105TIP3   OH245805   2.766   5.419   3.885  0.6415  0.2385 -0.0678
 8105TIP3    H145806   2.746   5.354   3.953  2.1476 -1.2584 -0.9743
 8105TIP3    H245807   2.723   5.385   3.806  0.0217  1.2665 -0.1926
 8106TIP3   OH245808   2.000   3.686  11.652 -0.6037  0.0427  0.1649
 8106TIP3    H145809   1.918   3.650  11.685 -0.2477  0.7413  1.9247
 8106TIP3    H245810   1.977   3.722  11.566 -2.4211  1.1353  1.0435
 8107TIP3   OH245811   0.669   1.344  11.680  0.4328  0.3106 -0.6135
 8107TIP3    H145812   0.581   1.367  11.712  0.6024  0.6448 -0.3778
 8107TIP3    H245813   0.671   1.248  11.681  0.4273  0.3032  0.3857
 8108TIP3   OH245814   0.303   2.480  13.408  0.1246  0.2918 -0.6792
 8108TIP3    H145815   0.218   2.457  13.443 -0.0350 -0.8895 -1.7421
 8108TIP3    H245816   0.297   2.573  13.386 -0.3940  0.5641  0.5679
 8109TIP3   OH245817   5.817   0.460  15.438 -0.2416 -0.4408 -0.1958
 8109TIP3    H145818   5.898   0.504  15.411 -0.5551 -1.0476 -2.2159
 8109TIP3    H245819   5.821   0.374  15.397 -1.4973 -0.8346  0.4623
 8110TIP3   OH245820   6.750   0.786  14.284  0.8255 -0.4797  0.4736
 8110TIP3    H145821   6.787   0.700  14.263  2.6703  0.4489 -0.3297
 8110TIP3    H245822   6.730   0.824  14.198  2.1442  0.7368  0.6633
 8111TIP3   OH245823   4.605   5.692  16.878 -0.4861  0.1202 -0.0357
 8111TIP3    H145824   4.533   5.753  16.866 -0.8676  0.0785  1.7647
 8111TIP3    H245825   4.684   5.742  16.857 -0.9734  0.4036 -1.2185
 8112TIP3   OH245826   3.192   6.150   0.446 -0.8024 -0.3534 -0.0858
 8112TIP3    H145827   3.166   6.078   0.504 -0.5896  0.0482  0.5236
 8112TIP3    H245828   3.237   6.107   0.373 -0.2253 -0.8149  0.5219
 8113TIP3   OH245829   2.948   6.289  16.264 -0.5200  0.3307  0.2962
 8113TIP3    H145830   2.996   6.278  16.182  1.3633 -1.1930  1.4835
 8113TIP3    H245831   2.908   6.203  16.280  1.0478 -0.1617  2.0042
 8114TIP3   OH245832   3.353   1.962  16.283  0.5194 -0.2691  0.3151
 8114TIP3    H145833   3.272   1.921  16.253 -0.6038  0.6976  1.8573
 8114TIP3    H245834   3.402   1.980  16.203 -0.3843 -1.6791 -0.5992
 8115TIP3   OH245835   3.124   0.900  13.462 -0.0813  0.3312  0.1708
 8115TIP3    H145836   3.100   0.927  13.550  0.8273  1.2925  0.1405
 8115TIP3    H245837   3.207   0.853  13.472 -0.0436  0.3227 -0.1557
 8116TIP3   OH245838   2.794   4.511   0.126  0.0992 -0.3534 -0.1272
 8116TIP3    H145839   2.857   4.440   0.117 -1.3715 -1.7044 -0.3032
 8116TIP3    H245840   2.790   4.529   0.220 -0.4615 -1.4269  0.0660
 8117TIP3   OH245841   6.828   5.667  16.578  0.0605 -0.8839  0.1955
 8117TIP3    H145842   6.899   5.719  16.615 -0.5844 -0.8689  1.4394
 8117TIP3    H245843   6.859   5.576  16.586 -0.6774 -1.0030  2.1980
 8118TIP3   OH245844   4.478   4.635   2.249  0.6731  0.3673  0.1856
 8118TIP3    H145845   4.488   4.542   2.229  0.3053  0.0266  1.4993
 8118TIP3    H245846   4.383   4.650   2.245  0.7565  0.7761 -0.3629
 8119TIP3   OH245847   0.034   0.023  13.469 -0.1308 -0.2452  0.1666
 8119TIP3    H145848   0.001   0.012  13.558  1.0016 -2.1406  0.4184
 8119TIP3    H245849  -0.013  -0.042  13.417  0.4211 -0.3154 -0.2652
 8120TIP3   OH245850   5.633   3.347   2.413 -0.6685 -0.6720 -0.3940
 8120TIP3    H145851   5.646   3.307   2.499 -0.8469 -0.8702 -0.4581
 8120TIP3    H245852   5.714   3.395   2.397 -1.3526  0.9814  0.7424
 8121TIP3   OH245853   3.205   0.674   4.580  0.0101 -0.2319 -0.0898
 8121TIP3    H145854   3.234   0.759   4.547  1.0450 -1.2509 -1.9927
 8121TIP3    H245855   3.282   0.638   4.626 -1.0366  0.6416  2.5350
 8122TIP3   OH245856   1.901   0.498  15.305  0.6347 -0.1447  0.6155
 8122TIP3    H145857   1.899   0.482  15.400 -0.5776  1.6908  0.9607
 8122TIP3    H245858   1.860   0.421  15.267 -2.0164  0.5122  1.8910
 8123TIP3   OH245859   5.103   5.886   2.200  0.0465  0.0599 -0.2928
 8123TIP3    H145860   5.149   5.939   2.136  2.1957  1.0049  1.8940
 8123TIP3    H245861   5.069   5.949   2.264 -1.2529 -0.9025  0.0130
 8124TIP3   OH245862   4.938   4.860  13.585 -0.9825  0.0304  0.1633
 8124TIP3    H145863   4.907   4.808  13.511  0.8972  0.3945 -0.9672
 8124TIP3    H245864   5.019   4.816  13.612 -0.8669  0.7648  1.0519
 8125TIP3   OH245865   4.631   1.163  13.856 -0.3431  0.0260  0.0708
 8125TIP3    H145866   4.558   1.207  13.811  0.4680 -0.6271 -2.0340
 8125TIP3    H245867   4.706   1.179  13.799  0.3856 -2.3246  0.2881
 8126TIP3   OH245868   3.874   1.824   1.596 -0.3307  0.0142 -0.1276
 8126TIP3    H145869   3.968   1.803   1.601 -0.4984 -0.8734 -0.4721
 8126TIP3    H245870   3.869   1.917   1.618  0.3652 -0.5005  2.6760
 8127TIP3   OH245871   6.235   2.712   1.856 -0.3650 -0.2420  0.1609
 8127TIP3    H145872   6.320   2.674   1.833 -0.7145 -1.2406  0.4789
 8127TIP3    H245873   6.249   2.752   1.941  0.2475  1.1858 -0.5764
 8128TIP3   OH245874   5.138   0.914  16.500  0.1244  0.2594 -0.4985
 8128TIP3    H145875   5.102   0.867  16.576  0.2078 -0.3062 -0.8046
 8128TIP3    H245876   5.135   1.007  16.526  1.9131 -0.0351  0.9538
 8129TIP3   OH245877   1.388   0.950   2.282  0.0712 -0.4386 -0.2463
 8129TIP3    H145878   1.431   0.964   2.366  1.9647 -0.0025 -1.2458
 8129TIP3    H245879   1.452   0.977   2.216 -1.8309  0.5138 -1.8302
 8130TIP3   OH245880   5.648   3.049   3.931 -0.0969  0.1752 -0.1612
 8130TIP3    H145881   5.698   3.128   3.912  1.8204 -0.6905  0.9862
 8130TIP3    H245882   5.711   2.978   3.919 -1.6269 -1.1431 -0.6481
 8131TIP3   OH245883   0.762   3.544  16.913  0.3077  0.4786  0.3923
 8131TIP3    H145884   0.724   3.535  16.825  0.4384 -0.5917  0.4347
 8131TIP3    H245885   0.828   3.613  16.904 -0.4646  1.1799 -0.0710
 8132TIP3   OH245886   0.114   2.549   1.203 -0.1413 -0.1438 -0.1963
 8132TIP3    H145887   0.119   2.571   1.296 -0.6466 -0.3996 -0.1045
 8132TIP3    H245888   0.204   2.558   1.171 -0.2422  1.5927 -0.0744
 8133TIP3   OH245889   1.290   3.038  14.798  0.0961 -0.1131  0.5033
 8133TIP3    H145890   1.298   2.997  14.884  1.1843 -3.8199 -1.1846
 8133TIP3    H245891   1.200   3.021  14.771  0.3381 -0.8124  0.1058
 8134TIP3   OH245892   5.485   5.056  13.288  0.0090  0.1095  0.5177
 8134TIP3    H145893   5.404   5.010  13.267  0.0440 -0.4574  1.5579
 8134TIP3    H245894   5.493   5.123  13.221 -0.3589 -1.0191 -0.6966
 8135TIP3   OH245895   0.551   2.951  12.547 -0.0597  0.0008  0.2709
 8135TIP3    H145896   0.554   2.857  12.528  4.7432  0.3737 -2.3649
 8135TIP3    H245897   0.611   2.962  12.621 -2.1708  0.9139  1.9413
 8136TIP3   OH245898   3.304   2.452  12.356  0.2705  0.3019  0.0784
 8136TIP3    H145899   3.210   2.432  12.356  0.2032  0.5886  1.0980
 8136TIP3    H245900   3.326   2.463  12.263 -0.5910 -0.2635 -0.2087
 8137TIP3   OH245901   2.684   2.190   0.955  0.2406  0.6410  0.2645
 8137TIP3    H145902   2.743   2.196   1.031  0.0825  0.4370  0.4033
 8137TIP3    H245903   2.742   2.201   0.879  0.3782  1.0009  0.4166
 8138TIP3   OH245904   5.182   3.033   4.930 -0.1102 -0.0305  0.2334
 8138TIP3    H145905   5.159   2.946   4.898 -0.0442  0.3525 -0.9257
 8138TIP3    H245906   5.172   3.028   5.025  1.2066 -1.6687  0.3148
 8139TIP3   OH245907   6.415   2.011  13.254  0.1333  0.0908 -0.4299
 8139TIP3    H145908   6.454   2.081  13.201  0.7579  0.3919  0.3968
 8139TIP3    H245909   6.355   2.058  13.313  0.6060 -0.0527  0.1743
 8140TIP3   OH245910   4.592   2.986  13.369 -0.2301  0.2919 -0.7700
 8140TIP3    H145911   4.672   3.028  13.400  0.1946  1.1152 -2.8407
 8140TIP3    H245912   4.527   3.006  13.437  1.2676 -0.3595  0.9271
 8141TIP3   OH245913   0.239   1.356   1.334 -0.0868 -0.4630 -0.7581
 8141TIP3    H145914   0.238   1.357   1.238  0.3513 -1.5004 -0.7866
 8141TIP3    H245915   0.220   1.447   1.359  1.5495  0.2453 -1.8480
 8142TIP3   OH245916   5.462   1.962   0.148 -0.2405 -0.5299 -0.2336
 8142TIP3    H145917   5.543   1.986   0.191  0.0353 -1.4933 -0.1862
 8142TIP3    H245918   5.443   2.035   0.089  1.3974 -0.8958 -1.2712
 8143TIP3   OH245919   0.585   4.233  12.515  0.2865 -0.1293 -0.3435
 8143TIP3    H145920   0.570   4.152  12.563  0.9485  1.0927  2.0782
 8143TIP3    H245921   0.578   4.208  12.423 -1.5150 -2.5188  0.3369
 8144TIP3   OH245922   3.820   1.803  12.644  0.2861 -0.2215  0.2067
 8144TIP3    H145923   3.815   1.751  12.564 -1.2833 -0.0215  0.1351
 8144TIP3    H245924   3.909   1.837  12.645 -0.3560  2.0210 -2.9568
 8145TIP3   OH245925   3.927   6.193   0.284  0.2050  0.0829  0.4476
 8145TIP3    H145926   3.865   6.141   0.335 -0.9326  0.0097 -0.9503
 8145TIP3    H245927   3.896   6.283   0.293  1.8123  0.5266  2.3579
 8146TIP3   OH245928   2.914   3.072  10.961  0.0224 -0.2761 -0.5659
 8146TIP3    H145929   2.904   2.983  10.998  1.2580 -0.6495 -1.1027
 8146TIP3    H245930   2.861   3.070  10.882 -0.6305 -0.2602 -0.1406
 8147TIP3   OH245931   1.702   5.340   4.994 -0.0882 -0.4653 -0.6566
 8147TIP3    H145932   1.753   5.303   4.922  1.3015  0.0960  0.0084
 8147TIP3    H245933   1.767   5.373   5.056 -1.2587  0.1236  0.3154
 8148TIP3   OH245934   1.020   2.087   0.286 -0.1222 -0.6759 -0.3209
 8148TIP3    H145935   0.936   2.042   0.297  0.1246 -1.2855 -0.9395
 8148TIP3    H245936   1.029   2.138   0.367 -1.4667  0.0262 -0.5702
 8149TIP3   OH245937   1.219   6.351   4.550 -0.5056 -0.4681 -0.0929
 8149TIP3    H145938   1.132   6.391   4.555 -0.9090 -0.9804 -2.1665
 8149TIP3    H245939   1.207   6.263   4.585 -0.5135 -0.1431  0.7584
 8150TIP3   OH245940   2.636   3.102   4.108 -0.7206 -0.7952  0.2398
 8150TIP3    H145941   2.554   3.150   4.119 -0.7478 -1.0171  1.0357
 8150TIP3    H245942   2.703   3.162   4.139 -0.3804 -0.0131 -1.8089
 8151TIP3   OH245943   1.584   6.447   0.327  0.5588  0.1956  0.1077
 8151TIP3    H145944   1.631   6.529   0.309  1.0584  0.2785  1.5831
 8151TIP3    H245945   1.542   6.463   0.412  0.3177 -0.9253  0.2049
 8152TIP3   OH245946   6.606   0.986   0.070 -0.1888  0.1619 -0.2371
 8152TIP3    H145947   6.518   0.972   0.107  0.0150 -0.5354  0.0031
 8152TIP3    H245948   6.593   0.986  -0.025 -0.6603  1.5760 -0.2004
 8153TIP3   OH245949   1.539   2.613  15.803 -0.2152 -0.0497  0.5755
 8153TIP3    H145950   1.626   2.612  15.842 -1.2222 -1.8960  3.0581
 8153TIP3    H245951   1.508   2.703  15.813  0.4158  0.0182  2.1908
 8154TIP3   OH245952   5.410   6.438   5.957 -0.6972  0.3284 -0.3169
 8154TIP3    H145953   5.472   6.458   6.027 -1.1594 -1.0153  0.5052
 8154TIP3    H245954   5.324   6.444   5.998 -0.9408 -1.3027 -0.4925
 8155TIP3   OH245955   5.389   0.388  11.758  0.2442  0.3556  0.2852
 8155TIP3    H145956   5.440   0.466  11.733  0.1312  0.9311  1.7513
 8155TIP3    H245957   5.311   0.423  11.800  0.7704 -0.5088  2.1138
 8156TIP3   OH245958   2.941   0.287  11.628  0.6830  0.3453  0.8074
 8156TIP3    H145959   2.961   0.374  11.596 -2.1478  0.3296 -1.4859
 8156TIP3    H245960   2.932   0.297  11.723 -0.1895  2.7264  0.5314
 8157TIP3   OH245961   1.439   2.711   3.848 -0.0965 -0.2805 -0.0410
 8157TIP3    H145962   1.449   2.806   3.852  2.2099 -0.4040 -1.2610
 8157TIP3    H245963   1.425   2.692   3.755 -0.8379 -1.1235  0.2322
 8158TIP3   OH245964   1.020   0.139  16.834 -0.0622  0.2152  0.4774
 8158TIP3    H145965   0.956   0.088  16.884  0.4368 -0.6669  0.2434
 8158TIP3    H245966   1.071   0.186  16.900  1.8340 -2.3744  1.0405
 8159TIP3   OH245967   2.734   5.745   1.618 -0.1554 -0.6024  0.0246
 8159TIP3    H145968   2.736   5.833   1.579 -2.0854 -0.9689 -1.0165
 8159TIP3    H245969   2.823   5.713   1.609  0.0155  0.2532 -2.0509
 8160TIP3   OH245970   0.015   1.867   0.967 -0.4319  0.1308  0.2413
 8160TIP3    H145971  -0.022   1.937   1.021 -2.2251 -0.9461  0.4907
 8160TIP3    H245972  -0.026   1.879   0.881 -0.6139 -0.4810  0.2367
 8161TIP3   OH245973   2.332   6.410  11.438  0.3366  1.0593 -0.6494
 8161TIP3    H145974   2.350   6.319  11.462  1.7088  1.4176 -0.2209
 8161TIP3    H245975   2.266   6.439  11.502 -0.2066  0.3440 -0.8702
 8162TIP3   OH245976   2.369   5.501  11.038 -0.8591  0.0927 -0.3680
 8162TIP3    H145977   2.380   5.465  11.126 -0.2837  0.9030 -0.0970
 8162TIP3    H245978   2.454   5.489  10.996 -1.3203 -0.8832 -1.0487
 8163TIP3   OH245979   3.312   0.719   4.013  0.3591 -0.2579 -0.2851
 8163TIP3    H145980   3.279   0.795   4.062  1.2573 -0.3886  0.5322
 8163TIP3    H245981   3.263   0.645   4.048  0.7297 -0.2984  0.1441
 8164TIP3   OH245982   0.775   1.018   1.539  0.0810 -0.3568 -0.1439
 8164TIP3    H145983   0.792   0.957   1.468  0.0990  1.0525 -1.4115
 8164TIP3    H245984   0.681   1.037   1.532  0.3977  1.0637 -0.9046
 8165TIP3   OH245985   5.829   6.411   3.388 -0.5205 -0.4017  0.1560
 8165TIP3    H145986   5.778   6.376   3.460 -0.2382 -1.7447 -0.2665
 8165TIP3    H245987   5.920   6.407   3.419 -0.5997  1.5333  0.7279
 8166TIP3   OH245988   4.686   1.376  13.226  0.4290  0.0628 -0.0850
 8166TIP3    H145989   4.684   1.381  13.130  1.2265 -0.7624 -0.1672
 8166TIP3    H245990   4.736   1.453  13.253  1.0700 -0.2221 -0.4141
 8167TIP3   OH245991   4.479   4.358   2.160 -0.5675 -0.1510 -0.1949
 8167TIP3    H145992   4.393   4.318   2.165 -0.6644  0.1786  1.1568
 8167TIP3    H245993   4.540   4.290   2.189 -0.4023 -0.2347 -0.7112
 8168TIP3   OH245994   5.645   6.651  16.701  0.4638 -0.2409  0.2626
 8168TIP3    H145995   5.672   6.641  16.610 -2.2456 -1.0990 -0.5484
 8168TIP3    H245996   5.637   6.561  16.733 -2.4188 -0.1604  0.0225
 8169TIP3   OH245997   0.948   0.625   0.970  0.1390 -0.2194  0.0873
 8169TIP3    H145998   0.958   0.538   0.931  2.8047  0.2638 -0.5208
 8169TIP3    H245999   0.907   0.608   1.055 -1.0803 -1.8370 -0.7601
 8170TIP3   OH246000   4.015   4.206   6.043  0.5509 -0.2514 -0.1323
 8170TIP3    H146001   4.091   4.175   6.092  0.7375 -1.0396 -0.8817
 8170TIP3    H246002   4.033   4.298   6.026  1.1581 -0.3349  0.0266
 8171TIP3   OH246003   2.255   2.797   5.462 -0.1051 -0.0222 -0.0482
 8171TIP3    H146004   2.295   2.821   5.546  0.2531  1.8597 -0.6992
 8171TIP3    H246005   2.164   2.824   5.471 -0.0394  0.2869 -0.2953
 8172TIP3   OH246006   6.552   4.036   2.520 -0.8229 -0.4972  0.3111
 8172TIP3    H146007   6.519   4.115   2.563 -0.5056 -0.9036  1.3543
 8172TIP3    H246008   6.474   3.987   2.495 -1.0213  0.1419 -0.3491
 8173TIP3   OH246009   3.632   1.735  12.077  0.5918  0.2154  0.0832
 8173TIP3    H146010   3.707   1.707  12.024 -0.2498 -2.8678  0.3168
 8173TIP3    H246011   3.557   1.690  12.038 -1.0418  2.4420  0.4541
 8174TIP3   OH246012   4.522   5.728  17.140 -0.4143  0.0666  0.2442
 8174TIP3    H146013   4.574   5.679  17.076 -0.5824  0.3841 -0.1393
 8174TIP3    H246014   4.515   5.816  17.103  0.9100  0.7476  1.5058
 8175TIP3   OH246015   4.645   2.936  16.954  0.3542 -0.1793  0.3133
 8175TIP3    H146016   4.739   2.917  16.958 -0.0316 -2.4225 -0.3366
 8175TIP3    H246017   4.609   2.893  17.031 -0.1694  0.6391  0.5370
 8176TIP3   OH246018   2.160   4.685  14.045  0.0711 -0.3859  0.3844
 8176TIP3    H146019   2.126   4.773  14.057 -1.1755 -0.9623  1.3702
 8176TIP3    H246020   2.155   4.670  13.950 -3.3487 -0.7116  0.4884
 8177TIP3   OH246021   2.566   0.554  11.450 -0.3406 -0.6986  0.1873
 8177TIP3    H146022   2.536   0.644  11.456 -1.2510 -0.9716 -0.0466
 8177TIP3    H246023   2.529   0.522  11.368  0.2685 -1.1765  0.0943
 8178TIP3   OH246024   6.583   4.920   4.622  0.2019  0.2338  0.0490
 8178TIP3    H146025   6.648   4.971   4.573  3.2698 -0.4466  3.0242
 8178TIP3    H246026   6.538   4.984   4.677  1.4423  0.2369  1.0915
 8179TIP3   OH246027   5.624   0.932  11.765 -0.0009 -0.3200 -0.3744
 8179TIP3    H146028   5.558   0.941  11.834 -0.7899  0.7537 -1.2352
 8179TIP3    H246029   5.634   1.021  11.730  1.3183 -0.6205 -0.8101
 8180TIP3   OH246030   3.247   5.853  15.338  0.1191 -0.1159 -0.0471
 8180TIP3    H146031   3.267   5.787  15.272 -0.6217 -1.1147  0.6812
 8180TIP3    H246032   3.154   5.871  15.326  0.0116 -0.1972  0.5994
 8181TIP3   OH246033   6.507   3.510   6.163  0.3863 -0.0755  0.0099
 8181TIP3    H146034   6.589   3.464   6.145 -0.9992 -2.8068  0.1963
 8181TIP3    H246035   6.497   3.506   6.258  0.5526  1.2284  0.0932
 8182TIP3   OH246036   3.970   3.708   3.260  0.0551 -0.2131 -0.1518
 8182TIP3    H146037   3.952   3.793   3.299  0.9884  0.1803 -0.5618
 8182TIP3    H246038   3.918   3.707   3.180  0.6372  0.2883 -0.5398
 8183TIP3   OH246039   5.771   1.404  13.714 -0.2586 -0.3628 -0.3022
 8183TIP3    H146040   5.838   1.424  13.649 -2.3351  2.0586 -1.9135
 8183TIP3    H246041   5.742   1.316  13.692 -0.8108  0.3401 -2.6669
 8184TIP3   OH246042   2.977   1.908   6.220  0.2749 -0.1292 -0.6234
 8184TIP3    H146043   2.932   1.967   6.279 -1.7834 -2.5060  0.3598
 8184TIP3    H246044   3.043   1.864   6.274  2.1245  1.4416 -1.4541
 8185TIP3   OH246045   2.496   3.510  11.271 -0.6645 -0.4867  1.1028
 8185TIP3    H146046   2.494   3.603  11.296  0.8406 -0.3703  0.9279
 8185TIP3    H246047   2.577   3.477  11.310  1.6800 -0.3968 -3.0924
 8186TIP3   OH246048   1.891   4.045  14.080 -0.2968  0.2768 -0.2553
 8186TIP3    H146049   1.958   4.088  14.026  0.6393 -0.2773  0.4343
 8186TIP3    H246050   1.825   4.017  14.017  1.3967 -1.5204 -1.3341
 8187TIP3   OH246051   5.023   6.470  14.004  0.2946 -0.6196  0.4860
 8187TIP3    H146052   4.969   6.514  13.938  1.0589  0.8555  0.7921
 8187TIP3    H246053   4.961   6.441  14.071 -0.1848  0.9824  0.7969
 8188TIP3   OH246054   1.848   0.463   0.985 -0.1262  0.7979 -1.2593
 8188TIP3    H146055   1.910   0.434   0.918  0.4481  0.9530 -0.7973
 8188TIP3    H246056   1.762   0.453   0.943  0.1759  0.1660 -1.7458
 8189TIP3   OH246057   2.728   6.513  10.713  0.4190  0.2787 -0.1332
 8189TIP3    H146058   2.634   6.526  10.701  0.0135 -1.0807  1.2978
 8189TIP3    H246059   2.752   6.447  10.647  0.7471  1.7744 -1.5883
 8190TIP3   OH246060   6.756   5.000   4.089 -0.1806  0.5463  0.8660
 8190TIP3    H146061   6.677   5.033   4.134 -0.8333 -0.5915  0.5847
 8190TIP3    H246062   6.820   5.070   4.100 -0.8387  0.9808  2.1741
 8191TIP3   OH246063   4.665   1.126  13.014  0.4571 -0.7772 -0.1342
 8191TIP3    H146064   4.702   1.062  12.953 -0.0432 -1.4465  0.2492
 8191TIP3    H246065   4.675   1.085  13.100 -1.7659 -1.3126 -0.0636
 8192TIP3   OH246066   3.347   6.510  12.856  0.1347  0.0531 -0.1620
 8192TIP3    H146067   3.404   6.545  12.924  0.3532  2.3837 -1.4579
 8192TIP3    H246068   3.264   6.556  12.868 -0.4262 -0.8831 -0.3558
 8193TIP3   OH246069   3.270   0.477  11.367 -0.5111  0.0300  0.3691
 8193TIP3    H146070   3.188   0.439  11.335  0.5135 -0.6794 -1.6038
 8193TIP3    H246071   3.334   0.456  11.299  1.6457 -0.6594  2.4760
 8194TIP3   OH246072   6.172   3.627   4.987 -0.7098  0.4379  0.7984
 8194TIP3    H146073   6.217   3.582   4.915 -0.3197  0.6172  0.9297
 8194TIP3    H246074   6.212   3.591   5.066 -0.4166  0.9954  0.9045
 8195TIP3   OH246075   1.422   1.783  14.167 -0.4151 -0.1050 -0.3495
 8195TIP3    H146076   1.330   1.791  14.142 -1.7890  1.4937  4.1516
 8195TIP3    H246077   1.421   1.725  14.244  2.1732  0.7329  0.4197
 8196TIP3   OH246078   6.115   4.883  15.015 -0.1570 -0.2337  0.0755
 8196TIP3    H146079   6.070   4.799  15.017 -1.6817  0.5432 -0.2159
 8196TIP3    H246080   6.057   4.940  14.964 -0.5261  1.7334  2.5129
 8197TIP3   OH246081   0.835   1.562  14.988 -0.1220  0.1015  0.6240
 8197TIP3    H146082   0.910   1.616  14.964 -0.0821  0.3025  1.1819
 8197TIP3    H246083   0.786   1.616  15.050  0.0902 -0.6289  1.4438
 8198TIP3   OH246084   1.341   0.369  10.590 -0.2541  0.4344 -0.0977
 8198TIP3    H146085   1.303   0.366  10.678  1.3172 -1.0587  0.5904
 8198TIP3    H246086   1.326   0.458  10.560 -2.4789  0.4633  0.9104
 8199TIP3   OH246087   0.246   4.656   3.808  0.1956  0.1186  0.0116
 8199TIP3    H146088   0.250   4.738   3.856 -0.9118 -0.4441  1.1228
 8199TIP3    H246089   0.197   4.676   3.728 -3.4515 -0.1631  1.9910
 8200TIP3   OH246090   4.456   4.388  16.264 -0.0623  0.1757  0.0627
 8200TIP3    H146091   4.439   4.427  16.178  0.1804 -1.8319 -0.9664
 8200TIP3    H246092   4.550   4.401  16.278 -0.2016  0.9803  0.2931
 8201TIP3   OH246093   0.823   3.413  14.855 -0.2545  0.3674  0.1047
 8201TIP3    H146094   0.865   3.370  14.929 -0.6495 -1.5368 -0.7196
 8201TIP3    H246095   0.840   3.506  14.868  5.2295 -0.1747 -0.6931
 8202TIP3   OH246096   2.833   4.162   5.504 -0.2731 -0.2947  0.7355
 8202TIP3    H146097   2.903   4.134   5.445  0.7783  0.7917  1.4180
 8202TIP3    H246098   2.798   4.241   5.463  0.4994  0.4965  1.5553
 8203TIP3   OH246099   1.305   4.115  12.167 -0.0232  0.6808 -0.2328
 8203TIP3    H146100   1.218   4.078  12.152 -0.6073  1.6448  0.6737
 8203TIP3    H246101   1.292   4.209  12.168  0.7727  0.8040  1.3925
 8204TIP3   OH246102   1.905   5.173   1.361 -0.3092  0.0790  0.3512
 8204TIP3    H146103   1.835   5.126   1.406 -0.4888  0.6861  0.7169
 8204TIP3    H246104   1.904   5.139   1.271 -1.3011  0.3333  0.2609
 8205TIP3   OH246105   2.117   5.966   1.855  0.1689  0.0291 -0.0936
 8205TIP3    H146106   2.182   5.903   1.885  0.0946 -0.0470 -0.0898
 8205TIP3    H246107   2.105   6.025   1.930  2.4371  1.8788 -1.0977
 8206TIP3   OH246108   6.224   1.555   2.303 -0.0813  0.1400 -0.1659
 8206TIP3    H146109   6.238   1.487   2.369  0.2249  0.6863  0.3475
 8206TIP3    H246110   6.158   1.519   2.244 -0.9258 -0.0728  0.8682
 8207TIP3   OH246111   2.053   6.239  14.241  0.0360  0.4948  0.3292
 8207TIP3    H146112   2.074   6.196  14.158 -2.3902  1.2549 -0.7586
 8207TIP3    H246113   2.139   6.256  14.281  1.2295 -0.9311 -1.4523
 8208TIP3   OH246114   5.628   4.245  11.141  0.7835 -1.2957 -0.3595
 8208TIP3    H146115   5.670   4.195  11.071  1.5477 -0.7400 -0.3043
 8208TIP3    H246116   5.697   4.300  11.177  0.1447 -0.7877  0.1229
 8209TIP3   OH246117   4.057   3.256  12.789 -0.7431  0.0873 -0.5132
 8209TIP3    H146118   4.048   3.282  12.881 -0.8139  0.0829 -0.5193
 8209TIP3    H246119   3.969   3.232  12.761 -0.6194 -0.4905 -0.4099
 8210TIP3   OH246120   0.839   1.300   5.142 -0.1927 -0.0276 -0.2908
 8210TIP3    H146121   0.858   1.238   5.071  1.1774 -1.1356  0.9761
 8210TIP3    H246122   0.925   1.322   5.178 -0.8740  0.3304  1.1936
 8211TIP3   OH246123   6.567   4.077   1.605  0.0013 -0.2813 -0.2124
 8211TIP3    H146124   6.657   4.050   1.627 -0.7718 -2.6677  0.2661
 8211TIP3    H246125   6.561   4.167   1.637  3.0944  1.0845 -2.8632
 8212TIP3   OH246126   1.487   3.584   4.578 -0.2836  0.4057  0.7518
 8212TIP3    H146127   1.526   3.510   4.624  0.8578  0.0607 -0.7005
 8212TIP3    H246128   1.534   3.660   4.612 -1.1718  0.4490  1.9409
 8213TIP3   OH246129   4.839   4.772   5.138  0.3809  0.1750 -0.4900
 8213TIP3    H146130   4.749   4.790   5.110  0.6453  0.5126 -1.1554
 8213TIP3    H246131   4.855   4.682   5.110  0.2387  0.1015 -0.3359
 8214TIP3   OH246132   2.795   4.668  14.047  0.1400 -0.2497  0.3998
 8214TIP3    H146133   2.774   4.676  13.954  2.5595  0.3049 -0.1744
 8214TIP3    H246134   2.861   4.736  14.063  0.3500 -0.8427  2.3187
 8215TIP3   OH246135   2.716   2.061   3.346  0.2712 -0.6722  0.4612
 8215TIP3    H146136   2.767   2.007   3.286  0.7735 -1.3288  1.4513
 8215TIP3    H246137   2.627   2.025   3.341  0.7767 -2.2276  1.7760
 8216TIP3   OH246138   2.129   4.239   1.488 -0.0883 -0.4788 -0.0350
 8216TIP3    H146139   2.194   4.273   1.550  0.9232 -1.1282 -0.7080
 8216TIP3    H246140   2.082   4.172   1.538  1.6206 -1.9579 -0.3065
 8217TIP3   OH246141   6.031   2.593   0.721  0.7163  1.0167  0.5861
 8217TIP3    H146142   6.062   2.669   0.770  1.9720  0.3997  0.7885
 8217TIP3    H246143   6.110   2.543   0.701 -0.0370 -0.0257  0.0834
 8218TIP3   OH246144   3.893   5.857   6.303 -0.1617 -0.0607 -0.0174
 8218TIP3    H146145   3.945   5.906   6.367  0.6499 -2.2708  1.1139
 8218TIP3    H246146   3.806   5.849   6.344 -0.4505  0.8139 -0.4327
 8219TIP3   OH246147   6.465   4.436   3.688  0.1339  0.1075  0.0810
 8219TIP3    H146148   6.469   4.405   3.778 -0.5706  1.4866  0.5977
 8219TIP3    H246149   6.535   4.501   3.682 -1.3900  1.8364  0.3756
 8220TIP3   OH246150   1.753   1.540   0.153 -0.1858  0.0285 -0.3158
 8220TIP3    H146151   1.791   1.626   0.172  0.7985 -1.0035  3.1329
 8220TIP3    H246152   1.684   1.529   0.219 -2.3741 -0.6909 -2.5790
 8221TIP3   OH246153   5.661   3.774   4.235 -0.0888  0.3463 -0.1228
 8221TIP3    H146154   5.617   3.849   4.275 -0.0275 -0.7951  2.2534
 8221TIP3    H246155   5.596   3.704   4.236  0.0869  0.1242 -1.6237
 8222TIP3   OH246156   4.576   6.083   5.052  0.1172  0.1337  0.4344
 8222TIP3    H146157   4.509   6.025   5.087  0.8362 -0.8337  0.2651
 8222TIP3    H246158   4.535   6.169   5.049 -0.5681 -0.1102  1.8910
 8223TIP3   OH246159   1.335   3.280  13.046  1.1646  0.3760  0.2402
 8223TIP3    H146160   1.379   3.286  13.131  0.8108 -0.9674  0.5455
 8223TIP3    H246161   1.242   3.291  13.067  1.0266 -0.4489  0.1189
 8224TIP3   OH246162   1.945   3.416  14.344 -0.3046 -0.1071  0.4260
 8224TIP3    H146163   1.975   3.362  14.417 -0.3265 -0.5142  0.1348
 8224TIP3    H246164   2.024   3.433  14.292 -0.6498 -1.6766 -0.6698
 8225TIP3   OH246165   4.980   0.923  15.963 -0.1019 -0.2314  0.2727
 8225TIP3    H146166   4.997   0.863  15.890  1.1601 -0.5102  0.7772
 8225TIP3    H246167   4.914   0.984  15.928  0.2955 -0.4991 -1.0265
 8226TIP3   OH246168   4.185   3.648   6.674  0.0216  0.1426  0.1723
 8226TIP3    H146169   4.177   3.576   6.736  0.1351  0.6143  0.7454
 8226TIP3    H246170   4.117   3.710   6.701  1.2801  1.1973  0.9872
 8227TIP3   OH246171   5.267   6.386  12.390  0.8489  0.4110 -0.0739
 8227TIP3    H146172   5.286   6.407  12.298  0.8858 -0.2318 -0.2121
 8227TIP3    H246173   5.349   6.350  12.423  0.1486 -1.6640 -0.4616
 8228TIP3   OH246174   5.850   0.832  14.033 -0.0118 -0.2188  0.3332
 8228TIP3    H146175   5.783   0.766  14.049 -2.0215  1.4888 -0.6349
 8228TIP3    H246176   5.921   0.809  14.094 -1.3618 -2.1813  1.2752
 8229TIP3   OH246177   0.862   6.416   0.284 -0.8599  0.2952  0.1639
 8229TIP3    H146178   0.833   6.497   0.326  1.1006  0.5145  1.1970
 8229TIP3    H246179   0.892   6.361   0.357 -1.9537 -1.3112 -0.5399
 8230TIP3   OH246180   0.930   0.518   1.492 -0.3968  0.4472 -0.1426
 8230TIP3    H146181   1.019   0.525   1.456  0.5084 -2.8866  1.1335
 8230TIP3    H246182   0.941   0.528   1.586 -1.5075  0.6198 -0.0165
 8231TIP3   OH246183   0.842   3.512  15.192  0.7549 -0.2417  0.0127
 8231TIP3    H146184   0.918   3.569  15.206  2.1827 -1.5305 -1.8957
 8231TIP3    H246185   0.880   3.427  15.169 -1.2729 -0.8820 -1.2510
 8232TIP3   OH246186   1.667   5.430  14.215  0.4531  0.3341 -0.1186
 8232TIP3    H146187   1.707   5.443  14.302  0.2786 -1.3984  0.2614
 8232TIP3    H246188   1.573   5.437  14.231  0.3105 -1.6643  0.2211
 8233TIP3   OH246189   0.198   2.163   4.346  0.4358 -0.2479 -0.3511
 8233TIP3    H146190   0.274   2.105   4.354  0.9487  0.6428  4.2333
 8233TIP3    H246191   0.125   2.112   4.380 -0.1309  0.2292 -0.8277
 8234TIP3   OH246192   4.544   4.899   1.748 -0.1575  0.5834  0.1050
 8234TIP3    H146193   4.486   4.881   1.674  0.5728 -0.5697 -0.2145
 8234TIP3    H246194   4.551   4.815   1.794  0.8398  0.8327  0.4308
 8235TIP3   OH246195   3.530   3.788   0.335 -0.1844 -0.2464 -0.3738
 8235TIP3    H146196   3.469   3.855   0.367 -0.4069 -1.3426  1.6348
 8235TIP3    H246197   3.616   3.818   0.364 -0.4025 -1.3157  1.5112
 8236TIP3   OH246198   3.170   4.641  16.571  0.0354  0.9419 -0.0836
 8236TIP3    H146199   3.262   4.621  16.551 -0.3738  0.6546 -1.8026
 8236TIP3    H246200   3.121   4.564  16.542 -0.6383  0.3097  2.4688
 8237TIP3   OH246201   4.941   5.612   2.907  0.3137  0.1456  0.2988
 8237TIP3    H146202   4.964   5.633   2.816 -0.6891  1.3885  0.3028
 8237TIP3    H246203   4.930   5.517   2.908  2.7791 -0.2043 -0.2789
 8238TIP3   OH246204   0.583   5.806   3.845 -0.4016 -0.4243 -0.1119
 8238TIP3    H146205   0.555   5.792   3.936 -3.2102  1.3580 -0.5684
 8238TIP3    H246206   0.528   5.746   3.794 -2.9127  2.3536 -0.9542
 8239TIP3   OH246207   4.384   6.713   2.425  0.2907  0.1011  0.0819
 8239TIP3    H146208   4.354   6.666   2.504  0.8784  0.3648  0.4683
 8239TIP3    H246209   4.387   6.805   2.452 -0.3494  0.3007 -0.5182
 8240TIP3   OH246210   0.092   3.438   4.286  0.1314  0.7701  0.0564
 8240TIP3    H146211   0.167   3.452   4.228  0.7293 -1.2126  0.2875
 8240TIP3    H246212   0.112   3.357   4.331 -2.8732 -0.7243 -1.0598
 8241TIP3   OH246213   3.333   4.678  11.473  0.0342 -0.1462  0.1256
 8241TIP3    H146214   3.353   4.710  11.561  0.5325  0.8679 -0.3342
 8241TIP3    H246215   3.246   4.638  11.481  1.3468 -2.9261  1.7601
 8242TIP3   OH246216   6.220   5.627   4.527  0.1172 -0.2217 -0.1610
 8242TIP3    H146217   6.194   5.574   4.452  2.2915  0.5846 -1.6034
 8242TIP3    H246218   6.314   5.640   4.514  0.3299  0.8783  2.1389
 8243TIP3   OH246219   6.697   3.281  10.673 -0.3537 -0.4119  0.6962
 8243TIP3    H146220   6.726   3.194  10.647  0.3128  0.0766 -0.2088
 8243TIP3    H246221   6.654   3.317  10.595  1.2712  0.8899  0.3605
 8244TIP3   OH246222   5.487   2.371  13.056  0.2196 -0.7013  0.3099
 8244TIP3    H146223   5.479   2.366  12.960  1.4546  2.4504 -0.0566
 8244TIP3    H246224   5.410   2.323  13.088  0.7194 -3.4947 -2.1354
 8245TIP3   OH246225   3.405   2.498   3.135  0.6490  0.1426 -0.3448
 8245TIP3    H146226   3.343   2.529   3.069 -0.3948 -0.2607  0.4314
 8245TIP3    H246227   3.387   2.404   3.144  0.2297  0.3323  1.0657
 8246TIP3   OH246228   0.333   5.764   0.131 -0.6178 -0.0006 -0.9623
 8246TIP3    H146229   0.317   5.857   0.116  0.0215  0.2771  0.0430
 8246TIP3    H246230   0.247   5.728   0.153 -0.5980  0.6897  0.3367
 8247TIP3   OH246231   4.492   5.117  16.805  0.0267  0.3140  0.0556
 8247TIP3    H146232   4.422   5.113  16.740  3.7477 -1.3161 -4.3944
 8247TIP3    H246233   4.490   5.031  16.847  0.1525 -0.2534 -1.0587
 8248TIP3   OH246234   4.897   0.865  12.116  0.1506  0.4596 -0.3488
 8248TIP3    H146235   4.803   0.876  12.108  0.1743  0.7749 -0.1851
 8248TIP3    H246236   4.908   0.780  12.160 -0.0125 -0.9860 -2.8552
 8249TIP3   OH246237   3.258   2.241  15.408 -0.3116 -0.1097  0.1143
 8249TIP3    H146238   3.173   2.200  15.394  0.4563 -2.6112  2.0687
 8249TIP3    H246239   3.243   2.301  15.481 -0.8470  1.2018 -1.0318
 8250TIP3   OH246240   0.309   5.609   5.157 -0.4519 -0.1736  0.3097
 8250TIP3    H146241   0.288   5.521   5.126  0.1734  0.0578 -0.8237
 8250TIP3    H246242   0.229   5.659   5.142 -0.7219 -0.4820  0.7070
 8251TIP3   OH246243   0.973   5.669   1.013  0.3986  0.1263  0.5641
 8251TIP3    H146244   0.934   5.697   1.095  0.7652 -2.4361  1.7081
 8251TIP3    H246245   0.909   5.608   0.975  0.2669  1.2042 -1.0499
 8252TIP3   OH246246   6.581   1.486   5.050  0.1431  0.0698 -0.1989
 8252TIP3    H146247   6.638   1.409   5.050  1.1326  0.7760  0.8349
 8252TIP3    H246248   6.641   1.560   5.043 -0.8123  0.7686 -1.5117
 8253TIP3   OH246249   3.882   1.058  13.954 -0.6741 -0.9232 -0.2045
 8253TIP3    H146250   3.940   1.072  13.880  0.4566  0.1114  0.8335
 8253TIP3    H246251   3.812   1.003  13.920 -0.3002 -0.2925 -2.0766
 8254TIP3   OH246252   0.768   0.565  16.501 -0.4880 -0.2226 -0.1260
 8254TIP3    H146253   0.804   0.537  16.585 -0.5494 -3.5891 -1.0597
 8254TIP3    H246254   0.736   0.654  16.516  0.2733 -0.3888  3.1272
 8255TIP3   OH246255   6.407   6.654   2.211  0.0100 -0.1534  0.3980
 8255TIP3    H146256   6.482   6.641   2.153 -0.1467  1.4368 -0.1968
 8255TIP3    H246257   6.441   6.635   2.299  0.4740 -1.7278 -0.0791
 8256TIP3   OH246258   6.218   4.083   3.237  0.4466 -0.1185  0.0803
 8256TIP3    H146259   6.264   4.001   3.219  0.9613 -0.2571  1.8467
 8256TIP3    H246260   6.136   4.056   3.279  0.4338  0.2551  0.3005
 8257TIP3   OH246261   4.138   2.759  15.047 -0.6021 -0.0285 -0.5554
 8257TIP3    H146262   4.178   2.776  14.962  0.0363 -0.3706 -0.3305
 8257TIP3    H246263   4.120   2.846  15.083  2.3114  0.2752  0.4393
 8258TIP3   OH246264   1.639   2.524  13.293  0.0887 -0.0742 -0.6869
 8258TIP3    H146265   1.555   2.566  13.314  1.2130  2.5403 -1.0483
 8258TIP3    H246266   1.642   2.521  13.198  0.4248 -0.1361 -0.6766
 8259TIP3   OH246267   1.029   0.081   3.909 -0.3050  0.1791 -0.5815
 8259TIP3    H146268   1.051   0.003   3.859  0.1539  1.2335 -2.0952
 8259TIP3    H246269   1.105   0.138   3.899 -0.8152  1.0029  0.1180
 8260TIP3   OH246270   2.816   5.917   3.244 -0.7546  0.7830  0.1951
 8260TIP3    H146271   2.804   5.836   3.194  2.9604 -0.0360  0.3214
 8260TIP3    H246272   2.808   5.987   3.179 -0.4416  0.0412 -0.6658
 8261TIP3   OH246273   5.901   3.067   3.075  0.1743  0.7639 -0.5491
 8261TIP3    H146274   5.851   3.149   3.077  1.2706  1.4299  0.4656
 8261TIP3    H246275   5.992   3.094   3.083  0.4811 -0.6068  1.0207
 8262TIP3   OH246276   1.848   3.111  14.511  0.4961  0.5606 -0.4336
 8262TIP3    H146277   1.906   3.108  14.435 -0.7651 -0.1326 -1.4096
 8262TIP3    H246278   1.766   3.070  14.480  0.3388 -0.8131  1.6261
 8263TIP3   OH246279   6.591   4.372  12.554 -0.2107 -0.3782  0.5272
 8263TIP3    H146280   6.645   4.293  12.547  0.4383 -0.0611  1.5673
 8263TIP3    H246281   6.654   4.442  12.571 -0.8046  0.3130 -0.0712
 8264TIP3   OH246282   4.203   4.828   3.809  0.1478 -0.5168 -0.5773
 8264TIP3    H146283   4.115   4.834   3.772  0.1351  0.2916 -0.4438
 8264TIP3    H246284   4.251   4.770   3.750 -0.0165  0.3417 -1.5728
 8265TIP3   OH246285   0.334   3.634   3.310  0.0137  0.3298 -0.5284
 8265TIP3    H146286   0.362   3.644   3.219  1.8394 -0.2095 -0.0823
 8265TIP3    H246287   0.269   3.565   3.309  1.6800 -1.3146 -1.1949
 8266TIP3   OH246288   0.178   2.404  16.949  0.1571  0.2531 -0.0395
 8266TIP3    H146289   0.196   2.497  16.959  0.3276  0.1467  0.7245
 8266TIP3    H246290   0.118   2.384  17.021 -0.3460 -0.1027 -0.5515
 8267TIP3   OH246291   6.139   3.232   3.341  0.0724  0.0677  0.2567
 8267TIP3    H146292   6.098   3.318   3.354  0.2514  0.1088  0.5691
 8267TIP3    H246293   6.173   3.235   3.252  0.8793  0.6676  0.5730
 8268TIP3   OH246294   4.159   2.238   4.034 -0.3009 -0.3930  0.0765
 8268TIP3    H146295   4.163   2.217   3.941 -1.3104 -1.2417  0.1983
 8268TIP3    H246296   4.250   2.236   4.064  0.3736  2.6801 -1.4312
 8269TIP3   OH246297   3.142   3.910   3.175  0.3499  0.2199 -0.7093
 8269TIP3    H146298   3.076   3.976   3.198 -0.3442 -0.8761  0.6329
 8269TIP3    H246299   3.133   3.898   3.081 -0.7871  0.7208 -0.6825
 8270TIP3   OH246300   0.539   4.966  13.242  0.3150  0.0395 -0.0504
 8270TIP3    H146301   0.490   4.987  13.322  0.7655  0.2643  0.1706
 8270TIP3    H246302   0.491   4.893  13.203  1.1173 -1.3190  1.3982
 8271TIP3   OH246303   4.101   4.201   5.761 -0.3572 -0.2920  0.5094
 8271TIP3    H146304   4.028   4.221   5.818  0.1265 -1.0916  1.4354
 8271TIP3    H246305   4.111   4.279   5.706  0.0930  1.1410  2.5147
 8272TIP3   OH246306   2.783   1.874   0.816  0.3280  0.4672  0.3716
 8272TIP3    H146307   2.714   1.938   0.830  1.5801  1.8226  0.6743
 8272TIP3    H246308   2.824   1.863   0.902  0.7998  0.0717  0.1035
 8273TIP3   OH246309   2.629   3.697  13.553  0.1402  0.0393 -0.1028
 8273TIP3    H146310   2.712   3.745  13.562  0.3402 -0.4115  0.5016
 8273TIP3    H246311   2.596   3.689  13.643 -0.5280  0.1576 -0.3337
 8274TIP3   OH246312   0.384   6.028   1.518  0.2431 -0.6245 -0.2272
 8274TIP3    H146313   0.388   5.965   1.590 -0.4303 -0.6902 -0.2380
 8274TIP3    H246314   0.468   6.019   1.474  0.9577 -0.0656  0.9790
 8275TIP3   OH246315   1.113   3.316  13.274 -0.2543 -0.2123 -0.6409
 8275TIP3    H146316   1.159   3.358  13.347  0.2971  0.8499 -1.5630
 8275TIP3    H246317   1.037   3.372  13.258 -1.5377 -1.5645  0.4005
 8276TIP3   OH246318   5.788   2.753   3.542  0.0552  0.2693 -0.0026
 8276TIP3    H146319   5.825   2.772   3.456 -0.3233  2.6369  0.2995
 8276TIP3    H246320   5.696   2.732   3.524  0.1761 -0.0740 -0.2385
 8277TIP3   OH246321   1.731   2.966   3.986  0.2268  0.1033 -0.1639
 8277TIP3    H146322   1.826   2.953   3.986  0.2094 -0.0961  0.8649
 8277TIP3    H246323   1.704   2.940   3.898  1.0764 -0.2133 -0.3442
 8278TIP3   OH246324   0.293   1.837  15.473 -0.0533  0.2073 -0.5425
 8278TIP3    H146325   0.240   1.759  15.459 -0.1607  0.4625 -1.6139
 8278TIP3    H246326   0.271   1.864  15.563  0.7350 -1.5260  0.2061
 8279TIP3   OH246327   2.731   1.564   4.812 -0.2412  0.5711  0.4598
 8279TIP3    H146328   2.658   1.607   4.766 -0.5556 -0.4032  0.0065
 8279TIP3    H246329   2.708   1.570   4.904 -0.3989  1.1615  0.3848
 8280TIP3   OH246330   3.061   3.663   2.390 -0.1807 -0.3527 -0.4008
 8280TIP3    H146331   3.054   3.745   2.341 -1.1487 -0.0872  0.1671
 8280TIP3    H246332   2.971   3.642   2.416  0.3647 -0.1027  1.8845
 8281TIP3   OH246333   0.733   1.819   3.329  0.5938  0.6940 -0.4007
 8281TIP3    H146334   0.724   1.734   3.286  1.4215  0.3320  0.1284
 8281TIP3    H246335   0.654   1.828   3.382  0.0835  0.6573 -1.1417
 8282TIP3   OH246336   0.523   3.024  10.938 -0.0679 -0.1275  0.0455
 8282TIP3    H146337   0.572   3.104  10.920 -0.9888  0.3436 -0.4224
 8282TIP3    H246338   0.529   3.013  11.032 -0.5735  0.9301  0.2169
 8283TIP3   OH246339   0.085   2.927   4.358  0.1030 -0.3598  0.1503
 8283TIP3    H146340   0.024   2.905   4.428 -1.3783 -0.3221 -1.0835
 8283TIP3    H246341   0.112   3.017   4.377 -0.8246 -0.1064  0.3061
 8284TIP3   OH246342   1.011   0.547   5.208 -0.6441  0.0706 -0.4485
 8284TIP3    H146343   0.975   0.461   5.228 -1.6560  0.0453 -2.1913
 8284TIP3    H246344   0.975   0.604   5.276 -0.1703 -0.7979  0.5674
 8285TIP3   OH246345   2.260   5.718  13.541 -0.1401  0.7536 -0.1722
 8285TIP3    H146346   2.309   5.736  13.621 -0.7781  0.7566  0.2259
 8285TIP3    H246347   2.318   5.663  13.489  0.5489  1.3046 -0.0003
 8286TIP3   OH246348   5.412   4.120  13.056 -0.2080  0.8112 -0.0976
 8286TIP3    H146349   5.483   4.096  12.996 -1.2837 -0.3578 -0.9560
 8286TIP3    H246350   5.419   4.058  13.128 -0.2780  0.8031 -0.0989
 8287TIP3   OH246351   6.330   4.862  11.667  0.4502 -0.3000 -0.2377
 8287TIP3    H146352   6.415   4.881  11.707  0.7076  1.0199 -1.3340
 8287TIP3    H246353   6.341   4.884  11.575 -1.1019 -0.0454 -0.3959
 8288TIP3   OH246354   6.656   4.511   0.917  0.6173 -0.3744 -0.0107
 8288TIP3    H146355   6.565   4.482   0.918  0.2427  0.7868  0.5245
 8288TIP3    H246356   6.701   4.450   0.976  0.0720 -0.5615  0.2142
 8289TIP3   OH246357   4.936   1.598  16.547 -0.0622 -0.0407  0.2726
 8289TIP3    H146358   4.969   1.683  16.576 -0.2403  0.0377  0.2495
 8289TIP3    H246359   4.845   1.615  16.522  0.0882 -0.1077 -0.3229
 8290TIP3   OH246360   1.215   0.421   2.482 -0.3259 -0.2035  0.2519
 8290TIP3    H146361   1.184   0.511   2.492 -0.4753 -0.2972  0.6435
 8290TIP3    H246362   1.310   0.430   2.478 -0.1855 -0.1777  2.3104
 8291TIP3   OH246363   3.087   0.133   5.238  0.3819  0.0598  0.2954
 8291TIP3    H146364   3.156   0.178   5.288  0.8168  0.8751 -0.9879
 8291TIP3    H246365   3.056   0.064   5.297 -0.1099  1.8508  2.2355
 8292TIP3   OH246366   2.107   3.817  12.598 -0.4963 -0.3697 -0.4467
 8292TIP3    H146367   2.040   3.788  12.660 -0.9799  0.0253 -0.7687
 8292TIP3    H246368   2.112   3.912  12.610 -0.5853 -0.2894 -0.9895
 8293TIP3   OH246369   0.998   6.642  16.663 -0.3818 -0.0450  0.6900
 8293TIP3    H146370   0.972   6.709  16.726 -1.4759  0.1456  0.0459
 8293TIP3    H246371   1.093   6.651  16.657  0.2689 -2.0575  4.5992
 8294TIP3   OH246372   5.959   5.545   4.011  0.2356 -0.5860 -0.0354
 8294TIP3    H146373   5.934   5.556   4.103  1.3797  0.6284  0.1599
 8294TIP3    H246374   6.051   5.518   4.015  0.8453  1.2193 -0.8338
 8295TIP3   OH246375   4.032   1.965   5.160 -0.2151 -0.1036  0.2795
 8295TIP3    H146376   3.961   1.906   5.182  0.1460 -0.2786  1.0045
 8295TIP3    H246377   4.086   1.915   5.098 -1.1990  0.3685 -0.9973
 8296TIP3   OH246378   3.187   1.188   1.312  0.1751 -0.1493 -0.1132
 8296TIP3    H146379   3.179   1.254   1.381  0.7900 -0.5518  0.3573
 8296TIP3    H246380   3.281   1.169   1.308 -0.0723 -1.6163  0.3660
 8297TIP3   OH246381   3.625   3.872   2.043  0.2616 -0.2420  0.1002
 8297TIP3    H146382   3.620   3.919   2.127  1.4014  0.8157 -0.3907
 8297TIP3    H246383   3.684   3.799   2.060 -2.2379 -2.1709  1.1215
 8298TIP3   OH246384   0.573   2.518  11.386 -0.6779  0.0724 -0.6466
 8298TIP3    H146385   0.490   2.509  11.337 -0.9883  2.1517 -0.5981
 8298TIP3    H246386   0.640   2.525  11.318 -0.9050  1.2160 -0.7747
 8299TIP3   OH246387   0.078   4.016  16.538  0.2069  0.3231 -0.5075
 8299TIP3    H146388   0.118   3.936  16.573 -0.0879  0.6461  0.5918
 8299TIP3    H246389   0.152   4.077  16.528  0.2877  0.2363 -0.4364
 8300TIP3   OH246390   6.413   0.764   0.589  0.0048  0.1379  0.0458
 8300TIP3    H146391   6.465   0.738   0.665  2.1863  2.2235 -0.6337
 8300TIP3    H246392   6.449   0.713   0.517  1.2236  1.6193 -0.4352
 8301TIP3   OH246393   4.996   6.771   1.890  0.4508 -0.1047  0.6825
 8301TIP3    H146394   5.024   6.857   1.858 -2.0605  0.6509  0.3295
 8301TIP3    H246395   4.994   6.717   1.812 -1.5743  0.5857  0.2067
 8302TIP3   OH246396   4.518   0.840  16.509  0.2187 -0.5401 -0.3453
 8302TIP3    H146397   4.605   0.820  16.474  0.6993  0.4715  0.2262
 8302TIP3    H246398   4.531   0.917  16.565 -1.2131  0.3088 -1.0952
 8303TIP3   OH246399   5.447   0.954   5.055  0.0968  0.2979 -0.1025
 8303TIP3    H146400   5.425   0.932   4.965 -0.6297  0.6171 -0.0131
 8303TIP3    H246401   5.497   1.036   5.048  2.9259 -1.3435 -0.4441
 8304TIP3   OH246402   1.859   4.138  17.076  0.2691 -0.0095 -0.3106
 8304TIP3    H146403   1.928   4.204  17.071  0.1642  0.1983  0.8158
 8304TIP3    H246404   1.810   4.148  16.994 -0.7818  2.4887  0.5400
 8305TIP3   OH246405   6.088   6.613   5.017 -0.4282  0.0567  0.3035
 8305TIP3    H146406   6.111   6.618   5.110  0.4773  0.7357  0.0647
 8305TIP3    H246407   6.173   6.607   4.973 -0.8454 -0.0464 -0.4843
 8306TIP3   OH246408   3.231   3.949  16.262 -0.7828  0.5696  0.3992
 8306TIP3    H146409   3.171   3.904  16.201  0.5543  0.3341 -0.7848
 8306TIP3    H246410   3.318   3.920  16.235 -0.0027  2.4222  0.8270
 8307TIP3   OH246411   1.168   4.245   4.569  0.0420  0.2393  0.3696
 8307TIP3    H146412   1.263   4.251   4.560  0.0884  0.7795  1.0698
 8307TIP3    H246413   1.142   4.179   4.505  0.8046  0.5963 -0.3375
 8308TIP3   OH246414   2.472   6.183   4.447 -0.0478  0.3696 -0.2086
 8308TIP3    H146415   2.568   6.182   4.450 -0.0240  2.0882  0.3213
 8308TIP3    H246416   2.446   6.122   4.516  0.5843 -2.9191 -2.6112
 8309TIP3   OH246417   0.453   4.530   4.465  0.2579 -0.0292  0.0224
 8309TIP3    H146418   0.488   4.615   4.492 -0.1910  0.0508  0.3571
 8309TIP3    H246419   0.400   4.501   4.540 -0.8497  0.1095 -0.6935
 8310TIP3   OH246420   4.412   4.023   4.399  0.5909 -0.5126 -0.0352
 8310TIP3    H146421   4.368   3.981   4.326 -0.6962 -0.2972  0.5927
 8310TIP3    H246422   4.457   3.952   4.444  0.7807 -0.7594 -0.6045
 8311TIP3   OH246423   4.964   3.298  11.485  0.3489 -0.0290  0.1433
 8311TIP3    H146424   4.955   3.225  11.423 -1.8444 -0.4758  0.9095
 8311TIP3    H246425   4.927   3.373  11.438 -0.4289 -0.1508  0.5647
 8312TIP3   OH246426   4.306   5.944  11.157 -0.3826  1.0130  0.8359
 8312TIP3    H146427   4.262   6.026  11.131 -1.6122  0.1787  0.1425
 8312TIP3    H246428   4.347   5.964  11.241 -3.7507  1.3763  2.5913
 8313TIP3   OH246429   3.759   6.315   2.075 -0.4131  0.8952  0.0998
 8313TIP3    H146430   3.672   6.348   2.097  0.4596  2.9360  0.7473
 8313TIP3    H246431   3.817   6.358   2.138  1.0230 -0.7752 -0.0142
 8314TIP3   OH246432   2.714   0.831  15.744  0.3699  0.3082  0.7361
 8314TIP3    H146433   2.626   0.832  15.709  0.4190  0.2046  0.6134
 8314TIP3    H246434   2.749   0.918  15.722  0.1518  0.5088  1.1572
 8315TIP3   OH246435   6.228   1.208   4.065 -0.0524 -0.4070 -0.3242
 8315TIP3    H146436   6.153   1.196   4.122  0.7326 -0.0742  0.8187
 8315TIP3    H246437   6.200   1.275   4.002 -0.4707  0.2581  0.5464
 8316TIP3   OH246438   1.503   0.691  12.095  0.2096 -0.1733  0.0219
 8316TIP3    H146439   1.528   0.610  12.051 -1.7221 -1.0082  0.3441
 8316TIP3    H246440   1.433   0.728  12.040  0.7502  1.0530  0.1165
 8317TIP3   OH246441   3.825   0.689  13.113  0.1778 -0.1625  0.2117
 8317TIP3    H146442   3.742   0.659  13.077  0.0890 -0.3204  0.5533
 8317TIP3    H246443   3.889   0.624  13.083  0.1437 -0.1632  0.1393
 8318TIP3   OH246444   1.934   6.828   6.446  0.1595 -0.1775  0.5268
 8318TIP3    H146445   1.985   6.884   6.505 -1.6067  0.1692  1.7780
 8318TIP3    H246446   1.860   6.882   6.419 -3.3584 -2.6711  4.1996
 8319TIP3   OH246447   6.740   0.946   3.845  0.1902  0.1444  0.5719
 8319TIP3    H146448   6.716   1.035   3.872 -1.5393  0.2382 -1.0888
 8319TIP3    H246449   6.835   0.942   3.859  0.4269  2.4895  0.1068
 8320TIP3   OH246450   6.405   6.137  16.675  0.5409  0.4931  0.0360
 8320TIP3    H146451   6.352   6.068  16.634 -1.4284  0.5504  2.2863
 8320TIP3    H246452   6.449   6.094  16.748  0.2317  1.3585  0.7501
 8321TIP3   OH246453   4.509   6.813  11.505 -0.7832  0.2292 -0.3360
 8321TIP3    H146454   4.543   6.837  11.419 -1.4263  0.6611 -0.4768
 8321TIP3    H246455   4.527   6.888  11.561 -0.0818 -0.1782 -0.0100
 8322TIP3   OH246456   6.394   0.160   0.145  0.3813  0.4076  0.2877
 8322TIP3    H146457   6.395   0.122   0.056 -0.6868  0.6671  0.1491
 8322TIP3    H246458   6.359   0.090   0.200 -0.1497  0.6677  0.2868
 8323TIP3   OH246459   4.452   6.320  12.486  0.1053  0.2389  0.2355
 8323TIP3    H146460   4.418   6.348  12.571  0.4893  0.5425  0.2907
 8323TIP3    H246461   4.541   6.288  12.505  0.4318  0.9088 -0.1488
 8324TIP3   OH246462   3.215   4.527  12.848  0.0447  0.1568 -0.1983
 8324TIP3    H146463   3.192   4.617  12.824  1.0896  0.1532 -1.3419
 8324TIP3    H246464   3.150   4.473  12.804 -0.4576  0.3346  0.3151
 8325TIP3   OH246465   5.610   1.179   5.028  0.0176 -0.1221 -0.5614
 8325TIP3    H146466   5.663   1.218   4.958 -0.4984  1.3097 -0.1716
 8325TIP3    H246467   5.551   1.248   5.055  0.2118 -0.6470  1.3220
 8326TIP3   OH246468   6.089   1.606  15.883 -0.4910 -0.3693 -0.3097
 8326TIP3    H146469   6.082   1.547  15.958 -1.4449  0.8642  0.6242
 8326TIP3    H246470   6.131   1.684  15.919 -2.5285  0.9381 -0.5669
 8327TIP3   OH246471   0.240   6.414  11.665  0.1783 -0.0156  0.1353
 8327TIP3    H146472   0.220   6.389  11.575 -0.5429 -0.1997  0.3362
 8327TIP3    H246473   0.276   6.335  11.704 -0.4997 -0.2530  0.2954
 8328TIP3   OH246474   0.212   4.655  15.755  0.5736 -0.2409 -0.8038
 8328TIP3    H146475   0.150   4.711  15.802  2.0300  1.9992 -1.3499
 8328TIP3    H246476   0.177   4.567  15.764 -2.2357  0.8072 -0.4379
 8329TIP3   OH246477   4.471   2.021  13.908  0.1723 -0.5859 -0.3711
 8329TIP3    H146478   4.442   2.097  13.958 -3.4137 -1.8796 -0.2121
 8329TIP3    H246479   4.525   1.971  13.970 -0.6692 -0.0946  0.7956
 8330TIP3   OH246480   5.160   0.756  12.522 -0.7133 -0.1593 -0.8472
 8330TIP3    H146481   5.200   0.839  12.496 -0.5457 -0.1344 -0.5143
 8330TIP3    H246482   5.066   0.774  12.520 -0.7270 -0.2860 -1.8569
 8331TIP3   OH246483   3.396   6.509  12.431  0.1558  0.2144  0.3863
 8331TIP3    H146484   3.356   6.596  12.438 -0.8778 -0.1910 -0.3226
 8331TIP3    H246485   3.344   6.454  12.490 -0.5074 -0.3626 -0.6983
 8332TIP3   OH246486   1.695   6.137   0.890  0.4171  0.1246 -0.4194
 8332TIP3    H146487   1.769   6.082   0.864  0.3313  0.1982 -0.8340
 8332TIP3    H246488   1.668   6.180   0.809  0.1209  0.3403 -0.2085
 8333TIP3   OH246489   6.056   5.449   3.323 -0.2608  0.3779 -0.5436
 8333TIP3    H146490   6.045   5.415   3.234 -1.2422 -0.1969 -0.2268
 8333TIP3    H246491   6.010   5.533   3.322 -1.8006 -0.4138 -0.1563
 8334TIP3   OH246492   2.727   6.211   2.443  0.2209  0.2170 -0.0463
 8334TIP3    H146493   2.757   6.292   2.401  1.7595  1.2314  2.6917
 8334TIP3    H246494   2.762   6.141   2.387 -0.2891  1.3975 -1.9459
 8335TIP3   OH246495   5.689   3.731  14.040 -0.3248  0.6111  0.5055
 8335TIP3    H146496   5.636   3.680  14.101 -0.6726 -0.0392 -0.3233
 8335TIP3    H246497   5.626   3.767  13.978  0.2383 -1.0659 -1.1505
 8336TIP3   OH246498   0.310   3.304   0.507  0.4160 -0.3924  0.3030
 8336TIP3    H146499   0.230   3.253   0.498  0.4960 -0.6892  1.1352
 8336TIP3    H246500   0.381   3.242   0.491  0.4932 -0.3383  0.4298
 8337TIP3   OH246501   3.325   5.596   0.834  0.2045  0.0524  0.2523
 8337TIP3    H146502   3.398   5.655   0.816  0.4432 -0.5547 -0.8436
 8337TIP3    H246503   3.366   5.513   0.855 -0.1316  0.2570  1.8374
 8338TIP3   OH246504   4.452   4.824   5.936  0.2033  0.0198 -0.1775
 8338TIP3    H146505   4.424   4.733   5.923  1.7566 -0.6106  0.5715
 8338TIP3    H246506   4.374   4.870   5.966 -0.4319 -1.2433  0.1650
 8339TIP3   OH246507   1.723   6.275   1.847  0.6037 -0.0705 -0.3928
 8339TIP3    H146508   1.811   6.254   1.815  0.0454  0.1595 -2.1831
 8339TIP3    H246509   1.696   6.198   1.896  0.8648 -1.1936 -1.9313
 8340TIP3   OH246510   6.262   1.025   1.135  0.3800 -0.4216 -0.5648
 8340TIP3    H146511   6.329   0.958   1.142  0.1231 -0.5979  0.3786
 8340TIP3    H246512   6.189   0.982   1.091 -0.3330 -1.2251  1.3215
 8341TIP3   OH246513   2.894   3.520  14.433  0.1000  0.2579 -0.5674
 8341TIP3    H146514   2.838   3.481  14.501  0.2365  0.4208 -0.3647
 8341TIP3    H246515   2.833   3.571  14.379  0.1163  0.7598 -0.1115
 8342TIP3   OH246516   4.289   0.452   6.162 -0.4450 -0.5322 -0.4087
 8342TIP3    H146517   4.231   0.382   6.193  2.2848 -1.6296  2.9095
 8342TIP3    H246518   4.256   0.531   6.204 -0.1060 -1.0107  0.8205
 8343TIP3   OH246519   2.827   1.984   2.539  0.3924 -0.3996  0.8948
 8343TIP3    H146520   2.876   1.976   2.621  2.0491 -0.6506 -0.0690
 8343TIP3    H246521   2.886   2.033   2.481 -0.6973 -0.3327 -0.1938
 8344TIP3   OH246522   5.881   5.483  14.895 -0.1738  0.2993  0.1911
 8344TIP3    H146523   5.787   5.502  14.899 -0.2783 -0.2389  0.3307
 8344TIP3    H246524   5.923   5.569  14.898 -0.6884  0.5989 -0.7973
 8345TIP3   OH246525   3.581   1.801   2.956 -0.2512 -0.4168  1.0647
 8345TIP3    H146526   3.639   1.796   3.031 -1.5192 -1.8032  2.0133
 8345TIP3    H246527   3.625   1.750   2.888  1.1243  1.2370  0.6644
 8346TIP3   OH246528   4.566   4.979   3.713  0.3715 -0.1438 -0.1108
 8346TIP3    H146529   4.495   4.931   3.757 -1.3693  1.4550 -1.0550
 8346TIP3    H246530   4.629   4.997   3.783 -0.8746 -0.2927  1.1055
 8347TIP3   OH246531   4.248   5.520   2.573 -0.2013 -0.1938  0.2825
 8347TIP3    H146532   4.315   5.452   2.586  0.1843  0.0337 -0.4173
 8347TIP3    H246533   4.165   5.473   2.570 -0.0435 -0.5142  0.8694
 8348TIP3   OH246534   1.068   0.739   2.467  0.0556  0.2216  0.0991
 8348TIP3    H146535   1.057   0.754   2.373 -0.1338  1.2849  0.2797
 8348TIP3    H246536   1.160   0.756   2.483 -0.2209  1.5385  0.3563
 8349TIP3   OH246537   3.323   6.363   4.799 -0.3671  0.2493 -0.5820
 8349TIP3    H146538   3.329   6.273   4.767 -1.6691  0.4304 -1.4232
 8349TIP3    H246539   3.374   6.363   4.880 -1.8552 -1.7099  0.4356
 8350TIP3   OH246540   2.085   0.919  11.249  0.5877 -0.1565 -0.1399
 8350TIP3    H146541   2.143   0.892  11.178  0.8126 -1.3839  0.4839
 8350TIP3    H246542   2.139   0.916  11.328 -0.0188 -0.1746  0.2870
 8351TIP3   OH246543   3.424   5.338  15.878 -0.1804  0.2706 -0.0926
 8351TIP3    H146544   3.384   5.274  15.819  1.0635 -1.2599  0.6463
 8351TIP3    H246545   3.395   5.423  15.844 -2.6854 -0.6692 -0.5305
 8352TIP3   OH246546   6.338   6.514  15.995 -0.5361 -0.0619 -0.5328
 8352TIP3    H146547   6.257   6.561  15.975 -1.9994 -1.0064  2.6192
 8352TIP3    H246548   6.384   6.570  16.057  1.2255  0.3423 -2.0889
 8353TIP3   OH246549   5.112   3.975   2.648 -0.4484  0.4630 -0.1109
 8353TIP3    H146550   5.158   3.940   2.572 -0.2667  0.5366 -0.0364
 8353TIP3    H246551   5.163   3.945   2.723 -1.6653 -1.1914  0.1020
 8354TIP3   OH246552   5.270   0.764  11.675 -0.1011  0.6046 -0.0291
 8354TIP3    H146553   5.224   0.800  11.751 -0.4258  0.3233 -0.0919
 8354TIP3    H246554   5.244   0.673  11.672  2.1908 -0.1798  1.2663
 8355TIP3   OH246555   1.121   6.115  13.299  0.0709 -0.0492  0.2811
 8355TIP3    H146556   1.113   6.191  13.357  0.7503  1.7259 -1.7797
 8355TIP3    H246557   1.065   6.137  13.224  0.8515 -1.2445 -0.6853
 8356TIP3   OH246558   1.235   2.921  16.160  0.1778 -0.5878 -0.5660
 8356TIP3    H146559   1.158   2.884  16.202 -0.0884  0.7087  0.1359
 8356TIP3    H246560   1.282   2.845  16.125 -0.5426 -1.5384  0.4670
 8357TIP3   OH246561   0.588   3.005   0.882 -0.4746 -0.3228  0.1015
 8357TIP3    H146562   0.549   2.970   0.802 -0.2764  0.8879 -0.5498
 8357TIP3    H246563   0.613   3.095   0.859 -1.5484  0.4808  1.8761
 8358TIP3   OH246564   3.049   1.472  15.287  0.3891  0.3269 -0.4895
 8358TIP3    H146565   3.002   1.555  15.297  1.0607  0.6061  0.5415
 8358TIP3    H246566   3.139   1.498  15.267  0.6249 -0.1385 -0.0583
 8359TIP3   OH246567   3.258   4.078   2.242  0.4472  0.0329 -0.5119
 8359TIP3    H146568   3.210   3.995   2.239  0.1066  0.2241 -0.3020
 8359TIP3    H246569   3.191   4.145   2.232  0.8698  0.2583 -2.0750
 8360TIP3   OH246570   5.239   5.090  12.862 -0.2790  0.3500  0.5140
 8360TIP3    H146571   5.210   5.002  12.841  1.1908 -0.4942  1.8209
 8360TIP3    H246572   5.287   5.118  12.784 -1.4117  0.3384 -0.2105
 8361TIP3   OH246573   4.926   4.006   5.834  0.2288  0.0766 -0.1015
 8361TIP3    H146574   4.969   3.922   5.849  2.7077  1.3518  0.4467
 8361TIP3    H246575   4.889   4.031   5.919 -2.8285 -1.5243 -0.7992
 8362TIP3   OH246576   0.857   5.037  13.534 -0.2633 -0.3892  0.5122
 8362TIP3    H146577   0.877   5.017  13.625 -1.6440 -1.4208  0.6179
 8362TIP3    H246578   0.777   5.089  13.537  0.6941  1.2065 -0.0499
 8363TIP3   OH246579   3.594   3.620   1.441  0.0149  0.2792  0.1522
 8363TIP3    H146580   3.505   3.657   1.442 -0.4954 -0.8327  2.2858
 8363TIP3    H246581   3.645   3.678   1.497  0.5697  0.6613 -0.7155
 8364TIP3   OH246582   0.027   0.956   4.192  0.5264  0.2812  0.0469
 8364TIP3    H146583  -0.039   0.887   4.200  0.9948 -0.4511 -1.7448
 8364TIP3    H246584  -0.001   1.024   4.253 -2.0665  0.1471 -0.8777
 8365TIP3   OH246585   2.598   3.040  13.287 -0.6073 -0.3371  0.1170
 8365TIP3    H146586   2.536   2.992  13.233  1.5586 -1.0053 -1.9327
 8365TIP3    H246587   2.675   2.984  13.292  0.1530  0.7510  1.9808
 8366TIP3   OH246588   4.571   1.245   4.809  0.0966  0.2418  0.5256
 8366TIP3    H146589   4.594   1.295   4.887  3.2102  1.6006 -1.0789
 8366TIP3    H246590   4.488   1.281   4.780  1.3433  3.3602  0.4514
 8367TIP3   OH246591   1.559   2.856   4.208  0.1547  0.2867  0.4054
 8367TIP3    H146592   1.583   2.908   4.284 -0.5986  3.2458 -1.2207
 8367TIP3    H246593   1.624   2.879   4.142 -0.3270 -0.6930 -0.4444
 8368TIP3   OH246594   5.303   4.886   5.454 -0.3035 -0.6077  0.4799
 8368TIP3    H146595   5.250   4.916   5.380 -1.3257 -2.3448  0.4332
 8368TIP3    H246596   5.242   4.883   5.528  0.5690  0.5628  1.2919
 8369TIP3   OH246597   1.221   3.412  15.095  0.4737  0.4539  0.3489
 8369TIP3    H146598   1.211   3.428  15.001  0.3812 -0.2489  0.2345
 8369TIP3    H246599   1.287   3.343  15.100  0.5428  0.5534  0.8050
 8370TIP3   OH246600   3.003   6.484  10.727 -0.0153  0.5209 -0.0476
 8370TIP3    H146601   3.012   6.421  10.656  0.6757 -1.3068  1.5621
 8370TIP3    H246602   2.908   6.495  10.737 -0.2892 -2.0998  1.0845
 8371TIP3   OH246603   3.214   4.411  13.793 -0.3063 -0.0313  0.2315
 8371TIP3    H146604   3.255   4.333  13.756 -0.9454  0.0448 -0.6888
 8371TIP3    H246605   3.265   4.431  13.871 -0.0915 -1.3213  0.4373
 8372TIP3   OH246606   4.468   1.916   0.083 -0.5662 -1.0844  0.2858
 8372TIP3    H146607   4.401   1.969   0.126  1.4085 -0.3165  2.5961
 8372TIP3    H246608   4.468   1.834   0.132  0.2292 -1.0474  0.3469
 8373TIP3   OH246609   5.708   0.237  13.021  0.4584 -0.3239  0.2166
 8373TIP3    H146610   5.779   0.275  13.074  1.2032  0.3439 -1.2086
 8373TIP3    H246611   5.742   0.153  12.991  1.2300  0.5599 -1.5414
 8374TIP3   OH246612   4.002   0.846   2.851  0.3693  0.3002  0.1161
 8374TIP3    H146613   4.094   0.829   2.830  0.6779 -0.0548  1.5949
 8374TIP3    H246614   3.958   0.764   2.832  0.0592  0.9100 -1.9900
 8375TIP3   OH246615   6.366   4.014   5.450 -0.0986  0.2044 -0.1172
 8375TIP3    H146616   6.315   3.992   5.528  0.4334 -0.4089  0.0684
 8375TIP3    H246617   6.451   4.042   5.484 -0.2189  0.9759 -0.4337
 8376TIP3   OH246618   4.221   5.608   1.333  0.1956  0.1224 -0.2217
 8376TIP3    H146619   4.140   5.609   1.385 -0.0925  0.9465 -0.6667
 8376TIP3    H246620   4.195   5.570   1.249  0.4228 -0.2229 -0.1376
 8377TIP3   OH246621   3.256   6.022   4.264  0.4676 -0.0730  0.7121
 8377TIP3    H146622   3.330   5.962   4.274  1.3613  0.6649 -1.0773
 8377TIP3    H246623   3.295   6.106   4.242 -0.8896  0.1680 -1.0007
 8378TIP3   OH246624   4.211   4.631   2.743  0.2047  0.6672  0.3274
 8378TIP3    H146625   4.119   4.617   2.764 -0.2232  1.4342 -0.9198
 8378TIP3    H246626   4.248   4.543   2.737 -0.9187  0.2399 -1.0960
 8379TIP3   OH246627   5.271   6.285   2.019  0.3877  0.3583 -0.3808
 8379TIP3    H146628   5.197   6.327   2.065  0.6565  0.1550  0.2441
 8379TIP3    H246629   5.349   6.328   2.055  0.5364  1.6641 -2.1429
 8380TIP3   OH246630   3.936   2.114   6.116  0.3380 -0.1042 -0.2344
 8380TIP3    H146631   3.971   2.059   6.186  1.8380 -0.0374 -0.8964
 8380TIP3    H246632   3.887   2.182   6.161 -1.3548 -1.7886  0.6270
 8381TIP3   OH246633   4.089   0.712   6.115 -0.2687 -0.2914 -0.5322
 8381TIP3    H146634   4.148   0.714   6.191 -1.8136 -0.1803  0.7291
 8381TIP3    H246635   4.113   0.789   6.064 -1.6817  1.9261  1.8983
 8382TIP3   OH246636   0.200   2.998  13.063 -0.0800 -0.1753 -0.7142
 8382TIP3    H146637   0.134   3.055  13.025 -0.8178 -1.2686 -1.1470
 8382TIP3    H246638   0.189   3.006  13.157  0.4715  1.1044 -0.7451
 8383TIP3   OH246639   5.978   5.223   1.464  0.2838 -0.6004 -0.2163
 8383TIP3    H146640   6.065   5.183   1.467  0.8579  0.4991 -1.3493
 8383TIP3    H246641   5.995   5.316   1.453 -1.0402 -0.1542  1.2086
 8384TIP3   OH246642   5.596   1.636   4.427  0.0417 -0.4268  0.1348
 8384TIP3    H146643   5.628   1.546   4.432  1.5290 -0.0855 -1.6711
 8384TIP3    H246644   5.594   1.655   4.333 -1.2948  1.0760  0.4225
 8385TIP3   OH246645   1.543   6.276   4.143  0.2448  0.1840  0.2697
 8385TIP3    H146646   1.530   6.253   4.235 -1.0368  1.1446  0.3588
 8385TIP3    H246647   1.495   6.209   4.095  0.6410 -0.1319  0.3135
 8386TIP3   OH246648   2.690   0.253  13.391  0.3276 -0.1055 -0.0153
 8386TIP3    H146649   2.675   0.331  13.444 -0.2510 -0.2517  0.0502
 8386TIP3    H246650   2.620   0.255  13.325 -1.7428 -2.1857  1.9120
 8387TIP3   OH246651   4.101   2.471  13.441 -0.2462  0.3050  0.1494
 8387TIP3    H146652   4.052   2.492  13.520  0.5292  0.0967  0.6961
 8387TIP3    H246653   4.079   2.542  13.380 -0.6581  0.6033  0.6325
 8388TIP3   OH246654   3.318   3.985   0.347  0.1614  0.6320 -0.0937
 8388TIP3    H146655   3.248   3.924   0.322 -0.1415  0.5475  0.9318
 8388TIP3    H246656   3.277   4.047   0.406  0.8947  0.7504  0.3046
 8389TIP3   OH246657   3.856   0.509   2.670 -0.5268  0.1828  0.3236
 8389TIP3    H146658   3.802   0.566   2.724  0.9456  0.7944  1.2220
 8389TIP3    H246659   3.945   0.523   2.702  0.0791 -1.3908 -0.5530
 8390TIP3   OH246660   3.114   5.335   1.072 -0.2806  0.3830  0.0351
 8390TIP3    H146661   3.056   5.386   1.016 -0.1165 -0.2059 -0.7046
 8390TIP3    H246662   3.094   5.363   1.161  0.6483  2.6331 -0.3838
 8391TIP3   OH246663   1.039   1.866   3.893 -0.0261  0.4063 -0.2859
 8391TIP3    H146664   1.044   1.845   3.800  0.2583 -2.0780  0.2198
 8391TIP3    H246665   1.129   1.880   3.920 -0.1216  1.2855 -0.3946
 8392TIP3   OH246666   1.566   6.764   2.395 -0.6605  0.2537  0.1864
 8392TIP3    H146667   1.593   6.851   2.426  0.3915 -0.7706  2.2770
 8392TIP3    H246668   1.483   6.780   2.350  0.0119  2.4822 -0.4014
 8393TIP3   OH246669   4.735   0.978  14.361  0.3885  0.4340 -0.2436
 8393TIP3    H146670   4.679   0.959  14.286  0.3768  2.1817 -0.7192
 8393TIP3    H246671   4.698   0.926  14.432  0.4027 -1.2647 -1.4134
 8394TIP3   OH246672   3.484   4.053   5.550  0.0772  0.1496 -0.1031
 8394TIP3    H146673   3.563   4.108   5.548  1.0723 -1.0801  2.0224
 8394TIP3    H246674   3.420   4.102   5.499  1.6907  2.0427 -0.4463
 8395TIP3   OH246675   2.025   5.381  13.996  0.2002 -0.4587  0.3552
 8395TIP3    H146676   1.971   5.453  13.962  1.7932  0.6853  0.1498
 8395TIP3    H246677   1.964   5.326  14.044 -1.2512  0.4737 -0.3511
 8396TIP3   OH246678   4.634   5.459  15.690  0.4699 -0.1506  0.6872
 8396TIP3    H146679   4.555   5.407  15.705  0.3991 -0.0191  0.7717
 8396TIP3    H246680   4.688   5.443  15.767 -1.6408  3.7780  3.2983
 8397TIP3   OH246681   2.869   6.358  11.804 -0.0089  0.5772  0.0654
 8397TIP3    H146682   2.860   6.452  11.823  0.0683  0.6222 -0.1220
 8397TIP3    H246683   2.899   6.320  11.886  2.3144  1.0654 -0.4751
 8398TIP3   OH246684   0.168   6.133  12.978 -0.8411  0.1640 -0.1486
 8398TIP3    H146685   0.144   6.175  12.895  0.5212  0.5897 -0.3409
 8398TIP3    H246686   0.097   6.156  13.038 -0.7689  1.6630 -0.6109
 8399TIP3   OH246687   4.358   2.942   5.136  0.0861  0.4741  0.1388
 8399TIP3    H146688   4.402   2.892   5.068 -1.3318 -0.6571  0.0008
 8399TIP3    H246689   4.284   2.984   5.092 -0.7726 -0.1652  0.9129
 8400TIP3   OH246690   4.440   2.820  16.811 -0.4182  0.5933 -0.8023
 8400TIP3    H146691   4.516   2.871  16.840  1.1188 -1.1381 -1.5845
 8400TIP3    H246692   4.380   2.823  16.885  1.6720 -0.3851  1.0309
 8401TIP3   OH246693   4.729   5.976   6.475 -0.0468  0.2348  0.1642
 8401TIP3    H146694   4.683   6.000   6.394  0.4603 -1.2575 -0.6144
 8401TIP3    H246695   4.661   5.933   6.528 -0.8246  2.7460  1.3420
 8402TIP3   OH246696   1.135   1.882  16.143 -0.2578 -0.0114 -0.5663
 8402TIP3    H146697   1.044   1.881  16.113  0.1641 -2.9679 -2.1509
 8402TIP3    H246698   1.176   1.955  16.096 -1.6490  0.9844 -0.2793
 8403TIP3   OH246699   4.720   5.859   5.748  0.0140 -0.0329  0.5506
 8403TIP3    H146700   4.748   5.819   5.831 -1.6138 -1.1449  0.6052
 8403TIP3    H246701   4.685   5.786   5.697  1.4892  0.5487 -1.3803
 8404TIP3   OH246702   1.349   5.997   2.176  0.0761 -0.7020 -0.4309
 8404TIP3    H146703   1.333   6.065   2.111  1.0090  0.7652  0.8283
 8404TIP3    H246704   1.421   5.945   2.139  0.0283 -0.4115 -0.9458
 8405TIP3   OH246705   5.741   6.367  15.118  0.5071 -0.1004 -0.2162
 8405TIP3    H146706   5.832   6.371  15.089  0.6183  1.7832  0.2348
 8405TIP3    H246707   5.745   6.345  15.211  0.5785  0.7232 -0.0109
 8406TIP3   OH246708   4.619   6.150  13.395  0.1032  0.2015  0.3351
 8406TIP3    H146709   4.657   6.078  13.445 -0.5114 -0.0438  0.4581
 8406TIP3    H246710   4.650   6.137  13.306  1.7531  1.0149  0.7556
 8407TIP3   OH246711   2.404   4.208   0.109 -0.5903 -0.5201 -0.1230
 8407TIP3    H146712   2.446   4.225   0.025  0.2490  0.3546  0.4555
 8407TIP3    H246713   2.463   4.147   0.153 -0.8801 -0.7496 -0.0530
 8408TIP3   OH246714   4.894   1.535  16.968  0.3013 -0.1467  0.2292
 8408TIP3    H146715   4.839   1.499  16.898  0.8343 -1.0356  0.2441
 8408TIP3    H246716   4.832   1.567  17.033 -0.2015  0.4776 -0.5288
 8409TIP3   OH246717   6.490   1.562   0.617  0.9183 -0.1489 -0.1506
 8409TIP3    H146718   6.537   1.572   0.534  1.8429 -2.0055  0.1001
 8409TIP3    H246719   6.431   1.488   0.602  0.9384 -0.3581  0.7737
 8410TIP3   OH246720   5.800   5.200  17.111 -0.3118 -0.7715 -0.3978
 8410TIP3    H146721   5.852   5.279  17.128 -3.2886  0.9397  1.6669
 8410TIP3    H246722   5.863   5.128  17.118  2.0198  1.2072  0.4722
 8411TIP3   OH246723   0.282   6.209  14.996 -0.0510 -0.5398  0.3688
 8411TIP3    H146724   0.300   6.211  14.902  0.0701 -1.0417  0.3787
 8411TIP3    H246725   0.365   6.233  15.037 -0.0418 -0.5475  0.3553
 8412TIP3   OH246726   5.524   3.331   4.373  0.5236  0.2289 -0.1333
 8412TIP3    H146727   5.479   3.250   4.347 -1.0451  1.2162 -0.6616
 8412TIP3    H246728   5.610   3.325   4.331  0.1518 -0.8225 -0.7989
 8413TIP3   OH246729   1.950   1.118   0.444 -0.2260 -0.7416  0.1186
 8413TIP3    H146730   1.935   1.042   0.500 -1.7503 -0.0375  0.6987
 8413TIP3    H246731   1.872   1.171   0.453  0.7932  0.8976 -0.3047
 8414TIP3   OH246732   5.631   3.947   5.556 -0.3273  0.0762 -0.0456
 8414TIP3    H146733   5.589   3.993   5.629 -1.2635 -0.2016 -0.3993
 8414TIP3    H246734   5.635   3.856   5.585  1.1054  0.2791  0.4626
 8415TIP3   OH246735   3.902   3.133   2.385  0.7648  0.6368 -0.2248
 8415TIP3    H146736   3.905   3.146   2.480  0.8026 -0.2958 -0.0928
 8415TIP3    H246737   3.833   3.193   2.356 -0.4581 -0.3111  0.6168
 8416TIP3   OH246738   6.349   5.887  11.981 -0.4582 -0.0876 -0.3589
 8416TIP3    H146739   6.414   5.884  11.911 -1.3071 -3.2291 -1.1332
 8416TIP3    H246740   6.269   5.852  11.943 -1.8344  0.9691  1.3773
 8417TIP3   OH246741   2.665   1.936  12.180  0.1228  0.1672  0.3431
 8417TIP3    H146742   2.626   2.002  12.122 -1.6739 -0.0210  1.2871
 8417TIP3    H246743   2.605   1.930  12.254  0.1311 -2.6616  0.2121
 8418TIP3   OH246744   5.788   1.975  11.760 -0.4413 -0.7755 -0.0359
 8418TIP3    H146745   5.844   2.017  11.826 -0.9933  0.3414 -0.2668
 8418TIP3    H246746   5.769   1.889  11.798 -2.1978  0.4685  2.1519
 8419TIP3   OH246747   6.039   0.360   0.381  0.5948  0.4461  0.2330
 8419TIP3    H146748   6.011   0.306   0.455 -0.2168  0.1799 -0.2548
 8419TIP3    H246749   6.080   0.299   0.320  0.2068  0.4660 -0.0550
 8420TIP3   OH246750   2.099   0.668  17.002  0.3277 -0.4765  0.7038
 8420TIP3    H146751   2.148   0.642  16.924  0.3351  0.3442  0.4174
 8420TIP3    H246752   2.134   0.614  17.072  1.1320 -0.4164  0.3598
 8421TIP3   OH246753   4.804   5.448  11.366 -0.2753  0.0213  0.2938
 8421TIP3    H146754   4.739   5.497  11.416 -0.9945 -0.2979 -0.3191
 8421TIP3    H246755   4.754   5.383  11.318  0.4285  0.2291 -0.7452
 8422TIP3   OH246756   4.416   3.491   1.009  0.3324 -0.4865 -0.0532
 8422TIP3    H146757   4.365   3.494   0.928  1.0453 -0.4202 -0.5121
 8422TIP3    H246758   4.375   3.555   1.066  0.9282  0.8298 -1.0484
 8423TIP3   OH246759   3.147   1.983   2.933 -0.0749 -0.2421 -0.0682
 8423TIP3    H146760   3.239   1.982   2.957 -0.6182 -1.1435  2.2980
 8423TIP3    H246761   3.132   1.897   2.892  0.2539  0.1790 -1.1024
 8424TIP3   OH246762   2.146   4.595   2.938  0.5956 -0.4556  0.3380
 8424TIP3    H146763   2.093   4.570   2.863  0.7882 -2.9364  0.9454
 8424TIP3    H246764   2.200   4.667   2.907 -0.4005 -0.4303 -1.4327
 8425TIP3   OH246765   4.670   1.478  15.251 -0.5907 -0.0049  0.0600
 8425TIP3    H146766   4.761   1.507  15.243  0.1160 -2.0123  0.1931
 8425TIP3    H246767   4.652   1.479  15.345 -0.9679  1.0899 -0.0151
 8426TIP3   OH246768   1.636   5.535  13.710 -0.1832  0.0124 -0.3496
 8426TIP3    H146769   1.686   5.590  13.771 -2.1211  0.5984  0.7866
 8426TIP3    H246770   1.667   5.446  13.727 -0.5656  0.1861  1.4308
 8427TIP3   OH246771   5.061   6.242  12.496 -0.4168  0.6215 -0.0860
 8427TIP3    H146772   5.085   6.168  12.440 -0.1022  1.2745 -0.8287
 8427TIP3    H246773   5.141   6.294  12.502 -0.2841  0.2673  1.4495
 8428TIP3   OH246774   2.243   6.355  12.010 -0.8889 -0.0617  0.0912
 8428TIP3    H146775   2.334   6.351  11.981 -0.3397  0.6466  1.5902
 8428TIP3    H246776   2.206   6.271  11.986  0.1049 -0.2906 -0.7123
 8429TIP3   OH246777   2.639   3.922  15.205 -0.1910 -0.4918  0.0381
 8429TIP3    H146778   2.657   3.981  15.278 -1.2631  1.4380 -1.1483
 8429TIP3    H246779   2.720   3.922  15.153 -0.2651  0.1968 -0.0919
 8430TIP3   OH246780   3.003   1.163  14.317  0.0560  0.2420 -0.0702
 8430TIP3    H146781   3.039   1.164  14.228  1.1681  0.1862  0.3718
 8430TIP3    H246782   3.007   1.255  14.345 -0.0503  0.2173  0.0271
 8431TIP3   OH246783   2.511   5.112   3.261  0.2433 -0.0349  0.1124
 8431TIP3    H146784   2.532   5.201   3.288 -2.7602 -0.1107  3.3843
 8431TIP3    H246785   2.419   5.115   3.235  0.2946 -2.0310 -0.4962
 8432TIP3   OH246786   4.870   0.122  11.905  0.0688  0.0511  0.1207
 8432TIP3    H146787   4.853   0.166  11.988  1.0544 -0.1566  0.4459
 8432TIP3    H246788   4.964   0.130  11.892 -0.0492 -0.0374 -0.9192
 8433TIP3   OH246789   2.113   4.400  12.961  0.9472 -0.2966 -0.0949
 8433TIP3    H146790   2.036   4.387  12.906  0.9593 -3.0163  0.3701
 8433TIP3    H246791   2.083   4.381  13.050  1.6363  0.9457  0.4239
 8434TIP3   OH246792   2.367   4.732   2.840  0.1250  0.0700 -0.4862
 8434TIP3    H146793   2.417   4.813   2.839  0.5355 -0.1409  0.8841
 8434TIP3    H246794   2.431   4.664   2.864 -0.7899 -0.1809  1.4799
 8435TIP3   OH246795   0.261   3.941   4.425  0.1816 -0.2707 -0.1149
 8435TIP3    H146796   0.230   3.963   4.514  0.9478 -2.3824  0.7389
 8435TIP3    H246797   0.300   4.022   4.393  1.1198  0.2274  2.0487
 8436TIP3   OH246798   2.149   3.348   5.730  0.0788 -0.5850  0.3563
 8436TIP3    H146799   2.218   3.377   5.789  1.0553 -0.9637 -0.5600
 8436TIP3    H246800   2.102   3.429   5.707  1.4902  0.0056 -0.5767
 8437TIP3   OH246801   1.139   5.685  16.250 -0.5544 -0.3208 -0.2195
 8437TIP3    H146802   1.233   5.679  16.239 -0.5840 -1.7992  0.1123
 8437TIP3    H246803   1.117   5.612  16.308 -1.9075 -0.0710 -0.3850
 8438TIP3   OH246804   5.682   6.596   1.978  0.3271  0.6610  0.0240
 8438TIP3    H146805   5.734   6.545   2.041 -0.8266 -1.9987 -0.9964
 8438TIP3    H246806   5.687   6.546   1.897 -0.6420  2.4100 -1.1744
 8439TIP3   OH246807   4.479   3.004   1.114  0.2852 -0.1166  0.0726
 8439TIP3    H146808   4.487   2.974   1.023  0.3517 -1.0049  0.3566
 8439TIP3    H246809   4.557   3.057   1.129  0.0321  0.4417 -0.5301
 8440TIP3   OH246810   1.105   1.001   3.351 -0.3643  0.6529 -0.1700
 8440TIP3    H146811   1.028   1.057   3.340  0.4892  2.2366  1.4662
 8440TIP3    H246812   1.112   0.988   3.446  0.2075 -1.2096 -0.4218
 8441TIP3   OH246813   6.285   1.475   3.018 -0.1387  0.4140 -0.4102
 8441TIP3    H146814   6.224   1.536   2.975 -2.3772 -1.9963 -0.9145
 8441TIP3    H246815   6.309   1.413   2.949  1.3111  0.1126  0.3243
 8442TIP3   OH246816   4.677   4.403  11.199  0.6401  0.2928 -0.4231
 8442TIP3    H146817   4.732   4.324  11.204 -0.0503 -0.1065  2.5422
 8442TIP3    H246818   4.736   4.471  11.166  1.5456 -1.1680 -2.0010
 8443TIP3   OH246819   1.691   2.255   3.303  0.5023  0.1645 -0.3404
 8443TIP3    H146820   1.724   2.286   3.219 -0.1127  0.0356 -0.6417
 8443TIP3    H246821   1.767   2.219   3.348  0.7525 -0.2217 -1.0544
 8444TIP3   OH246822   5.459   4.652  15.404  0.0846 -0.4084  0.2817
 8444TIP3    H146823   5.378   4.702  15.418 -1.7418 -1.9861 -3.2148
 8444TIP3    H246824   5.444   4.570  15.451  0.3304 -0.1556  0.8154
 8445TIP3   OH246825   0.635   3.721   3.551 -0.4624  0.0959 -0.5572
 8445TIP3    H146826   0.626   3.626   3.541 -0.2770 -0.2791  2.0182
 8445TIP3    H246827   0.729   3.736   3.559 -0.5793  0.2056  0.9032
 8446TIP3   OH246828   5.985   1.111  12.520  0.1334  0.1605 -0.5115
 8446TIP3    H146829   5.937   1.123  12.438  0.4205  0.1575 -0.6842
 8446TIP3    H246830   6.074   1.089  12.492  0.7622  2.1295 -0.2254
 8447TIP3   OH246831   6.093   1.390  16.114 -0.1878 -0.0832 -0.2013
 8447TIP3    H146832   6.083   1.356  16.025  1.7423 -0.9390 -0.1348
 8447TIP3    H246833   6.017   1.357  16.161 -1.5366  0.8290 -1.6198
 8448TIP3   OH246834   1.070   6.595   0.205  0.1792 -0.5362  0.2243
 8448TIP3    H146835   1.159   6.561   0.201  0.1687 -0.7862  1.6609
 8448TIP3    H246836   1.015   6.520   0.182  0.2468 -1.0012  1.5284
 8449TIP3   OH246837   1.215   5.722   4.708 -0.1545 -0.2711  0.6573
 8449TIP3    H146838   1.294   5.749   4.662 -0.5789 -1.7604 -1.0411
 8449TIP3    H246839   1.159   5.801   4.707  0.2400  0.0167 -0.5376
 8450TIP3   OH246840   3.408   2.939  14.435 -0.4468  0.3004  0.0902
 8450TIP3    H146841   3.499   2.955  14.460 -0.1724  0.6332 -1.0703
 8450TIP3    H246842   3.357   3.003  14.485  0.0452  0.6937  0.0927
 8451TIP3   OH246843   3.415   2.360  11.751 -0.0175  0.1573  0.2697
 8451TIP3    H146844   3.494   2.311  11.730  0.1798  0.9706 -0.9844
 8451TIP3    H246845   3.343   2.303  11.723  0.1738  0.0430  0.0118
 8452TIP3   OH246846   0.924   2.780   2.526 -0.3102  0.5992 -0.2096
 8452TIP3    H146847   0.846   2.833   2.544  0.7776  1.2696  3.4036
 8452TIP3    H246848   0.994   2.844   2.513  0.0555 -0.0142 -1.4480
 8453TIP3   OH246849   0.326   0.384  13.785  0.2703  0.2473 -0.8724
 8453TIP3    H146850   0.246   0.356  13.740 -1.3294  0.2132  1.7902
 8453TIP3    H246851   0.339   0.319  13.854 -0.7809  3.1855  2.3932
 8454TIP3   OH246852   6.683   2.466  16.055 -0.0145 -0.3628 -0.0536
 8454TIP3    H146853   6.728   2.389  16.089 -1.9030 -0.8475  1.5622
 8454TIP3    H246854   6.718   2.539  16.106  1.9583 -0.0268 -1.7557
 8455TIP3   OH246855   1.063   5.301  13.145 -0.0909  0.1080  0.1864
 8455TIP3    H146856   1.065   5.246  13.066  2.1667 -0.4382  0.5234
 8455TIP3    H246857   1.026   5.384  13.116  1.9161  0.4109 -1.8734
 8456TIP3   OH246858   0.183   6.284   2.425  0.4002  0.3322 -0.7231
 8456TIP3    H146859   0.163   6.195   2.396  0.5655  0.4905 -1.3284
 8456TIP3    H246860   0.236   6.271   2.504 -3.4654 -0.1137  2.0901
 8457TIP3   OH246861   5.072   1.283  16.137 -0.1625 -0.2357 -0.1546
 8457TIP3    H146862   5.153   1.253  16.096 -0.3515  0.2833 -0.9163
 8457TIP3    H246863   5.097   1.361  16.186  0.1486 -1.0857  1.1005
 8458TIP3   OH246864   1.517   4.850  14.733  0.2410 -0.5225 -0.2304
 8458TIP3    H146865   1.427   4.817  14.728  0.3742 -1.1123  0.9296
 8458TIP3    H246866   1.512   4.927  14.790  0.6241 -1.2122  0.7663
 8459TIP3   OH246867   4.613   2.495   2.883 -0.3401 -0.3520  0.0141
 8459TIP3    H146868   4.581   2.447   2.959 -0.4910  0.7791  0.6821
 8459TIP3    H246869   4.707   2.475   2.880 -0.4560 -0.9264  0.0944
 8460TIP3   OH246870   0.146   2.314   5.467  0.2899 -0.2383 -0.2698
 8460TIP3    H146871   0.097   2.389   5.500 -1.4862 -0.3701 -2.3187
 8460TIP3    H246872   0.237   2.335   5.484 -0.2812  1.4559  0.9871
 8461TIP3   OH246873   4.561   3.905   2.599  0.2248 -0.3836 -0.1453
 8461TIP3    H146874   4.537   3.901   2.692 -3.8955  1.0270 -0.9396
 8461TIP3    H246875   4.545   3.817   2.566 -0.2814 -0.3954  0.1179
 8462TIP3   OH246876   4.841   5.812   2.163 -0.1380 -0.0193  0.2688
 8462TIP3    H146877   4.802   5.836   2.246 -0.2904 -0.6516  0.3885
 8462TIP3    H246878   4.934   5.831   2.173  0.1763 -1.7918  1.2714
 8463TIP3   OH246879   2.897   1.007  11.115 -0.2378 -0.3112  0.7921
 8463TIP3    H146880   2.878   0.946  11.045 -1.2221 -0.1175  0.8675
 8463TIP3    H246881   2.898   1.093  11.073 -1.0678 -0.1702  1.0342
 8464TIP3   OH246882   1.309   3.478   1.161 -0.6362  0.3701  0.3468
 8464TIP3    H146883   1.269   3.529   1.090  0.8228 -0.1951 -0.9480
 8464TIP3    H246884   1.282   3.388   1.142 -0.6288  0.2740  0.7966
 8465TIP3   OH246885   5.344   4.211  14.760 -0.1999  0.1354 -0.0398
 8465TIP3    H146886   5.300   4.246  14.683 -1.3050  0.3480  0.6641
 8465TIP3    H246887   5.436   4.232  14.747 -0.0408 -1.5321 -2.2159
 8466TIP3   OH246888   3.241   1.351  16.139  0.4673  0.1720 -0.5126
 8466TIP3    H146889   3.162   1.385  16.096  1.1787  1.0106 -1.1948
 8466TIP3    H246890   3.225   1.364  16.232 -0.7649 -0.9258 -0.5446
 8467TIP3   OH246891   0.451   4.748   1.161 -1.5089 -0.3549  0.2570
 8467TIP3    H146892   0.458   4.762   1.067  1.4007  1.4674  0.6097
 8467TIP3    H246893   0.401   4.823   1.193  0.0180  0.6571  0.3962
 8468TIP3   OH246894   3.199   1.655   2.216 -0.4076 -0.5656 -0.1519
 8468TIP3    H146895   3.129   1.593   2.237 -0.6891  0.2549  1.5234
 8468TIP3    H246896   3.154   1.738   2.202  0.2363  0.6836  3.7578
 8469TIP3   OH246897   2.280   3.744  11.128 -0.1020 -0.3953  0.1408
 8469TIP3    H146898   2.346   3.707  11.069  0.3308  2.2025 -1.1687
 8469TIP3    H246899   2.295   3.839  11.123  0.7252  0.0416  5.2959
 8470TIP3   OH246900   0.782   2.860   6.264 -0.7561  0.6835 -0.6182
 8470TIP3    H146901   0.709   2.904   6.307  0.7067  0.5771  2.2184
 8470TIP3    H246902   0.779   2.770   6.297  0.4805  0.6129 -0.6412
 8471TIP3   OH246903   3.276   5.644  13.123 -0.1745 -0.0245 -0.1725
 8471TIP3    H146904   3.312   5.725  13.160 -0.8619  0.9676 -1.5488
 8471TIP3    H246905   3.334   5.575  13.154 -0.8152  0.6635  2.8929
 8472TIP3   OH246906   1.583   3.641  16.293 -0.3347  0.1402  0.2673
 8472TIP3    H146907   1.527   3.719  16.284 -0.4435  0.3330  2.1357
 8472TIP3    H246908   1.575   3.617  16.386  1.1427 -1.0120  0.1294
 8473TIP3   OH246909   2.079   2.651  16.265  0.3165  0.4328 -0.1008
 8473TIP3    H146910   2.033   2.584  16.214  0.6806 -1.6210  2.1043
 8473TIP3    H246911   2.010   2.710  16.294 -0.5474 -0.8454  0.5754
 8474TIP3   OH246912   0.346   0.157   3.651  0.1869  0.1882 -0.2793
 8474TIP3    H146913   0.411   0.186   3.715  0.8551 -0.2150 -0.7624
 8474TIP3    H246914   0.377   0.072   3.621 -0.3465  0.1693 -0.8215
 8475TIP3   OH246915   0.991   4.520   0.636  0.2436  0.1106 -0.0287
 8475TIP3    H146916   0.941   4.438   0.625 -0.8319  0.9471 -1.8423
 8475TIP3    H246917   0.961   4.555   0.720 -1.0265 -0.2221 -0.3241
 8476TIP3   OH246918   4.876   2.000   2.983  0.1124  0.1067  0.1965
 8476TIP3    H146919   4.844   2.022   2.895  1.2444  0.1894 -0.2205
 8476TIP3    H246920   4.880   2.084   3.028 -0.3595  0.0806  0.2885
 8477TIP3   OH246921   6.622   5.053   5.548  0.6962  0.2003  0.3374
 8477TIP3    H146922   6.561   4.992   5.505  1.6106 -2.0404  2.0103
 8477TIP3    H246923   6.566   5.124   5.579 -0.3449  0.5568 -2.1233
 8478TIP3   OH246924   3.867   0.028   0.695  0.0212 -0.0124  0.4960
 8478TIP3    H146925   3.919  -0.019   0.761  0.4726  2.3213  1.9066
 8478TIP3    H246926   3.777   0.022   0.726 -0.0377 -0.6088  0.2264
 8479TIP3   OH246927   5.551   6.575   6.141 -0.1959 -0.7837  0.2025
 8479TIP3    H146928   5.535   6.665   6.113  1.0261 -1.0859 -1.6605
 8479TIP3    H246929   5.533   6.575   6.235  0.5739  1.5925  0.4050
 8480TIP3   OH246930   0.130   4.377   5.613  0.8202 -0.4894 -0.3341
 8480TIP3    H146931   0.123   4.284   5.593  1.6217 -0.1235 -2.6645
 8480TIP3    H246932   0.208   4.384   5.669  1.4791 -1.1150 -1.1469
 8481TIP3   OH246933   3.466   2.027   1.287 -0.2791  0.3621 -0.1231
 8481TIP3    H146934   3.438   1.953   1.233 -0.4525 -0.3262  0.8728
 8481TIP3    H246935   3.420   2.102   1.250  1.0834  0.2836 -2.1235
 8482TIP3   OH246936   6.622   2.625  12.014 -0.1584  0.5517  0.3493
 8482TIP3    H146937   6.685   2.553  12.008 -0.2942  0.4553  0.1065
 8482TIP3    H246938   6.675   2.704  12.002 -0.1180  0.4595 -0.0883
 8483TIP3   OH246939   4.889   3.677  13.888  0.1877  0.2791 -0.2954
 8483TIP3    H146940   4.813   3.725  13.921 -1.8149 -2.6306 -0.3438
 8483TIP3    H246941   4.959   3.698  13.950 -1.1950  1.5152  0.9224
 8484TIP3   OH246942   1.860   0.731   3.341 -0.3409  0.1966  0.3346
 8484TIP3    H146943   1.932   0.752   3.281 -0.3680 -0.4661  0.0546
 8484TIP3    H246944   1.836   0.641   3.318  1.1047 -0.9315  2.8101
 8485TIP3   OH246945   2.123   3.561   2.953 -0.1503 -0.2822  0.0899
 8485TIP3    H146946   2.063   3.634   2.968 -0.7182 -1.1653  2.7944
 8485TIP3    H246947   2.066   3.487   2.931  0.3953 -0.0525 -2.3360
 8486TIP3   OH246948   0.472   0.900  16.833  0.6347 -0.0809  0.4108
 8486TIP3    H146949   0.474   0.911  16.737 -0.3298  0.2937  0.4236
 8486TIP3    H246950   0.391   0.852  16.850  0.7028  0.0324  1.0630
 8487TIP3   OH246951   1.330   1.376   4.784  0.5291 -0.9459 -0.0003
 8487TIP3    H146952   1.390   1.451   4.787  0.8089 -1.2075  1.2676
 8487TIP3    H246953   1.386   1.300   4.799 -0.3226 -1.0418  3.4010
 8488TIP3   OH246954   2.338   4.748   1.476  0.2877 -0.8758 -0.2630
 8488TIP3    H146955   2.385   4.734   1.393 -1.2521 -0.5752 -1.2166
 8488TIP3    H246956   2.341   4.843   1.489 -1.1622 -0.6974 -1.0364
 8489TIP3   OH246957   0.233   2.452   3.095 -0.1686 -0.0911  0.0389
 8489TIP3    H146958   0.313   2.487   3.057 -0.1598 -0.2690 -0.1081
 8489TIP3    H246959   0.261   2.410   3.176 -0.2329  0.5646  0.4042
 8490TIP3   OH246960   6.723   4.407   2.004  0.4632  0.6287 -0.2962
 8490TIP3    H146961   6.809   4.447   2.011  0.5901  0.0553  2.9674
 8490TIP3    H246962   6.662   4.477   2.029  0.5685 -0.4795  3.7135
 8491TIP3   OH246963   3.157   6.817   2.635  0.0582  0.2630  0.0827
 8491TIP3    H146964   3.107   6.747   2.677 -0.2068  1.2738  1.5150
 8491TIP3    H246965   3.248   6.790   2.644 -0.1160 -0.8634 -1.2083
 8492TIP3   OH246966   5.308   0.148  16.171  0.4272  0.4285  0.3153
 8492TIP3    H146967   5.278   0.071  16.219  0.5185  0.5368  0.5483
 8492TIP3    H246968   5.330   0.211  16.239  0.7646  0.5055  0.1376
 8493TIP3   OH246969   5.510   2.216  15.544 -0.4667 -0.3993  0.5210
 8493TIP3    H146970   5.588   2.270  15.535 -1.2915  0.7787  0.2131
 8493TIP3    H246971   5.541   2.136  15.586  1.0506 -0.3243 -0.3994
 8494TIP3   OH246972   5.045   2.353   0.028 -0.0189  0.0318  0.2191
 8494TIP3    H146973   4.955   2.323   0.032  0.1784 -0.4533  2.8638
 8494TIP3    H246974   5.096   2.274   0.010 -0.0225  0.0936 -0.0696
 8495TIP3   OH246975   1.700   0.071  12.580  0.7884  0.4201 -0.0431
 8495TIP3    H146976   1.781   0.120  12.594  1.5575 -0.6706 -0.5409
 8495TIP3    H246977   1.700   0.005  12.649 -1.6802  2.7749  2.4758
 8496TIP3   OH246978   4.435   0.129   4.420 -0.2633  0.2687  0.5133
 8496TIP3    H146979   4.490   0.113   4.344  1.9105  0.1730  2.0211
 8496TIP3    H246980   4.472   0.208   4.460  0.0738 -0.9053  2.6425
 8497TIP3   OH246981   3.599   3.840   0.054 -0.0534 -0.5941  0.2760
 8497TIP3    H146982   3.543   3.901   0.103 -3.5495 -0.6824 -3.0900
 8497TIP3    H246983   3.638   3.893  -0.015  0.8686 -1.3224  0.2134
 8498TIP3   OH246984   0.832   3.808   2.038  0.3651  0.0011  0.9899
 8498TIP3    H146985   0.812   3.787   2.129  0.8641  1.4389  1.4406
 8498TIP3    H246986   0.754   3.854   2.007  0.2611 -0.3480  0.7229
 8499TIP3   OH246987   4.089   5.001  16.323 -0.4411  0.7494  0.0991
 8499TIP3    H146988   4.153   5.005  16.395 -0.7087  0.1489  0.3776
 8499TIP3    H246989   4.142   5.010  16.244 -0.0884  0.9267  0.3493
 8500TIP3   OH246990   5.390   5.471  11.674 -0.3717  0.1598 -0.5759
 8500TIP3    H146991   5.363   5.413  11.603 -0.9218 -0.7769  0.3538
 8500TIP3    H246992   5.308   5.500  11.713 -0.0789 -0.0471  0.2112
 8501TIP3   OH246993   1.398   3.146   6.357  0.0729 -0.3233  0.4818
 8501TIP3    H146994   1.327   3.206   6.336 -0.7032 -1.2888  0.2468
 8501TIP3    H246995   1.464   3.200   6.401 -0.2335  0.8482 -0.4456
 8502TIP3   OH246996   0.128   3.985  12.426 -0.2839 -0.7676  0.8728
 8502TIP3    H146997   0.156   3.901  12.388  1.4130  0.3804 -0.5761
 8502TIP3    H246998   0.163   3.984  12.515 -1.2835 -2.0539  1.2807
 8503TIP3   OH246999   2.122   4.705   3.695  0.1562  0.2362  0.0024
 8503TIP3    H147000   2.203   4.755   3.691 -0.2871  0.8880 -1.6940
 8503TIP3    H247001   2.076   4.726   3.613 -1.6405 -0.2497  0.8220
 8504TIP3   OH247002   4.510   5.999  12.320  0.0254 -0.2065 -0.3163
 8504TIP3    H147003   4.568   5.935  12.363 -0.3935 -1.1822 -1.1658
 8504TIP3    H247004   4.450   6.027  12.389  3.4123  3.3880  1.5953
 8505TIP3   OH247005   4.663   4.152   5.009  0.0054 -0.1975  0.2425
 8505TIP3    H147006   4.609   4.182   4.937  1.1662 -0.1481 -0.6367
 8505TIP3    H247007   4.659   4.056   5.003  2.0574 -0.2538 -1.4875
 8506TIP3   OH247008   5.852   5.768   1.349 -0.1407 -0.0703 -0.1047
 8506TIP3    H147009   5.832   5.793   1.259  0.8762  0.8779 -0.0932
 8506TIP3    H247010   5.782   5.807   1.402 -0.7555 -0.6550 -0.4738
 8507TIP3   OH247011   5.497   4.408   1.936 -0.0972  0.0027  0.4075
 8507TIP3    H147012   5.435   4.387   1.866  0.5058 -0.3119 -0.0466
 8507TIP3    H247013   5.476   4.346   2.006 -1.8701  1.4626  1.2476
 8508TIP3   OH247014   6.578   0.239   1.637  0.9968  0.0022  0.1362
 8508TIP3    H147015   6.671   0.238   1.614  0.7210  0.4380 -1.0502
 8508TIP3    H247016   6.545   0.155   1.607  0.7233  0.4025 -0.6988
 8509TIP3   OH247017   1.138   2.886   4.900  0.9002 -0.8625 -0.0107
 8509TIP3    H147018   1.113   2.870   4.809 -0.4196  0.1752  0.1484
 8509TIP3    H247019   1.059   2.869   4.950  1.4398 -0.7829  0.8825
 8510TIP3   OH247020   3.462   1.506  12.028 -0.5221 -0.2582  0.2275
 8510TIP3    H147021   3.521   1.442  12.068 -1.1638 -1.2237 -0.3271
 8510TIP3    H247022   3.416   1.546  12.103 -1.9343 -2.2641  0.5282
 8511TIP3   OH247023   1.112   0.833   0.495 -0.0348  0.1900 -0.6221
 8511TIP3    H147024   1.038   0.778   0.469  0.6109 -0.9062 -0.2209
 8511TIP3    H247025   1.078   0.887   0.566 -1.1330  1.4904 -2.0592
 8512TIP3   OH247026   4.993   5.419   1.939  0.2976 -0.3513  0.1385
 8512TIP3    H147027   4.921   5.482   1.937  0.6397  0.0247 -2.1223
 8512TIP3    H247028   5.059   5.460   1.996 -1.1727 -0.6809  2.1822
 8513TIP3   OH247029   4.002   5.449  15.265  0.4975 -0.2460  0.3742
 8513TIP3    H147030   4.060   5.432  15.340  0.3258  0.5988  0.7076
 8513TIP3    H247031   4.061   5.448  15.189  0.9089  0.2570  0.6742
 8514TIP3   OH247032   0.092   2.848  14.962 -0.2323  0.6245 -0.0904
 8514TIP3    H147033   0.032   2.841  14.888  1.4510 -0.9404 -1.3948
 8514TIP3    H247034   0.064   2.778  15.022  0.3475 -0.1929 -0.7592
 8515TIP3   OH247035   0.618   2.845  13.690  0.5176 -0.0218 -0.5427
 8515TIP3    H147036   0.674   2.769  13.706 -0.4227 -0.9921 -1.6604
 8515TIP3    H247037   0.669   2.919  13.721  1.3894 -1.1179  0.7465
 8516TIP3   OH247038   0.084   6.230  13.535 -0.1761  0.7234 -0.0910
 8516TIP3    H147039   0.002   6.190  13.506 -0.3782  1.3375 -0.3959
 8516TIP3    H247040   0.128   6.256  13.454  0.5122  0.0391  0.0531
 8517TIP3   OH247041   4.985   3.539  16.972  0.0764 -0.1257 -0.4109
 8517TIP3    H147042   4.901   3.492  16.968 -0.5254  1.0035 -3.0149
 8517TIP3    H247043   5.011   3.550  16.881  1.5411  2.2123  0.2042
 8518TIP3   OH247044   0.501   0.079  11.348 -0.7099  0.4626 -0.4757
 8518TIP3    H147045   0.418   0.092  11.395 -1.0310  0.2253 -0.9646
 8518TIP3    H247046   0.474   0.064  11.257 -0.1230  0.4432 -0.6466
 8519TIP3   OH247047   5.653   1.102  15.809 -0.2868 -0.3924  0.1613
 8519TIP3    H147048   5.742   1.069  15.796  0.5407  1.0293  1.8746
 8519TIP3    H247049   5.623   1.060  15.890 -1.0786 -0.6047 -0.2246
 8520TIP3   OH247050   1.240   3.911  13.921  0.3177  0.0119 -0.1005
 8520TIP3    H147051   1.190   3.956  13.853  0.0967 -1.6676 -1.1195
 8520TIP3    H247052   1.331   3.914  13.890  0.0576 -1.9072 -1.2413
 8521TIP3   OH247053   1.164   0.524   1.325 -0.2542 -0.3389  0.6793
 8521TIP3    H147054   1.206   0.610   1.316  0.3377 -0.7302 -0.5489
 8521TIP3    H247055   1.238   0.463   1.336 -0.5087 -0.9689 -0.8924
 8522TIP3   OH247056   2.144   3.989  15.120 -0.2196 -0.1508 -0.2775
 8522TIP3    H147057   2.234   4.007  15.144 -0.6091 -0.3904  1.5213
 8522TIP3    H247058   2.143   3.991  15.024  1.5664  0.3548 -0.3080
 8523TIP3   OH247059   0.526   2.666   6.220  0.1130 -0.4656 -0.2450
 8523TIP3    H147060   0.442   2.664   6.174 -0.0735  0.7443  0.0023
 8523TIP3    H247061   0.529   2.752   6.261  2.6279  0.6688 -2.4537
 8524TIP3   OH247062   1.328   2.232   0.661  0.0058  0.4340 -0.8999
 8524TIP3    H147063   1.237   2.208   0.646 -0.4191  1.3349  0.2069
 8524TIP3    H247064   1.349   2.198   0.748  0.3476  1.3028 -0.6312
 8525TIP3   OH247065   4.809   1.729   6.207 -0.2422  0.0298  0.2108
 8525TIP3    H147066   4.835   1.816   6.237  1.3115  0.1271 -1.2788
 8525TIP3    H247067   4.843   1.723   6.118  0.8500 -2.5840  0.7022
 8526TIP3   OH247068   6.498   6.807  16.598 -0.5178  0.1884 -0.0895
 8526TIP3    H147069   6.528   6.887  16.555  0.7440 -0.6767 -0.8808
 8526TIP3    H247070   6.405   6.822  16.615 -0.3483  1.7233 -0.4210
 8527TIP3   OH247071   5.739   6.610   0.482  0.2763 -0.1755  0.5813
 8527TIP3    H147072   5.828   6.587   0.508  0.3552  0.4966  0.9343
 8527TIP3    H247073   5.691   6.526   0.482  1.1773 -0.7146 -0.7738
 8528TIP3   OH247074   3.060   3.563  14.705  0.0821  0.3110 -0.2753
 8528TIP3    H147075   3.134   3.596  14.755 -0.5673 -0.5318  1.3266
 8528TIP3    H247076   3.014   3.642  14.674  0.8238  0.8400 -0.0473
 8529TIP3   OH247077   6.454   1.587   1.852  0.3794 -0.1340 -0.5986
 8529TIP3    H147078   6.549   1.592   1.863  0.5398  1.9544 -2.2778
 8529TIP3    H247079   6.418   1.620   1.935  1.1876  1.0158 -0.6879
 8530TIP3   OH247080   0.840   0.867  15.877  0.1298 -0.1515  0.8795
 8530TIP3    H147081   0.780   0.808  15.923 -0.2821  0.6987  1.4797
 8530TIP3    H247082   0.803   0.955  15.892 -0.0937  0.1635 -1.1969
 8531TIP3   OH247083   2.173   3.447  13.359  0.4281  0.1456 -0.5221
 8531TIP3    H147084   2.185   3.371  13.302  1.5255  2.5676 -3.8284
 8531TIP3    H247085   2.260   3.466  13.392  0.3506  0.5912 -0.5736
 8532TIP3   OH247086   5.255   2.679  12.120 -0.4141  0.1786 -0.3112
 8532TIP3    H147087   5.256   2.650  12.212 -0.7890  1.3909  0.0922
 8532TIP3    H247088   5.218   2.767  12.123  2.2853  1.4290 -1.2906
 8533TIP3   OH247089   1.527   1.881   2.348  0.0460 -0.0963  0.6308
 8533TIP3    H147090   1.502   1.959   2.397 -1.5609 -1.3672  1.9399
 8533TIP3    H247091   1.465   1.876   2.276  0.1342 -0.1666  0.5587
 8534TIP3   OH247092   0.263   4.095   2.816  0.8697 -0.2222 -0.1057
 8534TIP3    H147093   0.326   4.069   2.882  0.9517  0.3356  0.0417
 8534TIP3    H247094   0.303   4.071   2.733 -0.2172 -3.0870  0.0930
 8535TIP3   OH247095   2.648   3.069   2.046 -0.0864 -0.4024  0.4100
 8535TIP3    H147096   2.706   3.030   2.112  1.6251  2.3931  0.7057
 8535TIP3    H247097   2.704   3.127   1.995 -2.5438  2.4366  0.6454
 8536TIP3   OH247098   4.475   1.741  11.283  0.0107  0.0992  0.4353
 8536TIP3    H147099   4.540   1.808  11.303 -1.0496  1.2056  0.2996
 8536TIP3    H247100   4.434   1.771  11.202  0.2125 -1.2659 -0.2034
 8537TIP3   OH247101   4.801   3.044   5.768 -0.0101  0.4025  0.0866
 8537TIP3    H147102   4.733   2.981   5.789  0.9647 -0.3361  1.1412
 8537TIP3    H247103   4.767   3.128   5.799 -0.7614  0.1956 -0.1471
 8538TIP3   OH247104   4.802   4.174   1.955 -0.5659  0.8492  0.2997
 8538TIP3    H147105   4.832   4.175   2.045 -0.0888 -1.5635  0.2244
 8538TIP3    H247106   4.718   4.127   1.958 -0.2518  0.2110 -0.5809
 8539TIP3   OH247107   5.114   3.965   0.884 -0.0601  0.0554  0.2624
 8539TIP3    H147108   5.031   3.998   0.918 -0.6653 -1.9746  0.8602
 8539TIP3    H247109   5.099   3.954   0.791 -0.4456 -0.2643  0.3602
 8540TIP3   OH247110   3.799   1.993   3.282 -0.6055 -0.2936 -0.4375
 8540TIP3    H147111   3.865   1.973   3.215 -0.6020 -0.9030 -0.2557
 8540TIP3    H247112   3.844   2.051   3.343 -0.0979 -1.0237 -0.0962
 8541TIP3   OH247113   0.673   1.215  10.352 -0.8378 -0.4345  0.0300
 8541TIP3    H147114   0.690   1.140  10.294 -0.6507 -1.4328  1.3205
 8541TIP3    H247115   0.760   1.248  10.375 -0.8897 -0.4101  0.1931
 8542TIP3   OH247116   6.414   5.626   3.695  0.1726  0.0081  0.4428
 8542TIP3    H147117   6.410   5.718   3.670  0.8155 -0.2480 -0.6491
 8542TIP3    H247118   6.331   5.588   3.664 -0.0503  0.1925  0.8086
 8543TIP3   OH247119   1.927   1.251  11.840 -0.3440  0.5848 -0.1664
 8543TIP3    H147120   2.021   1.244  11.823 -0.1353  3.0550 -0.4592
 8543TIP3    H247121   1.887   1.191  11.778  1.0108  0.1737 -0.6780
 8544TIP3   OH247122   4.451   1.020   4.219  0.2821  0.5581 -0.3691
 8544TIP3    H147123   4.511   0.969   4.164 -1.0011 -1.0814 -0.3556
 8544TIP3    H247124   4.388   1.057   4.158  0.0090  0.3920 -0.1912
 8545TIP3   OH247125   6.444   5.007  15.766 -0.4997 -0.4681  0.5173
 8545TIP3    H147126   6.357   5.048  15.766  0.6647  2.2133  0.2766
 8545TIP3    H247127   6.471   5.009  15.674 -0.8325 -2.9890  0.2861
 8546TIP3   OH247128   2.031   0.756   0.370 -0.0910  0.1936 -0.2385
 8546TIP3    H147129   2.002   0.672   0.406  2.2800 -0.7973 -0.4784
 8546TIP3    H247130   2.078   0.798   0.442  0.1054  0.5957 -0.5962
 8547TIP3   OH247131   6.709   2.468   3.863  0.1474 -0.4338 -0.1872
 8547TIP3    H147132   6.700   2.553   3.820  0.8699 -0.8681 -1.2328
 8547TIP3    H247133   6.686   2.485   3.954  1.1830  1.0827 -0.1733
 8548TIP3   OH247134   3.211   5.450   2.469 -0.4112 -0.4190 -0.2992
 8548TIP3    H147135   3.299   5.464   2.506 -1.4047  1.5406  1.5804
 8548TIP3    H247136   3.222   5.464   2.375  1.1059  0.9942  0.0270
 8549TIP3   OH247137   2.553   2.799  15.016 -0.3473  0.5460  0.0047
 8549TIP3    H147138   2.622   2.763  15.072 -1.3410 -1.0057  0.2932
 8549TIP3    H247139   2.561   2.751  14.934 -0.9962  0.4113  0.0102
 8550TIP3   OH247140   3.978   5.412   2.609  0.0277  0.0183  0.2535
 8550TIP3    H147141   3.975   5.464   2.529  1.5983  0.8729  0.6926
 8550TIP3    H247142   3.919   5.456   2.670  0.6135  0.7531  0.3055
 8551TIP3   OH247143   6.518   2.210  13.140 -0.0954  0.2570 -0.6510
 8551TIP3    H147144   6.461   2.207  13.063  1.0835 -0.6935 -1.5358
 8551TIP3    H247145   6.591   2.265  13.112  1.7672 -2.3676 -1.3176
 8552TIP3   OH247146   3.212   2.125  13.375  0.1078  0.0861 -0.1375
 8552TIP3    H147147   3.144   2.170  13.325 -0.7132 -0.8343  0.1409
 8552TIP3    H247148   3.167   2.056  13.423  1.2104 -0.4441  0.1872
 8553TIP3   OH247149   5.776   5.434   5.337  0.2336 -0.6103  0.1248
 8553TIP3    H147150   5.864   5.442   5.302 -0.0917 -1.3691 -0.9556
 8553TIP3    H247151   5.741   5.523   5.336  0.3770 -0.5510 -1.1689
 8554TIP3   OH247152   1.914   6.779  11.443  0.0332  0.4684 -0.7293
 8554TIP3    H147153   2.004   6.810  11.451  0.8087 -1.8425  0.5789
 8554TIP3    H247154   1.912   6.699  11.495 -3.2360  1.3008  0.7110
 8555TIP3   OH247155   2.947   5.519  10.952  0.1228  0.1949  0.0709
 8555TIP3    H147156   2.939   5.525  10.857  0.8982  0.0705 -0.0047
 8555TIP3    H247157   2.974   5.606  10.980 -0.0408  0.2143  0.1704
 8556TIP3   OH247158   0.925   1.828   0.163  0.3010  0.1547  0.0880
 8556TIP3    H147159   0.927   1.765   0.091 -1.7979  0.0026  0.1159
 8556TIP3    H247160   0.985   1.792   0.229  1.5868 -0.1358 -1.1966
 8557TIP3   OH247161   0.672   2.656   4.221 -0.5837 -0.2579  0.4425
 8557TIP3    H147162   0.586   2.656   4.263 -1.1495 -0.0255 -0.6698
 8557TIP3    H247163   0.654   2.632   4.130  0.5316 -0.2022  0.1927
 8558TIP3   OH247164   0.029   0.220   0.412 -0.0780 -0.0004 -0.1214
 8558TIP3    H147165   0.049   0.129   0.390 -0.4949 -0.0173 -0.4371
 8558TIP3    H247166   0.015   0.219   0.507  1.0252 -0.0554  0.0448
 8559TIP3   OH247167   5.563   3.076   5.092 -0.0159 -0.0288  0.4193
 8559TIP3    H147168   5.578   3.121   5.175 -0.0633 -1.0932  1.0223
 8559TIP3    H247169   5.469   3.086   5.076  0.3547  2.2583 -0.7743
 8560TIP3   OH247170   6.244   5.250   3.671 -0.1815 -0.2166 -0.3011
 8560TIP3    H147171   6.261   5.162   3.637 -2.7766 -1.4117  1.1562
 8560TIP3    H247172   6.271   5.245   3.763  1.3393  1.1356 -0.6292
 8561TIP3   OH247173   6.572   2.357   2.823 -0.1027  0.2511  0.0831
 8561TIP3    H147174   6.530   2.293   2.768  1.6910 -0.1651 -0.8920
 8561TIP3    H247175   6.531   2.440   2.799 -1.2963 -0.2899  0.1799
 8562TIP3   OH247176   1.281   2.373  16.927  0.4867 -0.4583  0.5148
 8562TIP3    H147177   1.219   2.443  16.909 -0.2862 -0.7706  1.8956
 8562TIP3    H247178   1.269   2.311  16.855  0.1993  0.1534  0.0329
 8563TIP3   OH247179   0.580   0.239  12.688 -0.1573  0.3974 -0.4134
 8563TIP3    H147180   0.521   0.216  12.617 -0.5636  1.8080 -0.5550
 8563TIP3    H247181   0.523   0.252  12.764 -0.1017  1.9757 -0.6015
 8564TIP3   OH247182   5.031   4.528  12.341  0.3380 -0.4596 -0.0961
 8564TIP3    H147183   5.117   4.564  12.360 -0.0095 -0.3096  1.3050
 8564TIP3    H247184   5.022   4.453  12.399 -0.8889  0.1702  0.5802
 8565TIP3   OH247185   2.168   1.985   4.083 -0.5767  0.1780  0.5007
 8565TIP3    H147186   2.151   2.019   4.171  0.2275 -1.0641  1.1583
 8565TIP3    H247187   2.262   1.969   4.081 -0.5380  0.4704 -0.6976
 8566TIP3   OH247188   1.115   6.625   3.489 -0.2965  0.2320 -0.0407
 8566TIP3    H147189   1.192   6.608   3.434  0.2674  2.3953  0.0037
 8566TIP3    H247190   1.049   6.658   3.428 -1.1243 -1.2697 -0.0169
 8567TIP3   OH247191   3.982   5.272  11.750  0.1191  0.4277 -0.7444
 8567TIP3    H147192   3.917   5.337  11.774  0.0598 -0.2205  1.0275
 8567TIP3    H247193   4.038   5.315  11.685 -0.9557  1.6152 -0.9020
 8568TIP3   OH247194   5.695   3.819  13.502 -0.4192 -0.5450 -0.6898
 8568TIP3    H147195   5.635   3.820  13.428  0.3138 -1.1806 -1.3175
 8568TIP3    H247196   5.775   3.859  13.468 -0.3368 -0.1022  0.0054
 8569TIP3   OH247197   6.628   4.126  12.873  0.0856  0.1301  0.1146
 8569TIP3    H147198   6.677   4.060  12.923  0.6734  0.1850 -0.3868
 8569TIP3    H247199   6.692   4.192  12.850  0.5669 -1.2912 -3.2227
 8570TIP3   OH247200   6.599   0.924   5.009 -0.4550 -0.9688  0.1697
 8570TIP3    H147201   6.555   0.861   5.065  1.2157 -2.1824  0.1957
 8570TIP3    H247202   6.680   0.946   5.056  0.5929 -1.4017 -1.3576
 8571TIP3   OH247203   1.653   2.128   2.074 -0.3131  0.1793 -0.3815
 8571TIP3    H147204   1.716   2.123   2.145  0.9806  0.9534 -1.4207
 8571TIP3    H247205   1.580   2.180   2.109 -0.5528 -1.0015  0.9363
 8572TIP3   OH247206   6.597   1.728  14.604 -0.1650  0.2452 -0.2112
 8572TIP3    H147207   6.632   1.656  14.656 -1.1521  0.9018  1.4411
 8572TIP3    H247208   6.609   1.700  14.513 -0.8130 -2.1462  0.3629
 8573TIP3   OH247209   1.114   1.527   1.082  0.3268  0.1987 -0.4048
 8573TIP3    H147210   1.163   1.552   1.160  0.8236  0.4789 -0.7992
 8573TIP3    H247211   1.155   1.445   1.054  0.7660  0.5865 -0.9031
 8574TIP3   OH247212   1.817   6.624  16.609 -0.3528 -0.3989 -0.0484
 8574TIP3    H147213   1.808   6.669  16.693 -1.1176 -0.0420 -0.3115
 8574TIP3    H247214   1.742   6.565  16.606 -2.2021  1.8483 -1.8240
 8575TIP3   OH247215   5.808   2.896   0.763 -0.1517  0.1770 -0.1763
 8575TIP3    H147216   5.807   2.955   0.838 -0.5422 -0.4922  0.3518
 8575TIP3    H247217   5.878   2.931   0.706 -0.4642  1.2133  0.0558
 8576TIP3   OH247218   5.775   6.263  15.392  0.1203 -0.0589 -0.3066
 8576TIP3    H147219   5.726   6.338  15.425  0.5783  0.9698 -1.8666
 8576TIP3    H247220   5.866   6.281  15.416  0.1090 -0.6152  0.1749
 8577TIP3   OH247221   2.474   2.252   3.131  0.0244 -0.1205  0.1398
 8577TIP3    H147222   2.490   2.207   3.214 -0.0369  1.3363  0.9691
 8577TIP3    H247223   2.559   2.251   3.086  0.0306 -1.0144  0.1521
 8578TIP3   OH247224   4.563   4.948  14.628  0.3816 -0.7819  0.4184
 8578TIP3    H147225   4.586   4.991  14.710 -1.1088  0.5643  0.1943
 8578TIP3    H247226   4.609   4.998  14.561 -0.9327  0.2005  0.2028
 8579TIP3   OH247227   2.772   6.641   5.083  0.4871  0.1292 -0.1770
 8579TIP3    H147228   2.735   6.717   5.040  1.8721  0.8472 -0.1436
 8579TIP3    H247229   2.766   6.661   5.177 -2.9034 -1.6034  0.1319
 8580TIP3   OH247230   2.802   2.355  11.526 -0.5692  0.4603  0.1419
 8580TIP3    H147231   2.816   2.421  11.458 -1.1536  0.0996 -0.3416
 8580TIP3    H247232   2.823   2.272  11.483  0.4763  0.3368  0.8357
 8581TIP3   OH247233   6.506   4.986  16.519  0.2205 -0.0985  0.2375
 8581TIP3    H147234   6.492   4.964  16.611 -0.8276  0.0409  0.1203
 8581TIP3    H247235   6.525   4.902  16.477 -1.0139 -0.4057  0.2830
 8582TIP3   OH247236   2.198   4.411   5.081 -0.4352  0.2779  0.2292
 8582TIP3    H147237   2.237   4.473   5.142 -0.2512  1.0073 -0.6055
 8582TIP3    H247238   2.267   4.393   5.017  0.3101 -2.5670  1.6563
 8583TIP3   OH247239   1.978   6.312  12.850 -0.1749 -0.3907 -0.3250
 8583TIP3    H147240   1.894   6.352  12.825 -2.2049 -4.0713 -0.1640
 8583TIP3    H247241   1.983   6.324  12.944 -1.2554 -1.2538 -0.1352
 8584TIP3   OH247242   3.777   2.383  14.475  0.3682  0.2380  0.8909
 8584TIP3    H147243   3.765   2.426  14.390  0.2145 -1.2524  0.1270
 8584TIP3    H247244   3.872   2.384  14.488  0.5980 -1.2811 -0.3026
 8585TIP3   OH247245   1.234   1.949   1.462  0.2714  0.2772  0.0337
 8585TIP3    H147246   1.194   1.876   1.510 -1.0876  0.6478 -0.5223
 8585TIP3    H247247   1.284   1.907   1.392  2.3783 -0.2877  1.7465
 8586TIP3   OH247248   0.741   6.103  14.946  0.0746  0.2801  0.4662
 8586TIP3    H147249   0.655   6.073  14.917 -0.2385  1.5143  0.0322
 8586TIP3    H247250   0.793   6.024  14.953 -0.0904 -0.2444 -2.6124
 8587TIP3   OH247251   0.425   0.910   5.857  0.5004 -0.0538  0.1077
 8587TIP3    H147252   0.461   0.889   5.771  1.5392  1.4486  0.1375
 8587TIP3    H247253   0.474   0.855   5.918  2.1363  1.2432  0.0409
 8588TIP3   OH247254   3.479   4.416  12.226  0.2249  0.4417  0.1627
 8588TIP3    H147255   3.532   4.338  12.239 -1.7162 -0.7614  1.5083
 8588TIP3    H247256   3.416   4.393  12.158  0.9496  1.6145 -0.9579
 8589TIP3   OH247257   0.494   1.369   0.444 -0.0498  0.1719  0.1841
 8589TIP3    H147258   0.487   1.375   0.539  0.9832  0.1605  0.2707
 8589TIP3    H247259   0.582   1.401   0.424  0.5161 -1.7074 -0.5747
 8590TIP3   OH247260   3.782   2.964   3.830 -0.3500  0.6782 -0.0946
 8590TIP3    H147261   3.836   2.909   3.774 -0.4444  1.2672 -0.7818
 8590TIP3    H247262   3.732   2.903   3.883  0.4019  0.1203 -0.0187
 8591TIP3   OH247263   5.219   5.993  16.951  0.5090 -0.2395  0.5506
 8591TIP3    H147264   5.124   5.985  16.961  0.1606  0.9518 -1.3250
 8591TIP3    H247265   5.234   6.086  16.936  1.9620 -0.4329  0.6553
 8592TIP3   OH247266   2.671   3.165  15.402 -0.4340  0.0085  0.0645
 8592TIP3    H147267   2.638   3.255  15.401 -1.1288 -0.2393 -0.7393
 8592TIP3    H247268   2.723   3.157  15.322 -0.1873 -0.2348  0.2474
 8593TIP3   OH247269   4.994   4.790   5.920  0.1793  0.1608 -0.6542
 8593TIP3    H147270   4.900   4.773   5.927  0.2891 -0.0460  0.5285
 8593TIP3    H247271   5.034   4.703   5.926  0.4304  0.2005 -1.6700
 8594TIP3   OH247272   4.750   0.394  15.702  0.4109  0.4549  0.0835
 8594TIP3    H147273   4.678   0.443  15.742  1.0204  0.5404  1.1220
 8594TIP3    H247274   4.726   0.386  15.610 -1.2556 -0.1399  0.5434
 8595TIP3   OH247275   5.158   0.929  16.215 -0.1015 -0.2361 -0.3565
 8595TIP3    H147276   5.068   0.957  16.196  0.1604  0.5050 -0.5561
 8595TIP3    H247277   5.161   0.923  16.311 -0.4012 -0.3783 -0.3556
 8596TIP3   OH247278   3.179   5.243  14.536 -0.2163  0.1640  0.5446
 8596TIP3    H147279   3.104   5.262  14.592 -1.2165 -1.0441 -0.3304
 8596TIP3    H247280   3.255   5.259  14.591 -1.1528 -0.2275  1.9978
 8597TIP3   OH247281   4.792   3.722  16.663  0.3316  0.2580 -0.1805
 8597TIP3    H147282   4.774   3.789  16.728  1.2415 -0.2835  0.6636
 8597TIP3    H247283   4.836   3.769  16.592 -1.6355  1.0508 -0.9547
 8598TIP3   OH247284   5.155   2.312  12.548  0.6255  0.1420  0.0760
 8598TIP3    H147285   5.102   2.234  12.563 -1.2332  1.3325  0.1754
 8598TIP3    H247286   5.186   2.303  12.458  0.7642 -0.8978  0.2262
 8599TIP3   OH247287   2.179   2.113   2.888 -0.0710  0.1139  0.4151
 8599TIP3    H147288   2.176   2.169   2.966 -1.1709 -0.9098  1.1555
 8599TIP3    H247289   2.232   2.038   2.915  0.6645  0.3790 -0.2750
 8600TIP3   OH247290   0.298   0.796  14.457  0.8158 -0.6847  0.6591
 8600TIP3    H147291   0.365   0.863  14.458  1.0222 -0.7702 -1.7994
 8600TIP3    H247292   0.238   0.822  14.387 -2.8332  0.3278  3.7944
 8601TIP3   OH247293   0.249   5.971  15.966 -0.3894 -0.7475 -0.0047
 8601TIP3    H147294   0.274   5.950  15.877  1.1037 -0.3683  0.3042
 8601TIP3    H247295   0.225   6.064  15.964  1.6573 -0.1671  0.3577
 8602TIP3   OH247296   0.376   5.740   1.155 -0.2634  0.3410  0.8984
 8602TIP3    H147297   0.401   5.650   1.138 -1.2722  0.1960  0.0970
 8602TIP3    H247298   0.420   5.762   1.238  0.2951 -0.7424  0.9078
 8603TIP3   OH247299   3.446   0.207   3.141  0.0135 -0.2153 -0.0552
 8603TIP3    H147300   3.414   0.118   3.134 -2.5119  0.7508 -2.2569
 8603TIP3    H247301   3.367   0.260   3.153  1.3209  1.8568 -0.1329
 8604TIP3   OH247302   6.045   4.492   0.423  0.2814 -0.0893 -0.2117
 8604TIP3    H147303   6.042   4.403   0.458 -1.6449 -0.4042 -1.0322
 8604TIP3    H247304   6.042   4.481   0.328 -0.2860  0.8495 -0.3210
 8605TIP3   OH247305   1.156   4.019   6.645  0.1428  0.5555 -0.6101
 8605TIP3    H147306   1.178   3.929   6.667  0.8735  0.0928 -2.9261
 8605TIP3    H247307   1.067   4.031   6.679  0.1769 -0.8955  0.0528
 8606TIP3   OH247308   5.873   5.466  12.789  0.0713 -1.0544  0.3515
 8606TIP3    H147309   5.851   5.536  12.851 -1.8908 -1.9578  0.7175
 8606TIP3    H247310   5.804   5.401  12.799  0.1465 -1.6292 -2.2094
 8607TIP3   OH247311   6.556   3.190   5.984  0.1500  0.0711  0.1495
 8607TIP3    H147312   6.614   3.266   5.977 -1.5576  1.4556  0.4101
 8607TIP3    H247313   6.573   3.155   6.071  0.3992  0.6308  0.3336
 8608TIP3   OH247314   0.801   0.701  16.144  0.8743  0.3786  0.5821
 8608TIP3    H147315   0.887   0.727  16.177  0.6211  0.2563  1.3698
 8608TIP3    H247316   0.819   0.638  16.075  1.4989  2.1572 -0.9513
 8609TIP3   OH247317   0.299   2.130  14.394  0.0681  0.4103  0.4274
 8609TIP3    H147318   0.352   2.209  14.405  1.1613 -0.0708 -1.0319
 8609TIP3    H247319   0.233   2.135  14.463  0.4528  2.3120  0.7097
 8610TIP3   OH247320   2.557   5.307   6.320  0.0488 -0.7148  0.0112
 8610TIP3    H147321   2.474   5.322   6.364 -0.8756 -1.9890 -1.2250
 8610TIP3    H247322   2.577   5.215   6.337  2.0459 -0.0657  1.6041
 8611TIP3   OH247323   3.382   3.037   2.621 -0.9779 -0.9021 -0.2526
 8611TIP3    H147324   3.381   3.132   2.609  0.7712 -0.9201 -0.9049
 8611TIP3    H247325   3.385   3.026   2.716 -2.3908 -0.3595 -0.1247
 8612TIP3   OH247326   2.612   3.879  12.984 -0.4722 -0.0089 -0.0406
 8612TIP3    H147327   2.631   3.798  13.031 -0.7421  1.1846  2.2568
 8612TIP3    H247328   2.524   3.904  13.013 -1.0355  0.3428 -1.9141
 8613TIP3   OH247329   4.495   3.633   2.554 -0.1997 -0.1976  0.3162
 8613TIP3    H147330   4.463   3.554   2.597 -0.0975 -0.8951 -0.8429
 8613TIP3    H247331   4.538   3.601   2.475  1.3020  0.9045  0.6530
 8614TIP3   OH247332   4.601   1.474  14.703  0.4230 -0.4084 -0.1365
 8614TIP3    H147333   4.532   1.533  14.733  0.4658  0.2058 -1.2083
 8614TIP3    H247334   4.632   1.431  14.783  0.2999  0.9290  0.6618
 8615TIP3   OH247335   3.689   0.060   4.857  0.2401 -0.0274 -0.0906
 8615TIP3    H147336   3.595   0.048   4.861  0.3903 -1.2712  0.0987
 8615TIP3    H247337   3.717   0.065   4.948  0.2966  0.9636 -0.1513
 8616TIP3   OH247338   1.855   5.420   1.841 -0.0971  0.2649  0.1412
 8616TIP3    H147339   1.935   5.472   1.835  0.6703 -0.8512  0.5112
 8616TIP3    H247340   1.884   5.334   1.869 -1.3402 -0.3962 -0.5138
 8617TIP3   OH247341   3.953   0.655  15.186  0.3167  0.4241 -0.1415
 8617TIP3    H147342   3.867   0.692  15.164  0.6543  0.4577 -1.5063
 8617TIP3    H247343   4.011   0.731  15.191  0.0371  0.5690  2.2451
 8618TIP3   OH247344   0.689   3.110  16.004  0.1549 -0.5952 -0.1328
 8618TIP3    H147345   0.779   3.095  15.975  0.6639  1.6405  0.1179
 8618TIP3    H247346   0.664   3.027  16.045  1.9916 -1.3662 -0.4309
 8619TIP3   OH247347   5.017   1.984  16.138 -0.6360  0.0883  0.4514
 8619TIP3    H147348   5.100   1.962  16.181 -1.1385 -1.9407  0.4985
 8619TIP3    H247349   5.018   2.079  16.130  2.3250  0.0488 -0.8054
 8620TIP3   OH247350   5.022   0.479   1.058  0.4666  0.5736  0.0715
 8620TIP3    H147351   4.980   0.494   1.143  0.7408 -0.1108  0.3386
 8620TIP3    H247352   5.115   0.495   1.074  1.2937 -3.9222  1.1604
 8621TIP3   OH247353   6.256   5.217  15.463 -0.4579 -0.8837  0.1830
 8621TIP3    H147354   6.204   5.254  15.392 -1.0870  0.9818  1.5357
 8621TIP3    H247355   6.343   5.207  15.425 -0.6557  0.5075 -0.7408
 8622TIP3   OH247356   0.731   3.325  17.065  0.1729  0.3460  0.1666
 8622TIP3    H147357   0.761   3.403  17.018  1.8617 -1.5178 -2.0660
 8622TIP3    H247358   0.802   3.305  17.126 -0.7985  1.1715  1.6304
 8623TIP3   OH247359   3.434   0.636  16.562  0.0048 -0.3998 -0.3161
 8623TIP3    H147360   3.468   0.701  16.501  1.0647  0.1638  0.8559
 8623TIP3    H247361   3.342   0.626  16.536 -0.2341  1.6789 -0.4268
 8624TIP3   OH247362   2.856   0.160   4.554 -0.0945  0.0557 -0.1695
 8624TIP3    H147363   2.832   0.130   4.642  1.6014  1.1423  0.7216
 8624TIP3    H247364   2.773   0.173   4.509 -0.9742 -1.3818  0.9677
 8625TIP3   OH247365   4.235   3.442  16.427  0.5719 -0.1341 -0.2818
 8625TIP3    H147366   4.252   3.396  16.345 -1.5622 -0.2996 -0.6833
 8625TIP3    H247367   4.253   3.378  16.495  1.7871 -0.1763 -0.6092
 8626TIP3   OH247368   6.165   3.484  11.616  0.0620  0.0860  0.6613
 8626TIP3    H147369   6.219   3.406  11.604 -0.2748 -0.2404  1.2053
 8626TIP3    H247370   6.075   3.450  11.623  0.0732  0.3461  2.5611
 8627TIP3   OH247371   5.966   2.559   4.319  0.5115 -0.9066 -0.6412
 8627TIP3    H147372   5.948   2.497   4.389 -0.4801 -0.4219 -0.4415
 8627TIP3    H247373   5.879   2.582   4.285  0.9426 -0.7232 -1.6666
 8628TIP3   OH247374   5.496   6.176  12.519  0.8028  0.7795  0.2686
 8628TIP3    H147375   5.512   6.265  12.553  1.8267  0.0569  1.7953
 8628TIP3    H247376   5.465   6.127  12.595 -1.6000  0.2333 -0.9695
 8629TIP3   OH247377   3.433   3.419   4.162  0.0202  0.0783  0.3371
 8629TIP3    H147378   3.362   3.369   4.203 -0.3831  0.6050  0.2861
 8629TIP3    H247379   3.464   3.478   4.231 -0.4314  0.7251 -0.0068
 8630TIP3   OH247380   4.851   2.835  11.296  0.2380 -0.2180 -0.1385
 8630TIP3    H147381   4.835   2.747  11.329  0.4905  0.1137  0.9153
 8630TIP3    H247382   4.790   2.845  11.223  0.3905 -1.3500 -0.4267
 8631TIP3   OH247383   4.759   3.261  12.873  0.3691 -0.2418 -0.2765
 8631TIP3    H147384   4.810   3.181  12.887 -0.5370 -0.6836  0.6499
 8631TIP3    H247385   4.724   3.282  12.959 -1.0149  0.0308 -0.8756
 8632TIP3   OH247386   3.757   2.892  12.991 -0.1582 -0.1201  0.3064
 8632TIP3    H147387   3.770   2.864  12.901  0.4202  0.7330  0.1101
 8632TIP3    H247388   3.666   2.870  13.011 -0.3304 -0.1745 -0.5241
 8633TIP3   OH247389   6.215   2.152  17.180  0.1180 -0.2134 -0.2272
 8633TIP3    H147390   6.219   2.235  17.131 -1.5009 -0.5951 -1.0795
 8633TIP3    H247391   6.279   2.162  17.250 -0.3578  1.9619 -0.0259
 8634TIP3   OH247392   2.934   4.603   6.478 -0.4615 -0.4763  0.3171
 8634TIP3    H147393   2.883   4.523   6.481  0.8014 -1.3080  0.3029
 8634TIP3    H247394   3.015   4.582   6.524 -0.1944  0.8660  0.5159
 8635TIP3   OH247395   3.123   0.512  13.350  0.2701  0.3799 -0.2979
 8635TIP3    H147396   3.057   0.534  13.416  1.2119 -0.9407  1.1587
 8635TIP3    H247397   3.113   0.579  13.283 -0.7449  1.7821  1.1726
 8636TIP3   OH247398   0.000   3.332  15.313 -0.0056  0.2788  0.2654
 8636TIP3    H147399  -0.074   3.275  15.331 -0.0265  0.8618  2.3183
 8636TIP3    H247400   0.022   3.371  15.398  0.8388  2.3243 -0.7989
 8637TIP3   OH247401   1.433   5.705   5.137  0.4086 -0.0747 -0.4875
 8637TIP3    H147402   1.433   5.796   5.168  1.6925  0.4829 -1.9502
 8637TIP3    H247403   1.343   5.688   5.110 -0.7816 -0.5860  3.2892
 8638TIP3   OH247404   6.427   6.729  14.125 -0.4775  0.0477  0.1922
 8638TIP3    H147405   6.393   6.718  14.214 -0.2696 -0.2574  0.2323
 8638TIP3    H247406   6.356   6.775  14.079  0.4955  2.8535  1.2499
 8639TIP3   OH247407   0.122   5.547  12.579 -0.2612 -0.4734 -0.1750
 8639TIP3    H147408   0.140   5.633  12.540 -2.1526  0.2931  0.4716
 8639TIP3    H247409   0.067   5.503  12.515 -1.8739  0.0738  0.7682
 8640TIP3   OH247410   5.312   2.205   5.760  0.2033 -0.2808  0.1488
 8640TIP3    H147411   5.271   2.164   5.684  0.2407 -1.0064  0.5155
 8640TIP3    H247412   5.396   2.239   5.727 -1.5433  3.2473 -1.1932
 8641TIP3   OH247413   0.433   1.477   4.539  0.1562  0.7774 -0.3048
 8641TIP3    H147414   0.457   1.544   4.474  0.2100 -0.0233 -1.1414
 8641TIP3    H247415   0.505   1.477   4.601  0.0387  1.6594 -0.1537
 8642TIP3   OH247416   0.308   4.640  12.035 -0.5463  0.1869 -0.0014
 8642TIP3    H147417   0.253   4.630  12.113  0.3316 -0.7984  0.5176
 8642TIP3    H247418   0.277   4.721  11.994 -3.3921 -1.0731 -0.5630
 8643TIP3   OH247419   2.147   2.892  17.087 -0.5340  0.3740 -0.6925
 8643TIP3    H147420   2.168   2.856  17.001 -1.0996 -0.2775 -0.5649
 8643TIP3    H247421   2.218   2.954  17.105 -0.8566  1.1324 -1.9821
 8644TIP3   OH247422   3.956   3.499   4.290 -0.1552  0.6520  0.4596
 8644TIP3    H147423   3.949   3.546   4.373 -1.0905 -0.9262  1.3250
 8644TIP3    H247424   3.873   3.453   4.281  1.4248 -2.5695  0.8232
 8645TIP3   OH247425   2.340   1.633  12.151 -0.1964 -0.1278  0.4820
 8645TIP3    H147426   2.397   1.698  12.109 -1.1713  1.4057  1.4569
 8645TIP3    H247427   2.254   1.647  12.112 -0.6208 -0.1941  1.3713
 8646TIP3   OH247428   5.703   0.146  16.560 -0.2360  0.5846  0.1486
 8646TIP3    H147429   5.767   0.210  16.591 -0.8675  1.9592 -1.2664
 8646TIP3    H247430   5.623   0.197  16.547 -0.8120 -0.5210 -0.8235
 8647TIP3   OH247431   4.370   1.794  13.565  0.6610 -0.4157 -0.4166
 8647TIP3    H147432   4.435   1.836  13.621  0.1568 -3.0081  2.3726
 8647TIP3    H247433   4.301   1.860  13.556  2.2725  1.2866 -0.8949
 8648TIP3   OH247434   4.220   4.528   0.387 -0.0290  0.0123  0.6666
 8648TIP3    H147435   4.166   4.530   0.466 -0.3789  0.3363  0.4236
 8648TIP3    H247436   4.158   4.507   0.317  0.3000 -0.4006  0.4939
 8649TIP3   OH247437   1.888   2.799   1.823 -0.3641  0.2084  0.4425
 8649TIP3    H147438   1.895   2.894   1.815  2.5255 -0.0633 -2.3266
 8649TIP3    H247439   1.821   2.774   1.760  0.0681  0.3429 -0.0819
 8650TIP3   OH247440   2.625   4.152  12.986  0.3601 -0.0691 -0.0089
 8650TIP3    H147441   2.655   4.172  13.075  0.4514  1.3025 -0.3174
 8650TIP3    H247442   2.622   4.056  12.982 -1.5184 -0.1710  2.0879
 8651TIP3   OH247443   0.549   0.894  15.602 -0.1478  0.5974 -0.0061
 8651TIP3    H147444   0.608   0.820  15.587  0.1682  0.4955  1.5686
 8651TIP3    H247445   0.508   0.875  15.686 -2.9194  0.3684 -1.3013
 8652TIP3   OH247446   5.263   5.212  14.482  0.0606  0.1287  0.0076
 8652TIP3    H147447   5.176   5.232  14.448  0.1969 -0.6454 -0.8449
 8652TIP3    H247448   5.261   5.118  14.499  1.0371 -0.0836 -0.9826
 8653TIP3   OH247449   5.382   6.259  16.378  0.0886  0.6549  0.0456
 8653TIP3    H147450   5.305   6.302  16.340  0.1540  1.9223  1.2487
 8653TIP3    H247451   5.449   6.327  16.378  0.5270  0.2375  1.0202
 8654TIP3   OH247452   5.350   5.077   5.779 -0.2516  0.2382  0.3120
 8654TIP3    H147453   5.265   5.093   5.821 -0.7988 -1.0044 -0.2737
 8654TIP3    H247454   5.388   5.004   5.829  0.6036  0.9454  0.7268
 8655TIP3   OH247455   5.002   2.613  11.989 -0.2302 -0.5946  0.7783
 8655TIP3    H147456   5.086   2.617  12.034  0.3985 -0.6156 -0.3611
 8655TIP3    H247457   4.987   2.703  11.959 -0.0407 -0.8141 -0.0081
 8656TIP3   OH247458   0.422   6.225  13.350  0.1484 -0.5312 -0.6359
 8656TIP3    H147459   0.372   6.306  13.340 -1.2306 -1.1686  0.7315
 8656TIP3    H247460   0.371   6.159  13.303  0.0563 -1.0579  0.1922
 8657TIP3   OH247461   3.476   6.780  16.310 -0.2207  0.0056 -0.0803
 8657TIP3    H147462   3.383   6.794  16.323 -0.4127  1.1843 -2.3537
 8657TIP3    H247463   3.481   6.711  16.243  0.6205 -1.9412  1.8639
 8658TIP3   OH247464   2.091   3.127  14.833  0.2063  0.0162 -0.8949
 8658TIP3    H147465   2.168   3.182  14.823  0.5018 -0.3091 -0.4370
 8658TIP3    H247466   2.121   3.039  14.810 -0.1430 -0.0312 -1.1687
 8659TIP3   OH247467   2.134   3.112   0.774 -0.1807  0.1149 -0.0377
 8659TIP3    H147468   2.066   3.177   0.760 -0.0062  0.0503 -1.2786
 8659TIP3    H247469   2.088   3.028   0.776 -0.1329  0.0555 -1.0546
 8660TIP3   OH247470   4.368   5.918   5.197  0.1519 -0.1940  0.6192
 8660TIP3    H147471   4.437   5.853   5.181  0.4173  0.0186  0.8832
 8660TIP3    H247472   4.313   5.877   5.264 -0.2638 -0.5716  0.0514
 8661TIP3   OH247473   6.090   5.160  16.196 -0.4027 -0.0223 -0.1517
 8661TIP3    H147474   6.021   5.158  16.262 -1.8036 -0.7855 -1.5756
 8661TIP3    H247475   6.057   5.220  16.129  2.0144  2.6241  0.8024
 8662TIP3   OH247476   5.183   4.234   2.777 -0.5607 -0.4815  0.0125
 8662TIP3    H147477   5.234   4.153   2.767  0.1766 -0.3446  2.0871
 8662TIP3    H247478   5.246   4.304   2.760 -0.4468 -0.3378  0.9409
 8663TIP3   OH247479   1.515   3.123   5.765 -0.4416 -0.5608 -0.5004
 8663TIP3    H147480   1.484   3.166   5.844 -0.5515 -1.5159 -0.0099
 8663TIP3    H247481   1.567   3.190   5.720  1.1701 -0.5366  1.2870
 8664TIP3   OH247482   5.319   2.825  13.784 -0.2340 -0.0926 -0.1453
 8664TIP3    H147483   5.248   2.762  13.791  0.1849 -0.5459  0.0820
 8664TIP3    H247484   5.276   2.911  13.791 -0.4374 -0.3209  3.8846
 8665TIP3   OH247485   6.168   0.348   3.519  0.6165  0.1664  0.0275
 8665TIP3    H147486   6.103   0.278   3.507  1.3937 -0.2058 -2.5460
 8665TIP3    H247487   6.116   0.424   3.545 -0.8425 -0.2507 -1.4698
 8666TIP3   OH247488   3.795   2.540   0.282  0.8210  0.3491 -0.1787
 8666TIP3    H147489   3.828   2.627   0.263  1.3823 -0.1288 -1.5550
 8666TIP3    H247490   3.874   2.487   0.297  0.4700  0.1746  1.1077
 8667TIP3   OH247491   5.618   6.042  15.381  0.3002 -0.2700  0.2643
 8667TIP3    H147492   5.669   6.120  15.400 -0.2972  0.2570 -0.2653
 8667TIP3    H247493   5.578   6.018  15.465 -2.1883  1.9531 -0.1612
 8668TIP3   OH247494   2.587   2.030  12.644 -0.5174 -0.3218  0.3151
 8668TIP3    H147495   2.657   2.020  12.709 -0.2125  0.8760  0.1883
 8668TIP3    H247496   2.516   2.073  12.691 -1.4769 -2.1438  0.6268
 8669TIP3   OH247497   3.065   2.831  14.457  0.0124 -0.1535  0.3401
 8669TIP3    H147498   3.150   2.786  14.447  1.3647  2.2504  0.2049
 8669TIP3    H247499   3.013   2.798  14.384  1.4419 -0.4488 -0.6035
 8670TIP3   OH247500   4.494   4.307   4.783  0.1940  0.0089  0.0617
 8670TIP3    H147501   4.547   4.305   4.703  0.2422  0.1496  0.0897
 8670TIP3    H247502   4.406   4.281   4.755 -0.2403  1.8294 -0.3868
 8671TIP3   OH247503   0.633   1.473  16.427  0.2072  0.3308  0.3560
 8671TIP3    H147504   0.610   1.549  16.480  0.2331  0.0004  0.8554
 8671TIP3    H247505   0.729   1.471  16.427  0.2056  0.2334  0.4420
 8672TIP3   OH247506   5.837   5.376  15.394  0.0774 -0.3204 -0.6687
 8672TIP3    H147507   5.759   5.427  15.372  1.1072  0.7282 -2.0358
 8672TIP3    H247508   5.902   5.440  15.421  0.4655 -1.1949  0.6129
 8673TIP3   OH247509   4.870   0.607  12.245 -0.4170  0.6636  0.1186
 8673TIP3    H147510   4.800   0.547  12.273  0.5735 -1.4363 -1.5865
 8673TIP3    H247511   4.942   0.589  12.306  0.5773 -1.4994 -1.5241
 8674TIP3   OH247512   6.573   6.641  11.529 -0.4289  0.2547  0.6073
 8674TIP3    H147513   6.478   6.637  11.539 -0.4952  0.6858  0.2157
 8674TIP3    H247514   6.587   6.627  11.435 -0.0680 -0.3638  0.7521
 8675TIP3   OH247515   6.605   3.614  12.840  0.4059  0.1636  0.5386
 8675TIP3    H147516   6.596   3.527  12.802 -0.9713 -0.3532  1.9512
 8675TIP3    H247517   6.580   3.674  12.769 -0.0587 -0.6627 -0.0097
 8676TIP3   OH247518   4.438   1.207   1.441  0.1490  0.0239 -0.0467
 8676TIP3    H147519   4.346   1.185   1.456  0.0457  0.2456 -0.3436
 8676TIP3    H247520   4.482   1.122   1.433 -0.2355 -0.0829 -1.1167
 8677TIP3   OH247521   4.947   1.611  13.649  0.0689 -0.0405  0.1113
 8677TIP3    H147522   4.936   1.562  13.567  0.6758 -0.8443  0.5044
 8677TIP3    H247523   4.880   1.680  13.644  0.1374 -0.0331 -1.0881
 8678TIP3   OH247524   2.742   4.137  14.673  0.2145 -0.1215 -0.6898
 8678TIP3    H147525   2.829   4.124  14.711 -0.1425 -1.0595 -0.1754
 8678TIP3    H247526   2.739   4.231  14.654  2.1388 -0.3891 -2.7401
 8679TIP3   OH247527   2.055   6.223   5.966 -0.0195  0.1901  0.8473
 8679TIP3    H147528   2.020   6.306   5.997  0.7900  0.6845  0.4629
 8679TIP3    H247529   1.978   6.176   5.932 -0.5069  0.6968  1.2318
 8680TIP3   OH247530   2.338   4.682  14.247  0.2298 -0.0431  0.5050
 8680TIP3    H147531   2.276   4.630  14.299 -2.0221  1.2789 -0.6625
 8680TIP3    H247532   2.289   4.705  14.168  2.3433  0.9145 -0.5979
 8681TIP3   OH247533   4.944   0.766  14.858 -0.1918 -0.3218 -0.3577
 8681TIP3    H147534   4.890   0.739  14.784  0.4350 -1.1149 -0.5420
 8681TIP3    H247535   4.888   0.826  14.908 -0.5357  0.3908 -1.5765
 8682TIP3   OH247536   3.278   0.877   3.051 -0.2913 -0.0316  0.6390
 8682TIP3    H147537   3.259   0.818   2.978 -0.7514 -0.7644  1.3222
 8682TIP3    H247538   3.207   0.861   3.113 -0.5338  1.4092  0.7649
 8683TIP3   OH247539   4.292   4.856   1.172  0.0966  0.0058  0.1819
 8683TIP3    H147540   4.240   4.844   1.093  0.7379  0.7485 -0.3785
 8683TIP3    H247541   4.229   4.858   1.243 -0.3781 -2.1768 -0.1260
 8684TIP3   OH247542   2.949   1.500  14.715 -0.0720  0.0728  0.1614
 8684TIP3    H147543   2.936   1.576  14.772 -0.5715  0.8701 -0.9919
 8684TIP3    H247544   2.865   1.487  14.672  0.1401 -0.8673  0.0078
 8685TIP3   OH247545   5.599   0.175  15.522 -0.2036  0.0301  0.0080
 8685TIP3    H147546   5.677   0.164  15.466 -0.5485  0.6270 -0.6008
 8685TIP3    H247547   5.526   0.173  15.460 -0.6743 -0.5022  0.5788
 8686TIP3   OH247548   1.912   5.762   4.286  0.2291 -0.1267 -0.2869
 8686TIP3    H147549   1.882   5.749   4.376  0.1553  2.3538  0.1080
 8686TIP3    H247550   1.989   5.819   4.295  0.8718 -0.7167 -1.7432
 8687TIP3   OH247551   0.199   0.894  14.230  0.0375  0.0073  0.0932
 8687TIP3    H147552   0.119   0.935  14.262  0.7337  0.6343  1.0505
 8687TIP3    H247553   0.215   0.935  14.145 -0.8992 -0.4615 -0.3270
 8688TIP3   OH247554   3.967   5.018  10.926 -0.4391 -0.2656 -0.2043
 8688TIP3    H147555   3.981   4.938  10.977 -0.6067  0.2557  0.6866
 8688TIP3    H247556   3.904   4.993  10.859 -1.1993 -0.6688  0.6358
 8689TIP3   OH247557   2.429   0.505   5.524 -0.2068 -0.6731  0.6900
 8689TIP3    H147558   2.442   0.599   5.527  0.1539 -0.6496 -1.0329
 8689TIP3    H247559   2.510   0.468   5.561 -0.4972 -0.3339  1.7081
 8690TIP3   OH247560   2.113   1.332  15.751 -0.2948 -0.0262  0.0163
 8690TIP3    H147561   2.061   1.344  15.672 -1.6347 -2.4865  0.4284
 8690TIP3    H247562   2.145   1.242  15.745 -0.6188 -0.3594  2.3491
 8691TIP3   OH247563   0.811   3.508  11.657 -0.3883  0.3696  0.0889
 8691TIP3    H147564   0.720   3.532  11.673 -1.1863 -1.3612 -1.4424
 8691TIP3    H247565   0.846   3.578  11.603 -1.2992  0.3306 -0.5788
 8692TIP3   OH247566   5.829   4.450   5.734  0.0004  0.3710 -0.6730
 8692TIP3    H147567   5.900   4.424   5.791 -0.5258 -0.0173 -0.1858
 8692TIP3    H247568   5.802   4.370   5.689 -1.4236  0.0917  0.6068
 8693TIP3   OH247569   0.374   1.480   4.982 -0.9021  0.1826 -0.2979
 8693TIP3    H147570   0.333   1.418   4.922 -0.0381 -0.7394  0.0399
 8693TIP3    H247571   0.310   1.491   5.052  0.0079 -2.5979  1.1238
 8694TIP3   OH247572   4.343   0.117  13.866  0.3931  0.4174  0.5578
 8694TIP3    H147573   4.422   0.075  13.830 -0.0478  0.3271 -0.3368
 8694TIP3    H247574   4.344   0.094  13.959  0.6892 -0.7578  0.2866
 8695TIP3   OH247575   0.657   0.496   1.517 -0.2693  0.4121  0.0341
 8695TIP3    H147576   0.670   0.560   1.587 -0.3709  0.9166 -0.3974
 8695TIP3    H247577   0.746   0.472   1.490 -0.2250 -0.2826  0.7735
 8696TIP3   OH247578   5.005   5.088   6.433  0.0982 -0.2175  0.4266
 8696TIP3    H147579   4.971   5.177   6.425  0.1297 -0.3334 -1.4488
 8696TIP3    H247580   5.100   5.098   6.430  0.1314 -0.4886 -3.4677
 8697TIP3   OH247581   3.915   1.091   2.773  0.4583 -0.5496  0.0085
 8697TIP3    H147582   3.978   1.116   2.705  1.3676  0.2418  1.0984
 8697TIP3    H247583   3.942   1.004   2.799  0.1541 -0.8260 -0.5771
 8698TIP3   OH247584   0.007   3.191   1.915 -0.0699  0.5669 -0.1318
 8698TIP3    H147585  -0.020   3.276   1.952 -0.1950  0.3444  0.2927
 8698TIP3    H247586  -0.074   3.154   1.879 -0.2749  0.0619  0.8183
 8699TIP3   OH247587   5.118   6.585  14.628  0.1067 -0.0552  0.2174
 8699TIP3    H147588   5.142   6.500  14.666 -1.3086  0.0652  1.5167
 8699TIP3    H247589   5.158   6.585  14.542 -0.3267 -2.3025 -0.0556
 8700TIP3   OH247590   3.050   4.399  15.407  0.3952 -0.2177 -0.0168
 8700TIP3    H147591   3.006   4.375  15.326 -0.5517 -1.5902  0.8751
 8700TIP3    H247592   3.098   4.480  15.385 -0.4210 -0.1574 -1.7173
 8701TIP3   OH247593   4.536   4.819   0.152 -0.1846  0.3419 -0.8739
 8701TIP3    H147594   4.599   4.876   0.108 -0.3344  1.2076 -0.0014
 8701TIP3    H247595   4.541   4.845   0.244 -0.2923 -1.0383 -0.4605
 8702TIP3   OH247596   6.155   0.144   5.145 -0.3466  0.0456  0.4052
 8702TIP3    H147597   6.144   0.224   5.094  0.6546  1.1954  1.9051
 8702TIP3    H247598   6.243   0.114   5.125 -0.4416 -0.2553  0.4324
 8703TIP3   OH247599   0.253   5.499  11.422 -0.3095  0.0667 -0.2466
 8703TIP3    H147600   0.269   5.591  11.400 -0.0920  0.4879  1.5191
 8703TIP3    H247601   0.339   5.458  11.416 -0.2462  0.1829 -0.1339
 8704TIP3   OH247602   0.731   2.563  14.681 -0.0280 -0.3459  0.3868
 8704TIP3    H147603   0.781   2.484  14.659 -0.3860 -0.6516  0.6564
 8704TIP3    H247604   0.647   2.551  14.637 -0.5641 -0.7266  1.4906
 8705TIP3   OH247605   4.631   2.218   5.669  0.0045 -0.4397  0.7325
 8705TIP3    H147606   4.547   2.234   5.710 -1.2068 -0.2250 -1.6707
 8705TIP3    H247607   4.684   2.178   5.738 -2.3941 -1.6206  2.0066
 8706TIP3   OH247608   2.325   4.104  15.798 -0.0270 -0.5204 -1.3029
 8706TIP3    H147609   2.377   4.046  15.853  1.5542 -0.9789 -3.1832
 8706TIP3    H247610   2.385   4.174  15.773 -1.2542  0.7088 -0.9645
 8707TIP3   OH247611   0.436   3.972  14.453  0.0937  0.5415  0.2521
 8707TIP3    H147612   0.451   4.067  14.452  1.3211  0.3661  0.3732
 8707TIP3    H247613   0.521   3.934  14.429  0.1370 -0.5716  1.9915
 8708TIP3   OH247614   1.905   0.362   5.533  0.4200  0.9422 -0.2363
 8708TIP3    H147615   1.848   0.289   5.508 -0.4455  1.4135  0.3420
 8708TIP3    H247616   1.982   0.319   5.571 -0.2168  0.3298  0.3924
 8709TIP3   OH247617   5.703   3.975   1.523  0.3262  0.5512 -0.0765
 8709TIP3    H147618   5.694   4.031   1.447  1.6106  0.5644 -0.2342
 8709TIP3    H247619   5.666   4.026   1.595 -1.7045  0.1957 -0.8080
 8710TIP3   OH247620   2.894   5.556   3.010  0.2533  0.3636 -0.0568
 8710TIP3    H147621   2.914   5.631   3.066 -0.4162  0.6645 -0.2061
 8710TIP3    H247622   2.880   5.594   2.924  2.6141 -0.2387 -0.7832
 8711TIP3   OH247623   1.342   1.743  13.355 -0.1745 -0.0042 -0.2685
 8711TIP3    H147624   1.375   1.687  13.425 -0.3800  0.9743  0.6157
 8711TIP3    H247625   1.420   1.788  13.321 -0.1087 -0.3088 -0.5296
 8712TIP3   OH247626   5.148   1.226   0.528 -0.1066 -0.6628  0.3741
 8712TIP3    H147627   5.140   1.131   0.536 -0.5590 -0.7631 -0.9308
 8712TIP3    H247628   5.070   1.252   0.479  0.2728  0.3151  0.2630
 8713TIP3   OH247629   2.280   2.864   4.496  0.4580  0.4526 -0.0084
 8713TIP3    H147630   2.315   2.891   4.410  2.0553  0.5287  0.6289
 8713TIP3    H247631   2.306   2.773   4.504 -2.1854 -0.4514 -0.7920
 8714TIP3   OH247632   4.840   4.803  14.689  0.2010  0.3769 -0.1918
 8714TIP3    H147633   4.811   4.890  14.715 -2.0715  0.3091 -2.1450
 8714TIP3    H247634   4.894   4.818  14.611  0.0845  0.0620 -0.3338
 8715TIP3   OH247635   0.602   3.440   0.801  0.1531  0.3522 -0.5749
 8715TIP3    H147636   0.648   3.519   0.772  0.9791 -0.6906 -2.3108
 8715TIP3    H247637   0.510   3.467   0.809  0.6635  1.9027  0.6809
 8716TIP3   OH247638   2.468   4.308  17.064  0.3653  0.5042 -0.0274
 8716TIP3    H147639   2.563   4.308  17.078  0.4431 -3.7939  0.6286
 8716TIP3    H247640   2.459   4.323  16.970  1.7831 -0.1227 -0.2975
 8717TIP3   OH247641   4.032   5.817  16.457  0.5791  0.0290  0.2825
 8717TIP3    H147642   4.113   5.833  16.410  3.1945  1.2163  4.5971
 8717TIP3    H247643   4.025   5.891  16.518 -2.3613 -1.3556  1.8211
 8718TIP3   OH247644   4.503   0.931  12.004 -0.4723  0.1685  0.0042
 8718TIP3    H147645   4.562   0.856  11.999  1.4717  1.6231  0.1487
 8718TIP3    H247646   4.415   0.892  12.011  0.6027 -2.1118  2.1710
 8719TIP3   OH247647   4.427   3.509   0.573 -0.2275 -0.5636  0.1123
 8719TIP3    H147648   4.487   3.467   0.512  1.1443 -0.2643  1.2075
 8719TIP3    H247649   4.342   3.506   0.529  0.4048 -1.7940 -1.0979
 8720TIP3   OH247650   0.477   4.688  13.407 -0.3991 -0.2531  0.1934
 8720TIP3    H147651   0.469   4.681  13.312  2.7488 -2.0310 -0.0840
 8720TIP3    H247652   0.398   4.646  13.441 -1.3425 -0.0232 -1.6008
 8721TIP3   OH247653   0.227   4.992  14.361 -0.2348  0.1314  0.2507
 8721TIP3    H147654   0.147   4.942  14.377  0.5172 -1.2237 -0.0910
 8721TIP3    H247655   0.277   4.938  14.300  0.4001  1.5428 -0.5046
 8722TIP3   OH247656   4.697   4.813   2.695 -0.1428  0.3595 -0.4226
 8722TIP3    H147657   4.621   4.831   2.750 -0.2214  0.5660 -0.5961
 8722TIP3    H247658   4.672   4.739   2.641 -0.2727  0.5160 -0.5781
 8723TIP3   OH247659   5.310   0.872   4.249 -0.0729  1.2724  0.4006
 8723TIP3    H147660   5.250   0.945   4.235 -1.3920  0.8080  3.0433
 8723TIP3    H247661   5.306   0.855   4.343  2.8646  0.0140  0.4136
 8724TIP3   OH247662   0.525   3.849  10.867  0.0357  0.3065 -0.0613
 8724TIP3    H147663   0.430   3.856  10.879 -0.0602 -0.2853 -0.4549
 8724TIP3    H247664   0.535   3.819  10.777  0.6099  0.6287 -0.1075
 8725TIP3   OH247665   3.139   2.902   5.059 -0.1588  0.5452 -0.0888
 8725TIP3    H147666   3.157   2.841   4.987  0.6566  0.3508  0.2602
 8725TIP3    H247667   3.119   2.846   5.134 -1.0539  0.7480 -0.1656
 8726TIP3   OH247668   1.980   1.641  17.159 -0.4699 -0.1564 -0.5327
 8726TIP3    H147669   1.946   1.567  17.209  0.3184  0.2540  0.6590
 8726TIP3    H247670   2.044   1.603  17.100 -0.1407 -0.4539  0.0053
 8727TIP3   OH247671   1.786   1.207   3.093 -0.3838  0.4565 -0.9774
 8727TIP3    H147672   1.833   1.126   3.116 -1.8357 -0.5901 -1.5255
 8727TIP3    H247673   1.714   1.177   3.038 -1.0204  2.1441 -1.1066
 8728TIP3   OH247674   5.624   4.451  16.504  0.2796  0.3252 -0.3332
 8728TIP3    H147675   5.553   4.510  16.530  0.4209  0.4124 -0.1408
 8728TIP3    H247676   5.586   4.364  16.507 -0.5881  0.5509 -2.7712
 8729TIP3   OH247677   0.577   5.611  11.334 -0.3321 -0.5921  0.5093
 8729TIP3    H147678   0.646   5.610  11.268  0.7154  0.6342  1.5410
 8729TIP3    H247679   0.529   5.530  11.320 -0.9856  0.2214 -2.6075
 8730TIP3   OH247680   3.138   1.094   4.330 -0.5233 -0.0305 -0.0019
 8730TIP3    H147681   3.048   1.123   4.338 -0.2830  0.5615  0.6905
 8730TIP3    H247682   3.188   1.173   4.310 -0.4008 -0.6556 -2.6374
 8731TIP3   OH247683   4.235   4.197   4.050 -0.4091 -0.0165 -0.5800
 8731TIP3    H147684   4.293   4.247   4.108  1.6735 -3.8723  1.0438
 8731TIP3    H247685   4.267   4.218   3.962  0.0581  1.7578 -0.0426
 8732TIP3   OH247686   0.202   1.540   0.721  0.1096  0.9503 -0.3149
 8732TIP3    H147687   0.210   1.622   0.771  0.0911  0.8124 -0.0841
 8732TIP3    H247688   0.110   1.535   0.697 -0.2943  0.0673  1.2821
 8733TIP3   OH247689   2.631   4.447   2.112  0.0069  0.4633 -0.1391
 8733TIP3    H147690   2.645   4.466   2.019  0.4373 -1.2517 -0.4467
 8733TIP3    H247691   2.719   4.440   2.149 -0.1623  1.4895  0.4957
 8734TIP3   OH247692   6.389   1.949   3.815  0.4514  0.7949 -0.7738
 8734TIP3    H147693   6.438   2.021   3.774  1.5631  1.0057  0.8269
 8734TIP3    H247694   6.298   1.965   3.789  0.6322  2.9218 -0.3133
 8735TIP3   OH247695   2.891   2.672   3.115 -0.0670 -0.2397 -0.1041
 8735TIP3    H147696   2.849   2.743   3.066 -2.2901 -0.8507  0.7867
 8735TIP3    H247697   2.835   2.660   3.192 -0.1701 -3.4064 -0.5497
 8736TIP3   OH247698   5.156   2.753  14.165 -0.7970  0.0958  0.0209
 8736TIP3    H147699   5.144   2.667  14.125  0.8820  0.1702 -0.7382
 8736TIP3    H247700   5.094   2.810  14.119 -1.1599 -0.4799 -0.2181
 8737TIP3   OH247701   5.193   1.012   5.257  0.1782  0.1156  0.0366
 8737TIP3    H147702   5.270   1.050   5.300 -0.7082  1.3262  0.6161
 8737TIP3    H247703   5.228   0.939   5.205  1.5445 -0.1520  1.2594
 8738TIP3   OH247704   1.367   1.269   2.961  0.0013 -0.2537  0.6271
 8738TIP3    H147705   1.374   1.314   3.045 -1.0913  1.7364 -0.2855
 8738TIP3    H247706   1.276   1.282   2.934  0.2335 -1.1866 -0.7056
 8739TIP3   OH247707   2.194   0.450   3.819 -0.2168 -0.4964 -0.7034
 8739TIP3    H147708   2.148   0.534   3.808 -2.3816 -1.5577 -0.2185
 8739TIP3    H247709   2.264   0.469   3.881  0.8416  1.4610 -2.3680
 8740TIP3   OH247710   2.796   0.340   2.719  0.2640  0.1113  0.1544
 8740TIP3    H147711   2.704   0.363   2.732 -0.3158 -2.2573  0.6824
 8740TIP3    H247712   2.821   0.294   2.799  1.7453  0.1890 -0.2310
 8741TIP3   OH247713   3.717   6.323  15.960 -0.8573 -0.1942 -0.0185
 8741TIP3    H147714   3.675   6.409  15.964 -2.3926 -0.9548  1.5055
 8741TIP3    H247715   3.649   6.265  15.927 -0.5871 -1.1954  1.1133
 8742TIP3   OH247716   5.608   5.116   5.680 -0.3831 -0.0565  0.0963
 8742TIP3    H147717   5.643   5.075   5.759 -0.8403 -0.8480 -0.1050
 8742TIP3    H247718   5.515   5.129   5.699 -0.1753  1.2664  0.3052
 8743TIP3   OH247719   0.730   5.900  13.977  0.0123 -0.0443 -0.6775
 8743TIP3    H147720   0.719   5.957  13.901 -0.1900  1.1498  0.2096
 8743TIP3    H247721   0.772   5.821  13.943  1.6590  1.2242 -1.7392
 8744TIP3   OH247722   3.338   6.117   1.291  0.0916 -0.0417 -0.3511
 8744TIP3    H147723   3.358   6.029   1.325  1.2730  0.3742  0.0844
 8744TIP3    H247724   3.244   6.114   1.271  0.3749 -1.8813 -1.7486
 8745TIP3   OH247725   1.454   2.345   3.384 -0.2700  0.2548  0.1847
 8745TIP3    H147726   1.538   2.302   3.397 -0.1503  0.2158 -0.6632
 8745TIP3    H247727   1.423   2.313   3.299 -0.3673  1.5026 -0.2787
 8746TIP3   OH247728   2.942   3.649  11.683 -0.2889 -0.6603 -0.4523
 8746TIP3    H147729   3.004   3.604  11.741  1.9892  4.3121  1.6455
 8746TIP3    H247730   2.984   3.645  11.597  1.6715  0.2414  0.3842
 8747TIP3   OH247731   0.600   5.044   0.620  0.2332 -0.3764  0.4018
 8747TIP3    H147732   0.672   5.064   0.560  0.5425 -0.0908  0.8641
 8747TIP3    H247733   0.537   5.115   0.606 -0.2662 -0.9763 -0.4740
 8748TIP3   OH247734   4.225   3.572  16.010 -0.0332  0.2971  0.1639
 8748TIP3    H147735   4.291   3.620  16.059 -0.0822 -0.2362  0.7739
 8748TIP3    H247736   4.155   3.557  16.073 -0.8419  1.0616 -0.5446
 8749TIP3   OH247737   1.499   1.866  15.765 -0.4624 -0.2600 -0.6101
 8749TIP3    H147738   1.530   1.927  15.831 -0.8147 -0.9235  0.1883
 8749TIP3    H247739   1.447   1.920  15.705 -0.9612  0.1994  0.2121
 8750TIP3   OH247740   4.376   2.379  15.362  0.1184  0.1610 -0.5789
 8750TIP3    H147741   4.331   2.314  15.308 -0.6940  1.7463 -1.8988
 8750TIP3    H247742   4.335   2.462  15.338  1.8917  1.3163  0.2276
 8751TIP3   OH247743   4.931   4.971   2.958 -0.2615 -0.3652  0.0572
 8751TIP3    H147744   5.010   5.022   2.975 -0.2201 -0.4200  0.0258
 8751TIP3    H247745   4.929   4.961   2.863  0.6341 -1.8778  0.1627
 8752TIP3   OH247746   2.303   2.630  14.572 -0.1049 -0.0506 -0.2417
 8752TIP3    H147747   2.274   2.587  14.491 -2.0206  1.5231 -0.4790
 8752TIP3    H247748   2.230   2.620  14.632 -0.3092  2.0964 -0.0497
 8753TIP3   OH247749   6.534   4.213   4.479  0.1944  0.6631  0.3927
 8753TIP3    H147750   6.452   4.261   4.472  0.3877  0.7793 -1.7148
 8753TIP3    H247751   6.570   4.239   4.564 -1.5418  1.2293  0.9884
 8754TIP3   OH247752   3.724   3.423  12.259 -0.8034 -0.2310 -0.6221
 8754TIP3    H147753   3.666   3.352  12.285  0.8005 -0.9220  1.3625
 8754TIP3    H247754   3.800   3.414  12.317 -0.1488  2.5778 -0.9092
 8755TIP3   OH247755   1.805   4.798   0.943  0.3376 -0.4485 -0.1313
 8755TIP3    H147756   1.793   4.706   0.969 -0.2249 -0.8630 -1.7475
 8755TIP3    H247757   1.739   4.812   0.875  1.5065  0.6766 -1.0655
 8756TIP3   OH247758   2.112   0.712   3.792  0.6526 -0.1356 -0.3868
 8756TIP3    H147759   2.155   0.780   3.740  1.6303 -1.5961 -1.6045
 8756TIP3    H247760   2.043   0.679   3.735 -0.1616  0.1719  0.4000
 8757TIP3   OH247761   6.786   4.245   4.155 -0.1689  0.2199 -0.4323
 8757TIP3    H147762   6.732   4.285   4.223  0.1088  1.3103 -0.8276
 8757TIP3    H247763   6.866   4.297   4.155  0.8614 -1.2918  0.0624
 8758TIP3   OH247764   6.515   1.344   4.116 -0.3702 -0.0879  0.2369
 8758TIP3    H147765   6.458   1.412   4.150  1.9693  1.4736  1.3040
 8758TIP3    H247766   6.516   1.359   4.021 -1.5065 -0.0108  0.2254
 8759TIP3   OH247767   4.148   2.710   6.263 -0.8104  0.2477  0.2876
 8759TIP3    H147768   4.230   2.691   6.309  0.3760  0.8980 -1.4718
 8759TIP3    H247769   4.093   2.634   6.280  1.3703 -1.7815 -1.1384
 8760TIP3   OH247770   1.913   5.931  11.921  0.2744 -0.5355  0.4932
 8760TIP3    H147771   1.877   5.949  12.008  1.3977  0.8741  0.7017
 8760TIP3    H247772   1.997   5.890  11.938  1.9470  2.4534  0.2483
 8761TIP3   OH247773   5.668   1.599   0.424  0.2373 -0.2854  0.0488
 8761TIP3    H147774   5.739   1.652   0.460 -1.3042  2.6033 -0.8655
 8761TIP3    H247775   5.669   1.618   0.330 -0.5334 -1.7585 -0.2938
 8762TIP3   OH247776   4.155   3.325   3.810  0.1955 -0.2201  0.3313
 8762TIP3    H147777   4.220   3.278   3.863  0.8543  2.2333  1.8499
 8762TIP3    H247778   4.195   3.331   3.723  1.7957  0.7326  1.0834
 8763TIP3   OH247779   5.356   5.120   0.720 -0.6395 -0.3873 -0.1734
 8763TIP3    H147780   5.423   5.059   0.752 -0.0733  1.7460  3.1700
 8763TIP3    H247781   5.283   5.111   0.781 -0.8367  1.6994 -0.0324
 8764TIP3   OH247782   0.902   5.215  16.202  0.2140 -0.3492 -0.0640
 8764TIP3    H147783   0.834   5.218  16.135 -0.0692 -2.0664  0.1013
 8764TIP3    H247784   0.968   5.155  16.167  2.1619  1.9485 -0.6314
 8765TIP3   OH247785   2.493   5.672  14.951 -0.2905  0.1942 -0.1582
 8765TIP3    H147786   2.407   5.634  14.932 -0.9143  1.0056  0.8988
 8765TIP3    H247787   2.555   5.613  14.909 -1.3227 -0.8435 -0.2956
 8766TIP3   OH247788   6.436   0.371  15.237 -0.1970 -0.0602 -0.1054
 8766TIP3    H147789   6.379   0.297  15.259 -0.6097  0.5480  0.9224
 8766TIP3    H247790   6.376   0.439  15.207 -0.3985  1.4869  3.3190
 8767TIP3   OH247791   3.229   1.972   5.633 -0.1135 -0.8490 -0.4147
 8767TIP3    H147792   3.175   2.015   5.699  0.1098 -2.9281  1.2446
 8767TIP3    H247793   3.310   2.023   5.629 -1.2129  0.9245 -1.2048
 8768TIP3   OH247794   4.622   1.588   2.088 -0.4440 -0.4778  0.6810
 8768TIP3    H147795   4.631   1.500   2.125 -1.2937 -0.9018 -0.0704
 8768TIP3    H247796   4.657   1.580   2.000 -0.1495  0.0552  0.7458
 8769TIP3   OH247797   5.987   2.268   1.759  0.0126 -0.4097  0.1834
 8769TIP3    H147798   6.060   2.328   1.769  0.6062 -1.0813 -0.0826
 8769TIP3    H247799   5.980   2.225   1.844 -0.0969 -0.3204  0.2198
 8770TIP3   OH247800   6.786   6.452  13.702  0.2503 -0.0050 -0.1196
 8770TIP3    H147801   6.778   6.389  13.773 -0.3476 -0.2458 -0.3875
 8770TIP3    H247802   6.772   6.400  13.623 -1.3007  0.6255 -0.2959
 8771TIP3   OH247803   1.485   1.663   3.546  0.3787  0.0960  0.3375
 8771TIP3    H147804   1.394   1.640   3.526  1.0886 -2.0060 -0.7193
 8771TIP3    H247805   1.502   1.623   3.631  0.8454 -1.1288 -0.3165
 8772TIP3   OH247806   1.680   0.831   1.204 -0.0546  0.1631  0.2049
 8772TIP3    H147807   1.674   0.787   1.289 -1.7269 -1.0000 -0.4706
 8772TIP3    H247808   1.590   0.852   1.181  0.4732  1.5708 -0.7525
 8773TIP3   OH247809   0.529   6.333   5.611 -1.2226  0.7157 -0.0533
 8773TIP3    H147810   0.485   6.319   5.527 -0.5605  2.1030 -0.6699
 8773TIP3    H247811   0.621   6.312   5.594 -1.5305 -2.0415  1.1961
 8774TIP3   OH247812   1.254   5.986   5.172  0.1009 -0.2347  0.1362
 8774TIP3    H147813   1.240   6.028   5.257 -1.1131  2.3462 -1.1988
 8774TIP3    H247814   1.166   5.964   5.141  0.4852 -0.7851 -0.6063
 8775TIP3   OH247815   2.125   6.059   5.066 -0.7204  0.0059 -0.0802
 8775TIP3    H147816   2.179   6.120   5.016 -0.3985  0.2142  0.5103
 8775TIP3    H247817   2.046   6.108   5.088 -0.8423 -0.0714 -0.3381
 8776TIP3   OH247818   3.545   2.191   2.657  0.4946 -0.6754  0.3334
 8776TIP3    H147819   3.630   2.210   2.697  0.3613 -2.4124  1.5565
 8776TIP3    H247820   3.491   2.159   2.729 -1.7408  1.7749 -0.1006
 8777TIP3   OH247821   0.486   2.929   0.282 -0.1662  0.4786  0.2097
 8777TIP3    H147822   0.581   2.935   0.298 -0.5680 -0.8256  3.8769
 8777TIP3    H247823   0.461   3.017   0.254  2.0290  0.9209 -0.5759
 8778TIP3   OH247824   4.237   6.413  13.186  0.6129 -0.4404 -0.5913
 8778TIP3    H147825   4.247   6.336  13.129  0.2550 -0.9637  0.0363
 8778TIP3    H247826   4.324   6.453  13.188  1.0421 -1.3626 -0.1925
 8779TIP3   OH247827   5.639   1.431   4.150 -0.3439 -0.0053  0.9486
 8779TIP3    H147828   5.644   1.526   4.139  0.0266 -0.2575 -1.7065
 8779TIP3    H247829   5.690   1.396   4.077 -2.1803 -2.2599  0.6273
 8780TIP3   OH247830   1.257   4.753  14.715  0.1743 -0.2342  0.2115
 8780TIP3    H147831   1.175   4.709  14.737 -0.5323  1.3182  0.8328
 8780TIP3    H247832   1.233   4.818  14.649  0.6078  1.1086  1.3155
 8781TIP3   OH247833   1.540   0.711  13.714 -0.2990  0.1135  0.3685
 8781TIP3    H147834   1.453   0.675  13.729 -0.8689  0.9294 -0.8635
 8781TIP3    H247835   1.541   0.793  13.764 -0.2779  0.1633  0.2867
 8782TIP3   OH247836   1.312   3.826   3.278 -0.0372 -0.1002 -0.4529
 8782TIP3    H147837   1.262   3.793   3.353  1.2455  0.2493  0.5949
 8782TIP3    H247838   1.259   3.897   3.243 -1.7270 -1.7013 -1.3056
 8783TIP3   OH247839   6.110   2.502   1.108  0.0465  0.0487 -0.3794
 8783TIP3    H147840   6.183   2.502   1.046 -0.0733  0.8298 -0.5284
 8783TIP3    H247841   6.085   2.594   1.115 -1.3341 -0.2754 -0.8100
 8784TIP3   OH247842   4.794   6.736   5.540 -0.7440 -0.0380  0.3707
 8784TIP3    H147843   4.773   6.829   5.535  0.0616  0.1031 -2.3208
 8784TIP3    H247844   4.843   6.727   5.622 -0.3784  2.0280  0.4531
 8785TIP3   OH247845   6.383   0.432   4.443  0.3778  0.0351 -0.3697
 8785TIP3    H147846   6.432   0.422   4.361 -0.2023  1.0674 -0.8527
 8785TIP3    H247847   6.308   0.487   4.421  1.4061  2.2739  1.3190
 8786TIP3   OH247848   6.503   1.836  13.748  0.0440 -0.1112 -0.5107
 8786TIP3    H147849   6.415   1.867  13.768 -1.6720 -3.7624 -1.4741
 8786TIP3    H247850   6.518   1.863  13.658 -1.1256 -1.3119 -1.1063
 8787TIP3   OH247851   2.595   3.547   2.163  0.4215  0.0056  0.3880
 8787TIP3    H147852   2.569   3.546   2.255  0.4474 -0.5547  0.3964
 8787TIP3    H247853   2.528   3.494   2.119 -0.0824  0.9926 -0.0584
 8788TIP3   OH247854   3.034   0.707  13.143  0.0875  0.0210  0.0924
 8788TIP3    H147855   2.965   0.653  13.104  0.7250 -1.4359  0.9197
 8788TIP3    H247856   3.021   0.794  13.103 -0.6123 -0.8535 -1.7152
 8789TIP3   OH247857   0.678   5.654  16.893 -0.0520  0.4186 -0.2233
 8789TIP3    H147858   0.645   5.596  16.825 -0.5245  1.2088 -0.6936
 8789TIP3    H247859   0.687   5.599  16.970  0.3763 -0.4744 -0.8898
 8790TIP3   OH247860   0.394   6.325   4.683  0.3834 -0.5181 -0.3254
 8790TIP3    H147861   0.341   6.260   4.729 -0.9246  1.2446  0.7839
 8790TIP3    H247862   0.477   6.279   4.665  0.1913 -1.9473  1.9682
 8791TIP3   OH247863   5.407   5.894   1.620  0.1844 -0.0216  0.0249
 8791TIP3    H147864   5.321   5.851   1.617  1.5109 -2.9240  0.1724
 8791TIP3    H247865   5.388   5.984   1.645 -2.9859  0.0266 -1.9912
 8792TIP3   OH247866   6.552   3.145  13.645 -0.4904  0.3608 -0.1413
 8792TIP3    H147867   6.620   3.213  13.641 -0.2061  0.2550  1.7324
 8792TIP3    H247868   6.588   3.072  13.595  1.7865 -0.4412  2.3900
 8793TIP3   OH247869   0.748   5.079  15.147 -0.7363 -0.1142  0.0649
 8793TIP3    H147870   0.701   5.040  15.074 -1.1902  1.6513 -0.6477
 8793TIP3    H247871   0.680   5.101  15.210 -0.6709  0.7013 -0.1312
 8794TIP3   OH247872   5.661   5.929  15.912  0.0601  0.2478 -0.0775
 8794TIP3    H147873   5.690   6.001  15.856 -0.2072  0.5716  0.2004
 8794TIP3    H247874   5.720   5.857  15.891  0.5419  0.6533 -0.1078
 8795TIP3   OH247875   6.432   1.013   4.838  0.5440  0.2363 -0.2949
 8795TIP3    H147876   6.454   1.106   4.825 -0.1784  0.5109  0.3289
 8795TIP3    H247877   6.488   0.985   4.910  0.8466  0.1458 -0.5598
 8796TIP3   OH247878   4.540   0.609  11.713  0.4592  0.1553  0.2282
 8796TIP3    H147879   4.531   0.686  11.657  1.1481 -0.2731 -0.5066
 8796TIP3    H247880   4.609   0.632  11.774 -0.1608  0.5531  0.7947
 8797TIP3   OH247881   2.276   2.811  15.098 -0.5338  0.4059 -0.8803
 8797TIP3    H147882   2.276   2.740  15.162 -1.0482  0.4806 -0.7960
 8797TIP3    H247883   2.367   2.814  15.066  0.2366  1.5583  1.1725
 8798TIP3   OH247884   3.528   3.869  16.472  0.1567 -0.0819 -0.1630
 8798TIP3    H147885   3.574   3.952  16.479 -0.7819  0.4243  0.2777
 8798TIP3    H247886   3.496   3.867  16.382  0.9017 -0.3711 -0.4274
 8799TIP3   OH247887   6.474   6.586   0.862  0.0112 -0.1370  0.0204
 8799TIP3    H147888   6.548   6.534   0.832 -1.2236 -0.6116 -2.4076
 8799TIP3    H247889   6.428   6.529   0.923 -0.0121 -1.0041 -0.7882
 8800TIP3   OH247890   1.202   6.607  14.457  0.1715  0.3313 -0.1100
 8800TIP3    H147891   1.229   6.520  14.487  1.3998  0.8466  0.3403
 8800TIP3    H247892   1.252   6.621  14.377  0.2848  0.7918  0.0392
 8801TIP3   OH247893   2.658   4.936   3.851 -0.1215  0.3696 -0.1949
 8801TIP3    H147894   2.750   4.954   3.871 -0.3746  2.1117 -0.4528
 8801TIP3    H247895   2.653   4.939   3.755 -0.6003  1.1497 -0.1511
 8802TIP3   OH247896   0.012   1.489   4.760 -0.3892  0.0181 -0.1242
 8802TIP3    H147897  -0.018   1.532   4.680  2.5597  1.3351 -0.6535
 8802TIP3    H247898   0.093   1.445   4.735  0.0688 -0.4123  1.9173
 8803TIP3   OH247899   0.520   2.468  15.046  1.1021  0.2839 -0.6189
 8803TIP3    H147900   0.572   2.477  15.126  0.1573  0.0587  0.0371
 8803TIP3    H247901   0.445   2.527  15.059  0.5765 -0.2731 -1.0290
 8804TIP3   OH247902   4.113   4.799   4.749 -0.1685 -0.3974 -0.0322
 8804TIP3    H147903   4.020   4.782   4.769 -0.1592 -1.1701 -0.5676
 8804TIP3    H247904   4.160   4.728   4.794  0.1434 -0.1616  0.0169
 8805TIP3   OH247905   0.669   6.743  16.548  0.1361  0.1807 -0.1447
 8805TIP3    H147906   0.699   6.694  16.471  0.7382 -1.1675  0.8884
 8805TIP3    H247907   0.700   6.690  16.622  1.4629  2.5269  1.0710
 8806TIP3   OH247908   3.614   1.131   5.334 -0.3584  0.2310  0.0074
 8806TIP3    H147909   3.543   1.194   5.348  1.1086  2.0912 -0.3789
 8806TIP3    H247910   3.656   1.122   5.419  0.2670  0.8935 -0.2164
 8807TIP3   OH247911   5.950   6.237  13.149 -0.4677 -0.1103 -0.1185
 8807TIP3    H147912   5.869   6.186  13.160 -0.8429  0.3735 -0.5340
 8807TIP3    H247913   6.020   6.173  13.153 -0.9144 -0.6207 -0.3080
 8808TIP3   OH247914   1.282   1.355  14.666 -0.1365  0.0882 -0.4720
 8808TIP3    H147915   1.282   1.307  14.583 -0.2085 -0.6568 -0.0537
 8808TIP3    H247916   1.284   1.286  14.733  0.0100  0.6811  0.1425
 8809TIP3   OH247917   3.617   3.905   4.244  0.0346 -0.1998 -0.0440
 8809TIP3    H147918   3.596   3.943   4.329 -0.8063  0.3058 -0.4771
 8809TIP3    H247919   3.577   3.963   4.180 -0.2726 -1.1621 -0.7559
 8810TIP3   OH247920   1.893   2.369  12.208  0.4515  0.3135  0.1340
 8810TIP3    H147921   1.846   2.435  12.258 -0.4461  1.2285 -1.7980
 8810TIP3    H247922   1.974   2.412  12.182  0.3961  0.2588 -0.1378
 8811TIP3   OH247923   1.388   4.592  14.917 -0.1772 -0.1862  0.2481
 8811TIP3    H147924   1.305   4.639  14.928 -1.2308 -1.8302 -0.2245
 8811TIP3    H247925   1.398   4.542  14.997  0.7472  0.5146  0.5907
 8812TIP3   OH247926   5.545   1.848   0.771  0.5150  0.4457 -0.3435
 8812TIP3    H147927   5.624   1.827   0.820  1.1566  2.0512 -0.6437
 8812TIP3    H247928   5.512   1.763   0.741  0.9521 -0.4239  1.5380
 8813TIP3   OH247929   5.437   1.103   4.525  0.4267  0.2048  0.0237
 8813TIP3    H147930   5.391   1.182   4.496 -0.1863  0.1084  0.7136
 8813TIP3    H247931   5.479   1.069   4.445  0.6590  1.1894 -0.2945
 8814TIP3   OH247932   3.372   2.368  14.107  0.2050 -0.1970 -0.7657
 8814TIP3    H147933   3.467   2.372  14.115  0.0028  0.1027  3.4724
 8814TIP3    H247934   3.346   2.295  14.163 -2.1710  1.3897  0.3580
 8815TIP3   OH247935   2.062   3.251  12.272 -0.1277  0.2277  0.1977
 8815TIP3    H147936   2.009   3.184  12.227  2.3748 -0.7882 -1.4499
 8815TIP3    H247937   2.139   3.204  12.302 -0.0546  1.6678  2.4843
 8816TIP3   OH247938   4.341   3.355   4.740  0.0088  0.3489  0.2020
 8816TIP3    H147939   4.251   3.350   4.772 -1.5261 -1.2962 -3.8147
 8816TIP3    H247940   4.362   3.266   4.712  2.2182  1.0791 -0.6888
 8817TIP3   OH247941   4.048   6.341   0.762 -0.6409 -0.3077  0.0072
 8817TIP3    H147942   4.082   6.365   0.676 -1.3843 -0.3418 -0.3125
 8817TIP3    H247943   4.119   6.293   0.804 -0.4901 -0.8494 -0.8394
 8818TIP3   OH247944   6.543   6.560  13.650 -0.1348 -0.2385 -0.0746
 8818TIP3    H147945   6.510   6.558  13.740 -1.4860 -0.0175 -0.5491
 8818TIP3    H247946   6.638   6.552  13.660 -0.1086  1.2101  1.4571
 8819TIP3   OH247947   6.102   1.427   5.893  0.1344 -0.5512  0.7159
 8819TIP3    H147948   6.111   1.510   5.845 -1.7539  0.7286  2.3969
 8819TIP3    H247949   6.165   1.433   5.964 -2.1987  1.0876  2.8353
 8820TIP3   OH247950   3.454   0.138   0.999  0.2445 -0.5065 -0.0778
 8820TIP3    H147951   3.527   0.199   1.010  2.3116 -2.6126 -1.0466
 8820TIP3    H247952   3.441   0.100   1.085 -2.8007  2.8778  1.2084
 8821TIP3   OH247953   3.115   6.179  16.046  0.1180 -0.1164  0.8851
 8821TIP3    H147954   3.120   6.245  15.977 -0.3589 -0.8734  0.1051
 8821TIP3    H247955   3.031   6.135  16.030  0.2225 -0.6138  1.6730
 8822TIP3   OH247956   0.340   4.115  11.957  0.2868  0.0218 -0.1183
 8822TIP3    H147957   0.350   4.073  12.042 -1.1089  1.1410  0.6462
 8822TIP3    H247958   0.419   4.168  11.947  0.7237 -0.5571  0.2095
 8823TIP3   OH247959   0.219   0.161  16.880  0.1681  0.2392 -0.2439
 8823TIP3    H147960   0.265   0.245  16.884  1.6950 -0.5503 -0.2610
 8823TIP3    H247961   0.251   0.120  16.800 -0.5793 -0.3543 -0.2514
 8824TIP3   OH247962   4.184   0.319   3.785  0.0690 -0.1383 -0.1768
 8824TIP3    H147963   4.140   0.249   3.738  0.6160 -0.1148 -0.7465
 8824TIP3    H247964   4.267   0.331   3.738  1.0894 -0.7864  1.3745
 8825TIP3   OH247965   1.638   3.531   3.423  0.3891  0.8551  0.3332
 8825TIP3    H147966   1.580   3.522   3.499 -1.0594  1.9467 -0.5774
 8825TIP3    H247967   1.645   3.626   3.410  0.0239  0.6769 -1.3018
 8826TIP3   OH247968   3.412   3.037   0.893 -0.0104  0.3646  0.2260
 8826TIP3    H147969   3.431   2.952   0.855 -2.5356 -0.4328  0.5536
 8826TIP3    H247970   3.448   3.032   0.982 -0.1097 -0.3712  0.2300
 8827TIP3   OH247971   2.638   4.393   5.687  0.2355  0.5091  0.1577
 8827TIP3    H147972   2.640   4.298   5.699 -0.7987  0.4798  0.1693
 8827TIP3    H247973   2.548   4.413   5.662  0.7302  1.3534 -1.0864
 8828TIP3   OH247974   2.196   6.222   0.121 -0.0093  0.0192 -0.0744
 8828TIP3    H147975   2.246   6.303   0.120 -1.6707  1.1815  2.1278
 8828TIP3    H247976   2.247   6.162   0.176  1.2003 -0.4763 -1.6717
 8829TIP3   OH247977   1.146   0.565   2.139  0.6667  0.2689  0.0441
 8829TIP3    H147978   1.234   0.541   2.112  1.5027  1.4246  1.6155
 8829TIP3    H247979   1.150   0.660   2.154 -0.1930  0.0107  2.3153
 8830TIP3   OH247980   0.621   1.002   0.067 -0.3235  0.5496  0.7005
 8830TIP3    H147981   0.581   1.070   0.120  0.1141  1.5199 -0.1677
 8830TIP3    H247982   0.554   0.979   0.002  0.6555  2.6542 -1.1795
 8831TIP3   OH247983   0.714   4.412   2.230 -0.2454 -0.1941  0.3435
 8831TIP3    H147984   0.678   4.355   2.298  1.0296 -0.3709  0.8994
 8831TIP3    H247985   0.760   4.353   2.170  0.3708  0.1493  0.4668
 8832TIP3   OH247986   5.095   0.525  14.517 -0.1528  0.9887  0.4430
 8832TIP3    H147987   5.092   0.514  14.612 -0.1593  2.4510  0.6371
 8832TIP3    H247988   5.170   0.583  14.502  0.0547  0.5109 -0.4811
 8833TIP3   OH247989   2.037   6.449  14.663 -0.2964  0.3425  0.3868
 8833TIP3    H147990   2.081   6.461  14.747  1.2326  0.2210 -0.3612
 8833TIP3    H247991   1.944   6.455  14.684 -0.0451 -1.6093  2.3981
 8834TIP3   OH247992   4.142   2.038   2.647 -0.7031 -0.3150 -0.0407
 8834TIP3    H147993   4.183   1.967   2.696  2.5152  1.3576 -0.0152
 8834TIP3    H247994   4.116   2.101   2.714 -2.6348 -0.9427 -0.1342
 8835TIP3   OH247995   3.073   4.670  14.925  0.5721  0.1681  0.4550
 8835TIP3    H147996   3.018   4.727  14.872  1.4525  1.1546  0.5699
 8835TIP3    H247997   3.141   4.727  14.960  0.9808 -0.7873  1.2908
 8836TIP3   OH247998   0.915   6.468  12.725 -0.5825 -0.0328  0.4102
 8836TIP3    H147999   0.898   6.389  12.777 -1.7451  1.1532  1.9037
 8836TIP3    H248000   0.844   6.471  12.661  0.4147 -1.0732 -0.7934
 8837TIP3   OH248001   5.711   1.912   1.159  0.2463  0.2407  0.5719
 8837TIP3    H148002   5.713   1.988   1.101 -1.1608 -0.5237 -0.5595
 8837TIP3    H248003   5.709   1.837   1.100  2.1796 -0.7356  1.6657
 8838TIP3   OH248004   4.992   2.573   1.828  0.5217 -0.8704 -0.5672
 8838TIP3    H148005   4.908   2.534   1.802 -0.0040  1.1376 -2.1522
 8838TIP3    H248006   4.980   2.597   1.920 -0.2822 -1.4579 -0.5048
 8839TIP3   OH248007   3.746   6.584   1.281  0.2506 -0.1792  0.0977
 8839TIP3    H148008   3.723   6.569   1.373  0.7971 -0.2547  0.2232
 8839TIP3    H248009   3.771   6.676   1.277 -0.8484  0.1286 -0.2079
 8840TIP3   OH248010   2.090   0.768   0.109  0.1166 -0.2155 -0.0231
 8840TIP3    H148011   2.056   0.737   0.193 -0.9359 -0.0689 -0.3770
 8840TIP3    H248012   2.114   0.689   0.062  1.9886 -0.2518  0.9082
 8841TIP3   OH248013   2.601   5.353  11.459  0.0064 -0.0137  0.7875
 8841TIP3    H148014   2.618   5.336  11.551  0.5713  0.7785  0.8412
 8841TIP3    H248015   2.548   5.433  11.459 -0.5210 -0.3530  0.4464
 8842TIP3   OH248016   3.522   2.306   0.069  0.2910  0.1753  0.3263
 8842TIP3    H148017   3.515   2.390   0.113 -0.1699  0.4192 -0.1993
 8842TIP3    H248018   3.606   2.310   0.023 -0.2388  0.8174 -0.6294
 8843TIP3   OH248019   2.701   0.985   5.623  0.3676  0.7803  0.3205
 8843TIP3    H148020   2.703   0.922   5.695  1.3760  0.7655  0.2890
 8843TIP3    H248021   2.787   0.978   5.582  0.3113  1.8088 -0.0011
 8844TIP3   OH248022   0.096   1.080   4.827  0.0826  0.4183 -0.5347
 8844TIP3    H148023   0.138   1.043   4.749 -0.4582  1.2439 -1.2519
 8844TIP3    H248024   0.018   1.123   4.793 -0.4372  0.3603  0.5472
 8845TIP3   OH248025   1.132   5.105   5.290 -0.2512  0.4002 -0.0346
 8845TIP3    H148026   1.040   5.088   5.308 -0.2234  1.5498  1.3489
 8845TIP3    H248027   1.157   5.036   5.228 -2.0880  0.2314 -0.6582
 8846TIP3   OH248028   2.610   1.883   5.244 -0.4247  0.0706 -0.2508
 8846TIP3    H148029   2.607   1.794   5.208  0.9577 -0.0255 -0.1880
 8846TIP3    H248030   2.690   1.921   5.208  0.2171  0.4838  1.5072
 8847TIP3   OH248031   0.272   6.409  10.205 -0.4544 -0.3377 -0.0221
 8847TIP3    H148032   0.277   6.473  10.276 -1.8940 -0.3166  0.0889
 8847TIP3    H248033   0.343   6.433  10.146 -0.4526  0.8541  0.4407
 8848TIP3   OH248034   6.194   4.818  11.913  0.1467 -0.2936  0.0178
 8848TIP3    H148035   6.103   4.848  11.914  0.7308  1.6019  0.5174
 8848TIP3    H248036   6.215   4.811  11.820 -0.2406  0.2100 -0.1186
 8849TIP3   OH248037   5.189   5.571   2.367 -0.3500 -0.2105  0.1548
 8849TIP3    H148038   5.210   5.646   2.311  0.1567  0.0812  0.7250
 8849TIP3    H248039   5.184   5.497   2.307 -1.9258  0.4414 -0.5908
 8850TIP3   OH248040   4.461   3.387   2.660 -0.2750  0.7478  0.0115
 8850TIP3    H148041   4.383   3.364   2.711  0.1784 -1.2730 -0.1031
 8850TIP3    H248042   4.479   3.308   2.609  1.7174  1.2706 -0.1512
 8851TIP3   OH248043   6.818   2.319   1.181 -0.2003 -0.5649  0.2758
 8851TIP3    H148044   6.842   2.412   1.182 -3.0418  0.2550  0.5028
 8851TIP3    H248045   6.793   2.300   1.271  0.5224 -1.6303  0.2658
 8852TIP3   OH248046   3.753   3.544  17.154  0.0958  0.0946  0.4372
 8852TIP3    H148047   3.674   3.587  17.121  0.7293 -0.6546 -2.2517
 8852TIP3    H248048   3.735   3.532  17.247 -3.0339 -0.1658 -0.0769
 8853TIP3   OH248049   3.928   1.099   1.690  0.4430  0.1195  0.0984
 8853TIP3    H148050   4.012   1.144   1.687 -0.6308  2.2188 -0.1627
 8853TIP3    H248051   3.870   1.159   1.737 -1.3252 -0.5258 -1.1472
 8854TIP3   OH248052   3.704   4.418  14.354 -0.0408  0.0994 -0.2308
 8854TIP3    H148053   3.644   4.430  14.427 -0.5108  0.5622 -0.6863
 8854TIP3    H248054   3.678   4.484  14.290 -0.1607 -0.8322 -1.1716
 8855TIP3   OH248055   2.001   2.056   3.342  0.3071 -0.9519  0.1747
 8855TIP3    H148056   2.062   2.105   3.286 -0.4694 -0.0076  0.1382
 8855TIP3    H248057   1.963   2.122   3.401 -0.8097 -1.4884  0.0843
 8856TIP3   OH248058   6.030   1.006   2.522  0.0420  0.3162  0.4736
 8856TIP3    H148059   5.944   1.007   2.481 -0.1586  0.7464  0.8961
 8856TIP3    H248060   6.072   0.927   2.488 -0.3775  0.3011 -0.0206
 8857TIP3   OH248061   5.139   6.308  11.281 -0.9932 -0.1295  0.4010
 8857TIP3    H148062   5.076   6.329  11.350  0.8932  5.0236  0.9885
 8857TIP3    H248063   5.224   6.315  11.324  0.1712 -0.8067 -1.6603
 8858TIP3   OH248064   0.533   5.664   2.349 -0.2067 -0.6572 -0.2990
 8858TIP3    H148065   0.489   5.724   2.289  0.7365  0.2550 -0.1068
 8858TIP3    H248066   0.513   5.698   2.436  0.4776 -0.4923 -0.1965
 8859TIP3   OH248067   1.762   4.967  13.463 -0.3538 -0.3269 -0.2305
 8859TIP3    H148068   1.829   5.028  13.435 -1.5222  0.3429 -1.7426
 8859TIP3    H248069   1.702   4.962  13.389 -1.0283 -2.2687  0.3800
 8860TIP3   OH248070   4.592   6.093   5.563  0.1985 -0.8525 -0.0438
 8860TIP3    H148071   4.611   6.000   5.564  0.1484 -0.8613  0.2334
 8860TIP3    H248072   4.502   6.099   5.530  1.0403 -0.7358 -2.4798
 8861TIP3   OH248073   3.353   2.725   2.726  0.4962 -0.0756  0.2820
 8861TIP3    H148074   3.372   2.636   2.757 -1.6178 -0.2252  1.3915
 8861TIP3    H248075   3.379   2.781   2.799  1.2048  0.1677 -0.1512
 8862TIP3   OH248076   2.374   2.951  14.543  0.4112  0.4584 -0.0367
 8862TIP3    H148077   2.370   2.857  14.527 -0.3618  0.2555  1.2384
 8862TIP3    H248078   2.347   2.990  14.460  0.1056 -0.4543 -0.3814
 8863TIP3   OH248079   2.828   1.076  15.790  0.4129  0.0494  0.3027
 8863TIP3    H148080   2.888   1.033  15.851  0.2530 -0.7766 -0.1185
 8863TIP3    H248081   2.856   1.168  15.791  2.0131 -0.3793 -0.2211
 8864TIP3   OH248082   4.509   0.984   3.166 -0.0856  0.6997 -0.5687
 8864TIP3    H148083   4.543   1.047   3.103  1.6574  0.4259  0.0398
 8864TIP3    H248084   4.587   0.943   3.204 -1.1340 -1.3605 -0.4708
 8865TIP3   OH248085   0.024   4.681  11.332 -0.5592 -0.1570  0.0163
 8865TIP3    H148086   0.047   4.594  11.364  0.7183 -0.1442 -0.7819
 8865TIP3    H248087  -0.038   4.715  11.396  0.8647 -0.6588  1.7517
 8866TIP3   OH248088   3.799   5.930   1.965 -0.2452 -0.0206  0.0360
 8866TIP3    H148089   3.889   5.898   1.970  0.5779  2.1383  0.4911
 8866TIP3    H248090   3.805   6.011   1.914 -1.4688  1.5065  2.1407
 8867TIP3   OH248091   3.428   3.641   5.575 -0.6055  0.2467 -0.4867
 8867TIP3    H148092   3.356   3.584   5.601  1.4814 -2.7251 -0.6741
 8867TIP3    H248093   3.488   3.639   5.649 -0.1696  1.6873 -0.7826
 8868TIP3   OH248094   0.232   2.991   0.147 -0.3875 -0.0548  0.2584
 8868TIP3    H148095   0.140   3.014   0.165 -0.0066  1.0894  0.8487
 8868TIP3    H248096   0.282   3.067   0.178  0.6740 -0.0854 -1.2775
 8869TIP3   OH248097   0.754   1.746  15.208  0.5894  0.2203 -0.6543
 8869TIP3    H148098   0.696   1.787  15.272 -0.7554 -0.2814 -1.5110
 8869TIP3    H248099   0.842   1.756  15.246 -0.0911  0.5185  0.9368
 8870TIP3   OH248100   3.649   2.456  15.310  0.4709  0.4436  0.2129
 8870TIP3    H148101   3.686   2.375  15.275  1.7861  0.2769  1.8200
 8870TIP3    H248102   3.582   2.482  15.248  2.0562 -0.2789 -1.9229
 8871TIP3   OH248103   2.541   6.745   3.131 -0.1916 -0.5365  0.1675
 8871TIP3    H148104   2.505   6.711   3.049  0.5018 -1.6001  0.2790
 8871TIP3    H248105   2.481   6.814   3.157  0.4131  0.9264 -2.0426
 8872TIP3   OH248106   3.171   6.045  12.783  0.8205  0.4275  0.1930
 8872TIP3    H148107   3.253   6.094  12.771  0.1918  1.0201 -2.4249
 8872TIP3    H248108   3.103   6.105  12.752 -0.5421 -0.3693  1.5103
 8873TIP3   OH248109   0.765   0.127   0.880  0.5055  0.6435  0.3141
 8873TIP3    H148110   0.805   0.048   0.916  0.7728  0.1682 -0.9458
 8873TIP3    H248111   0.675   0.125   0.912  0.6015 -0.0156  0.5519
 8874TIP3   OH248112   2.897   0.589   0.725 -0.1238 -0.2641  0.0406
 8874TIP3    H148113   2.833   0.522   0.753  0.7940 -1.3517 -0.3958
 8874TIP3    H248114   2.919   0.635   0.806 -0.4184 -0.7958  0.4336
 8875TIP3   OH248115   5.822   0.505   1.258 -0.5551 -0.4043  0.4389
 8875TIP3    H148116   5.789   0.524   1.346  0.4509 -0.0991  0.7614
 8875TIP3    H248117   5.808   0.585   1.209 -0.2068 -0.2467  0.5986
 8876TIP3   OH248118   3.693   0.290   2.068  0.3274 -0.1163 -0.4520
 8876TIP3    H148119   3.750   0.215   2.049  0.0034  0.1219 -2.7419
 8876TIP3    H248120   3.750   0.353   2.113  1.9819  0.1343 -2.6975
 8877TIP3   OH248121   5.214   5.034   3.019  0.2307  0.1226  0.6771
 8877TIP3    H148122   5.236   4.954   2.971 -0.3218  0.1917  0.3023
 8877TIP3    H248123   5.215   5.008   3.111 -0.8820 -0.5640  0.5180
 8878TIP3   OH248124   6.344   4.314   4.897  0.0739 -0.0502 -0.0122
 8878TIP3    H148125   6.375   4.320   4.987  0.4274  0.6244 -0.1647
 8878TIP3    H248126   6.304   4.400   4.880  1.4865  0.4484 -1.0086
 8879TIP3   OH248127   6.671   0.561  16.899 -0.2092 -0.2879  0.3190
 8879TIP3    H148128   6.705   0.632  16.955 -1.0958  1.0324 -0.7616
 8879TIP3    H248129   6.586   0.592  16.871  0.4762 -0.6000 -2.3115
 8880TIP3   OH248130   0.349   0.678  13.328 -0.7375 -0.1341  0.0252
 8880TIP3    H148131   0.442   0.698  13.316 -0.7072 -0.2717  0.0320
 8880TIP3    H248132   0.327   0.719  13.412 -1.0010  1.0191 -0.5786
 8881TIP3   OH248133   6.493   3.302  12.831  0.2788  0.1502 -0.2092
 8881TIP3    H148134   6.445   3.336  12.755 -0.5107 -0.0302  0.2011
 8881TIP3    H248135   6.505   3.209  12.811  1.0976  0.3456 -0.6408
 8882TIP3   OH248136   2.440   3.170  11.402 -0.1651  0.7870  0.3807
 8882TIP3    H148137   2.520   3.222  11.403  0.3352  0.0254  0.5612
 8882TIP3    H248138   2.417   3.160  11.494 -0.8881  1.6240  0.3040
 8883TIP3   OH248139   5.239   5.958  16.508  0.1044  0.0162  0.2461
 8883TIP3    H148140   5.247   6.049  16.478  1.3138 -0.6175 -1.5177
 8883TIP3    H248141   5.166   5.923  16.458  1.7104 -0.8607 -1.6053
 8884TIP3   OH248142   3.263   5.121   2.344  0.4582 -0.1723  0.8212
 8884TIP3    H148143   3.321   5.185   2.385 -0.0543 -0.2396  1.6819
 8884TIP3    H248144   3.253   5.052   2.409 -0.0971 -0.4571  0.4485
 8885TIP3   OH248145   2.731   0.264  11.125  0.2804 -0.2540 -0.1114
 8885TIP3    H148146   2.777   0.201  11.181  2.1524  1.9252  0.9806
 8885TIP3    H248147   2.694   0.211  11.055  0.7014 -2.6935  1.3819
 8886TIP3   OH248148   6.212   1.974   2.587  0.4633 -0.0697  0.2948
 8886TIP3    H148149   6.119   1.960   2.573  0.6600 -0.9062 -0.2600
 8886TIP3    H248150   6.254   1.895   2.553  1.2530 -0.5381  2.1961
 8887TIP3   OH248151   4.521   3.136  14.846  0.1212 -0.0027 -0.1329
 8887TIP3    H148152   4.604   3.183  14.838  1.0435 -1.3189  1.1484
 8887TIP3    H248153   4.505   3.099  14.759  2.5316 -2.2959  0.2581
 8888TIP3   OH248154   1.265   6.014  13.522 -0.1744  0.0159  0.7730
 8888TIP3    H148155   1.328   6.072  13.565  0.8953 -1.0831  0.7368
 8888TIP3    H248156   1.233   6.064  13.447  1.8280  0.0390 -0.1200
 8889TIP3   OH248157   1.701   4.184  15.048  0.4475 -0.1853  0.1460
 8889TIP3    H148158   1.648   4.200  15.127  0.7351 -1.6657  0.6771
 8889TIP3    H248159   1.652   4.227  14.977  1.5665  3.7086  1.4473
 8890TIP3   OH248160   1.811   2.708  11.853 -0.2178  0.0970 -0.1273
 8890TIP3    H148161   1.818   2.793  11.809 -0.4099 -1.0927 -2.5899
 8890TIP3    H248162   1.863   2.649  11.800 -0.7210 -1.5154  1.0995
 8891TIP3   OH248163   3.347   6.286   4.383  0.2891  0.0750 -0.1190
 8891TIP3    H148164   3.347   6.369   4.431  1.0051 -1.2028  2.2435
 8891TIP3    H248165   3.294   6.228   4.437 -0.8177 -0.8503 -2.1158
 8892TIP3   OH248166   6.074   5.507  15.475  0.1783 -0.0312  0.5062
 8892TIP3    H148167   6.125   5.505  15.394 -0.1226  1.0926  0.2657
 8892TIP3    H248168   6.137   5.483  15.543  0.6834 -0.0354  0.0491
 8893TIP3   OH248169   3.212   3.579   3.041  0.2676  0.0779  0.4040
 8893TIP3    H148170   3.179   3.503   2.994  0.3811 -0.7507  1.6093
 8893TIP3    H248171   3.202   3.652   2.980 -1.2601 -0.6314 -0.2351
 8894TIP3   OH248172   5.826   4.381  11.685  0.2121  0.2771 -0.1715
 8894TIP3    H148173   5.760   4.410  11.622  0.5010 -0.0050 -0.6089
 8894TIP3    H248174   5.891   4.335  11.632 -0.1291 -0.9985  0.4784
 8895TIP3   OH248175   4.598   1.045  12.243 -0.3585 -0.0775 -0.5466
 8895TIP3    H148176   4.652   1.123  12.257 -0.4558  0.6406 -3.4541
 8895TIP3    H248177   4.559   1.059  12.157 -2.3997 -2.2214 -0.0526
 8896TIP3   OH248178   2.416   4.968  13.842 -0.1709  0.2044 -0.6296
 8896TIP3    H148179   2.486   4.983  13.778  0.5200 -0.2950 -0.0178
 8896TIP3    H248180   2.462   4.937  13.920 -0.8011  2.3806  0.7027
 8897TIP3   OH248181   5.013   2.224   0.592  0.0091  0.4827  0.0583
 8897TIP3    H148182   5.101   2.255   0.569 -0.1564  0.9178  0.0024
 8897TIP3    H248183   4.994   2.156   0.526  0.4574  0.1044  0.3127
 8898TIP3   OH248184   5.771   5.423  11.309  0.1736 -0.4421  0.5541
 8898TIP3    H148185   5.852   5.466  11.333  0.2078  0.6903 -1.3330
 8898TIP3    H248186   5.777   5.336  11.346  2.0809 -0.2448  0.7765
 8899TIP3   OH248187   4.457   5.506   3.934 -0.4294 -0.4337  0.5688
 8899TIP3    H148188   4.488   5.539   4.018  0.3148  0.9114 -0.2032
 8899TIP3    H248189   4.368   5.475   3.951 -1.2800  2.2000  1.3318
 8900TIP3   OH248190   1.794   2.584  16.626  0.3111 -0.3995 -0.2817
 8900TIP3    H148191   1.716   2.585  16.681  0.4260 -1.9337 -0.0359
 8900TIP3    H248192   1.775   2.646  16.556 -0.4590  0.4445  0.6434
 8901TIP3   OH248193   2.653   4.048  15.596  0.1189  0.2669  0.3840
 8901TIP3    H148194   2.598   4.119  15.563  0.3616 -0.1424 -0.9626
 8901TIP3    H248195   2.710   4.025  15.522  0.8285 -0.5605  1.1579
 8902TIP3   OH248196   3.361   6.033   3.651  0.1387 -0.3550 -0.3255
 8902TIP3    H148197   3.442   5.984   3.662  0.9695  0.9019 -0.6851
 8902TIP3    H248198   3.299   5.990   3.711  0.8910 -1.6707 -0.4489
 8903TIP3   OH248199   6.163   0.820   1.738 -0.1535 -0.2363  0.0287
 8903TIP3    H148200   6.107   0.755   1.694  0.0877 -0.9722  0.7631
 8903TIP3    H248201   6.250   0.804   1.704  0.0479 -0.8599  0.7964
 8904TIP3   OH248202   0.591   5.955   2.579  0.0580  0.3682 -0.1400
 8904TIP3    H148203   0.677   5.971   2.540  0.2377  1.4447  0.6792
 8904TIP3    H248204   0.592   6.003   2.662 -0.7110 -1.0002  0.7060
 8905TIP3   OH248205   2.475   3.460  12.095 -0.5114 -0.7594 -0.2953
 8905TIP3    H148206   2.435   3.467  12.182  0.7511  2.6874  0.1481
 8905TIP3    H248207   2.539   3.389  12.104 -0.9263 -0.9708  1.3570
 8906TIP3   OH248208   0.110   0.303  11.994 -0.2244  0.0352  0.0039
 8906TIP3    H148209   0.090   0.340  12.079  0.8168  0.0455  0.2550
 8906TIP3    H248210   0.168   0.229  12.013 -0.3258 -0.2223 -0.6601
 8907TIP3   OH248211   4.444   5.240   0.643 -0.0722  0.5493 -0.0828
 8907TIP3    H148212   4.525   5.194   0.663  0.7341  1.3830 -1.2666
 8907TIP3    H248213   4.421   5.285   0.724  0.5383  0.1496  0.3208
 8908TIP3   OH248214   0.687   4.095   3.947 -0.1112 -0.0572 -0.0349
 8908TIP3    H148215   0.592   4.098   3.954 -0.0586 -0.0991  0.8496
 8908TIP3    H248216   0.718   4.153   4.017  0.5081  0.2937 -0.5861
 8909TIP3   OH248217   3.492   1.056   0.800 -0.0324 -0.4624 -0.0553
 8909TIP3    H148218   3.498   1.056   0.704 -0.1892 -0.0946 -0.0674
 8909TIP3    H248219   3.547   0.983   0.828 -0.2131 -0.7487 -0.4409
 8910TIP3   OH248220   0.795   5.985  13.306  0.1554  0.4765 -0.7972
 8910TIP3    H148221   0.713   5.937  13.303 -0.8908  2.0268  0.7741
 8910TIP3    H248222   0.770   6.077  13.296  1.4550  1.1339  1.3041
 8911TIP3   OH248223   5.365   1.992  16.004 -0.4124  0.5909  0.1456
 8911TIP3    H148224   5.311   1.939  16.063 -3.3974  3.1390 -0.0749
 8911TIP3    H248225   5.376   2.075  16.051  0.9519  1.1313 -1.0707
 8912TIP3   OH248226   3.912   1.412  15.030 -0.6635  0.0947  0.0109
 8912TIP3    H148227   3.850   1.428  15.101  0.6854  0.0875  1.2355
 8912TIP3    H248228   3.963   1.336  15.058 -1.4656 -1.2592 -1.9495
 8913TIP3   OH248229   0.683   3.010  15.455  0.1549 -0.2534 -0.2704
 8913TIP3    H148230   0.701   3.083  15.514  0.4235 -0.2579 -0.3486
 8913TIP3    H248231   0.760   3.004  15.399  0.3906 -0.9717  0.1231
 8914TIP3   OH248232   0.399   5.337   2.027  0.0990 -0.7198  0.1696
 8914TIP3    H148233   0.476   5.300   1.983  0.6277  0.6357 -0.1066
 8914TIP3    H248234   0.398   5.429   2.000 -0.7613 -0.3465  1.3790
 8915TIP3   OH248235   0.601   4.687  11.043 -0.1984  0.3620 -0.2346
 8915TIP3    H148236   0.570   4.638  10.967 -0.3038  0.0360  0.0166
 8915TIP3    H248237   0.586   4.779  11.021 -1.1445  0.2193 -0.2008
 8916TIP3   OH248238   5.103   4.073   6.250 -0.0489 -0.0239 -0.5545
 8916TIP3    H148239   5.014   4.061   6.215  0.2590  0.3927 -1.5323
 8916TIP3    H248240   5.105   4.165   6.276 -0.3177 -0.3675  0.7260
 8917TIP3   OH248241   5.669   0.634  16.858 -0.0097 -0.5440 -0.2269
 8917TIP3    H148242   5.588   0.674  16.891 -0.7840 -0.0985 -2.4785
 8917TIP3    H248243   5.729   0.708  16.844 -0.1601 -0.5500 -0.9798
 8918TIP3   OH248244   6.692   3.424   6.593  0.5587  0.1793 -0.4331
 8918TIP3    H148245   6.688   3.478   6.514  0.0645  1.7378  0.5909
 8918TIP3    H248246   6.634   3.350   6.574 -0.3872  1.0609 -1.1762
 8919TIP3   OH248247   2.871   1.137   4.238 -0.3702  0.0062 -0.2144
 8919TIP3    H148248   2.876   1.233   4.244  0.0409 -0.0460  0.5127
 8919TIP3    H248249   2.781   1.116   4.260 -0.2568  0.1862  0.4530
 8920TIP3   OH248250   3.041   0.226  16.684  0.0298 -0.6179 -0.1976
 8920TIP3    H148251   3.081   0.234  16.771  0.3777 -1.0693 -0.3082
 8920TIP3    H248252   2.963   0.281  16.688  1.0038  0.8297 -0.1795
 8921TIP3   OH248253   3.851   3.051  11.850  0.1687  0.7084  0.3337
 8921TIP3    H148254   3.821   3.087  11.933  0.5870 -0.2410  0.9256
 8921TIP3    H248255   3.771   3.024  11.804 -0.0398  0.8436  0.6188
 8922TIP3   OH248256   4.405   6.369  13.875 -0.5889 -0.6035 -0.0594
 8922TIP3    H148257   4.447   6.455  13.879  1.6223 -1.6311  2.9241
 8922TIP3    H248258   4.399   6.350  13.782  0.1247  2.1609 -0.7827
 8923TIP3   OH248259   2.963   2.227   5.854 -0.3073 -0.3065  0.0211
 8923TIP3    H148260   2.869   2.213   5.866 -0.9438  2.6454 -0.6643
 8923TIP3    H248261   2.972   2.322   5.847  3.0701 -0.2603  2.5345
 8924TIP3   OH248262   0.155   5.382  17.179 -0.1945  0.5462 -0.4227
 8924TIP3    H148263   0.074   5.417  17.144  0.8220  2.7789 -0.7503
 8924TIP3    H248264   0.207   5.460  17.202  1.5674 -0.7966  0.4298
 8925TIP3   OH248265   2.893   0.642  15.719 -0.6814 -0.2653 -0.5484
 8925TIP3    H148266   2.880   0.592  15.639  0.8206  0.8889 -1.5937
 8925TIP3    H248267   2.825   0.709  15.716  0.7008  1.1766 -2.1082
 8926TIP3   OH248268   0.835   2.731   1.174  0.2536  0.5287  0.4424
 8926TIP3    H148269   0.919   2.752   1.134  0.9100 -0.4381  1.2840
 8926TIP3    H248270   0.773   2.732   1.101  1.4870 -1.5497 -0.7279
 8927TIP3   OH248271   5.623   2.927   4.431 -0.2815 -0.1107 -0.0664
 8927TIP3    H148272   5.694   2.913   4.368  0.4437  1.5092  0.3470
 8927TIP3    H248273   5.544   2.929   4.378 -0.1016 -2.2394 -0.5055
 8928TIP3   OH248274   5.731   5.455   1.666 -0.4298  0.4101  0.1220
 8928TIP3    H148275   5.686   5.459   1.751 -0.7831 -0.9193  0.0078
 8928TIP3    H248276   5.663   5.430   1.604  0.1262 -0.0216 -0.3225
 8929TIP3   OH248277   1.626   2.888   5.859 -0.5147 -0.2211 -0.0020
 8929TIP3    H148278   1.589   2.866   5.944 -0.5181 -1.6304 -0.3525
 8929TIP3    H248279   1.588   2.974   5.838 -1.7972 -0.5975  0.6644
 8930TIP3   OH248280   6.489   5.710   2.824 -0.1074 -0.1869 -0.7029
 8930TIP3    H148281   6.445   5.780   2.777  0.5562 -0.4393 -1.7512
 8930TIP3    H248282   6.494   5.741   2.915  0.3685  1.2334 -1.1753
 8931TIP3   OH248283   4.571   5.517   0.115 -0.6437 -0.2530 -0.0812
 8931TIP3    H148284   4.538   5.573   0.044  0.1924 -0.1755 -0.4218
 8931TIP3    H248285   4.662   5.544   0.126 -0.2951 -1.3946 -0.0843
 8932TIP3   OH248286   6.350   6.193  14.286  0.0972  0.3272 -0.3485
 8932TIP3    H148287   6.296   6.269  14.302 -0.3578  0.0411 -0.5131
 8932TIP3    H248288   6.364   6.192  14.192 -0.4962 -0.1872 -0.4396
 8933TIP3   OH248289   5.869   3.118   3.782  0.4212 -0.2021  0.0991
 8933TIP3    H148290   5.788   3.133   3.732  1.1017  2.6299 -0.3189
 8933TIP3    H248291   5.912   3.045   3.737 -1.2592 -0.8882 -0.4761
 8934TIP3   OH248292   0.690   4.967   1.426  0.0438 -0.2600 -0.1747
 8934TIP3    H148293   0.734   5.009   1.352 -1.4931 -0.7083 -1.4031
 8934TIP3    H248294   0.748   4.895   1.451  0.5813 -0.1108 -0.9652
 8935TIP3   OH248295   6.407   2.439   5.921  0.0393  0.0485  0.0446
 8935TIP3    H148296   6.386   2.516   5.973 -1.8169 -0.6556  0.4329
 8935TIP3    H248297   6.339   2.437   5.854  1.5909  0.1763 -1.6223
 8936TIP3   OH248298   4.605   2.457   4.671  0.2925 -0.0179 -0.1240
 8936TIP3    H148299   4.587   2.385   4.611  1.5866  1.1953 -2.0845
 8936TIP3    H248300   4.623   2.532   4.614  0.3611  1.5290  1.8187
 8937TIP3   OH248301   2.102   5.945  13.840 -0.0675  0.3144  0.0740
 8937TIP3    H148302   2.069   5.863  13.802 -0.1957 -0.0035  0.8663
 8937TIP3    H248303   2.140   5.992  13.765  1.2532 -1.0753 -0.1856
 8938TIP3   OH248304   5.768   4.532  10.344 -0.0993 -0.0020  0.4295
 8938TIP3    H148305   5.745   4.613  10.299  0.6925 -0.4803 -0.8937
 8938TIP3    H248306   5.832   4.559  10.410  2.1327  0.2069 -1.6516
 8939TIP3   OH248307   5.148   6.136   2.821 -0.0963  0.1532  0.5903
 8939TIP3    H148308   5.233   6.179   2.833 -0.5828  0.8211  1.8114
 8939TIP3    H248309   5.085   6.208   2.821 -0.6621 -0.3344 -0.3712
 8940TIP3   OH248310   5.220   4.019   5.169 -0.2107  0.3407 -0.4298
 8940TIP3    H148311   5.185   4.091   5.116 -0.0422 -0.4547 -1.6779
 8940TIP3    H248312   5.308   4.048   5.194 -0.8134  1.3262  0.6685
 8941TIP3   OH248313   5.872   3.037  12.236  0.0384 -0.0659 -0.1567
 8941TIP3    H148314   5.890   2.955  12.282 -0.3250  0.6504  1.3139
 8941TIP3    H248315   5.895   3.106  12.298  3.0409  1.0909 -2.3134
 8942TIP3   OH248316   0.878   0.196  17.131 -0.7970  0.3231  0.1966
 8942TIP3    H148317   0.882   0.257  17.204 -0.1604  1.5366 -0.8149
 8942TIP3    H248318   0.909   0.113  17.167 -0.1120  0.9948  1.1992
 8943TIP3   OH248319   1.695   0.917   5.579  0.2486  0.0883 -0.0401
 8943TIP3    H148320   1.708   1.008   5.604 -0.6070 -0.3050  1.9912
 8943TIP3    H248321   1.634   0.882   5.644 -0.0195 -1.7525 -1.1958
 8944TIP3   OH248322   0.458   0.213   2.890  0.0953 -0.0278 -0.0862
 8944TIP3    H148323   0.510   0.242   2.965  0.8374  1.2425 -1.0520
 8944TIP3    H248324   0.512   0.235   2.814 -0.0254 -2.5387 -0.9736
 8945TIP3   OH248325   6.132   6.103  10.552  0.0562 -0.3581 -0.1560
 8945TIP3    H148326   6.111   6.114  10.459  1.2150  1.7638 -0.2240
 8945TIP3    H248327   6.073   6.034  10.581 -1.4382 -0.0006 -2.1050
 8946TIP3   OH248328   6.087   0.083  14.922 -0.2702 -0.0390 -0.2380
 8946TIP3    H148329   6.122   0.046  15.003 -0.1303  1.2453  0.3115
 8946TIP3    H248330   5.995   0.098  14.941  0.1491  2.0357  0.3929
 8947TIP3   OH248331   1.060   4.196  11.033  0.3982 -0.8612  0.2363
 8947TIP3    H148332   1.149   4.231  11.045  0.7922 -0.7686 -2.4257
 8947TIP3    H248333   1.018   4.256  10.972 -1.4778 -1.0229  1.2907
 8948TIP3   OH248334   5.874   3.845   4.717 -0.2470  0.0886 -0.2447
 8948TIP3    H148335   5.895   3.811   4.804  0.8701  0.8907 -0.1898
 8948TIP3    H248336   5.845   3.768   4.668 -1.3501 -0.2980  0.9591
 8949TIP3   OH248337   4.067   5.112   1.986 -0.2859 -0.1234 -0.3029
 8949TIP3    H148338   4.138   5.048   1.991  0.0451  0.2291 -0.4079
 8949TIP3    H248339   3.989   5.060   1.967  0.2688 -0.3293 -2.2699
 8950TIP3   OH248340   1.172   6.730  14.855 -0.0648  0.2921  0.1504
 8950TIP3    H148341   1.233   6.799  14.829 -0.6409  0.6725 -0.2001
 8950TIP3    H248342   1.102   6.777  14.900  0.2424 -0.2174  1.1973
 8951TIP3   OH248343   0.322   3.374   5.513 -0.2332  0.7578 -1.2669
 8951TIP3    H148344   0.340   3.332   5.429  0.3466  2.0923 -1.8325
 8951TIP3    H248345   0.229   3.396   5.510 -0.4824 -0.2167 -1.0720
 8952TIP3   OH248346   4.905   1.613   4.061  0.1222 -0.2768  0.2638
 8952TIP3    H148347   4.878   1.574   4.144  2.2954 -1.7136  0.3569
 8952TIP3    H248348   4.927   1.539   4.005 -0.6694  0.6876 -1.4262
 8953TIP3   OH248349   0.340   1.526   0.026 -0.0847 -0.0810 -0.5291
 8953TIP3    H148350   0.414   1.585   0.013  0.6635 -0.9984 -0.5535
 8953TIP3    H248351   0.293   1.562   0.100  0.5573  0.3567 -0.3287
 8954TIP3   OH248352   3.386   4.013  11.286 -0.3828 -0.1435 -0.1634
 8954TIP3    H148353   3.302   3.967  11.287  0.9658 -2.8729  1.8705
 8954TIP3    H248354   3.411   4.020  11.378  2.4845 -1.3429 -0.7336
 8955TIP3   OH248355   5.611   1.510   2.995  0.0159  0.2926 -0.4885
 8955TIP3    H148356   5.605   1.594   3.041 -0.1345 -0.3379  0.6968
 8955TIP3    H248357   5.697   1.512   2.953  0.1757  0.8877 -0.1505
 8956TIP3   OH248358   2.028   0.424  13.188 -0.4425  0.5451 -0.4212
 8956TIP3    H148359   2.110   0.388  13.154  0.1936 -0.6985  2.1710
 8956TIP3    H248360   2.054   0.506  13.232 -0.7336  0.6021 -0.3496
 8957TIP3   OH248361   6.172   6.023  15.869  0.4879 -0.1076  0.4398
 8957TIP3    H148362   6.124   5.952  15.827  1.5270 -0.3356 -0.4088
 8957TIP3    H248363   6.152   6.015  15.962 -1.4694  0.0951  0.0829
 8958TIP3   OH248364   4.091   1.037  15.814 -0.1917  0.0909 -0.3751
 8958TIP3    H148365   4.074   0.969  15.880  1.3454  0.7212  0.7324
 8958TIP3    H248366   4.120   1.113  15.865 -2.4837  1.8752 -1.5041
 8959TIP3   OH248367   3.596   0.647   6.340  0.0384  0.0588  0.0535
 8959TIP3    H148368   3.542   0.717   6.375 -0.1711 -0.6463  1.1636
 8959TIP3    H248369   3.581   0.573   6.398  0.9103 -0.6574 -0.6031
 8960TIP3   OH248370   6.723   5.072   6.351  0.2952 -0.6794 -0.0552
 8960TIP3    H148371   6.769   5.132   6.410 -1.9136 -0.1196  1.2055
 8960TIP3    H248372   6.785   5.001   6.336  1.3940 -0.2286  1.9590
 8961TIP3   OH248373   5.385   6.807  10.330  0.1985  0.0962 -0.1168
 8961TIP3    H148374   5.378   6.738  10.396  1.5831  1.2293  1.3170
 8961TIP3    H248375   5.363   6.888  10.378 -0.2248  0.7928 -1.4350
 8962TIP3   OH248376   0.383   5.610   2.104 -0.2193  0.3792 -0.5095
 8962TIP3    H148377   0.416   5.583   2.190  1.4675  1.9972 -0.5789
 8962TIP3    H248378   0.291   5.630   2.119  0.4069  2.2438  1.3857
 8963TIP3   OH248379   0.980   3.009   0.678 -0.0135  0.1356 -0.0755
 8963TIP3    H148380   0.925   2.932   0.662  1.5988 -0.9274 -0.6805
 8963TIP3    H248381   0.963   3.032   0.770 -0.8084 -0.6741 -0.0061
 8964TIP3   OH248382   1.366   5.479   3.226 -0.3581  0.4506  0.2240
 8964TIP3    H148383   1.361   5.473   3.322 -0.0829 -0.0656  0.2074
 8964TIP3    H248384   1.426   5.551   3.210 -0.9265  0.9790  0.4391
 8965TIP3   OH248385   1.225   2.536  14.520  0.5888 -0.0727 -0.1699
 8965TIP3    H148386   1.186   2.623  14.517  0.0491 -0.3157 -0.3167
 8965TIP3    H248387   1.161   2.480  14.477 -0.0207 -0.9139  1.7437
 8966TIP3   OH248388   5.047   5.915   1.821 -0.7600  0.6064 -0.4862
 8966TIP3    H148389   5.099   5.847   1.865  0.5991  0.6231 -1.9735
 8966TIP3    H248390   5.050   5.989   1.881  0.7097  0.4984 -0.3723
 8967TIP3   OH248391   1.064   5.456  13.897 -0.5685 -0.1142 -0.3473
 8967TIP3    H148392   1.106   5.407  13.826  0.9938  0.0547  0.4147
 8967TIP3    H248393   1.063   5.396  13.971 -1.4749 -0.0241 -0.2765
 8968TIP3   OH248394   4.003   2.540   2.659 -0.1709  0.1591 -0.5620
 8968TIP3    H148395   4.039   2.456   2.629  0.7616  0.2381  0.3197
 8968TIP3    H248396   4.077   2.600   2.658 -0.2995  0.3778  1.0677
 8969TIP3   OH248397   6.808   5.035  16.793 -0.0910  0.5983  0.2759
 8969TIP3    H148398   6.840   4.980  16.721 -0.1593  2.9332 -1.6643
 8969TIP3    H248399   6.713   5.039  16.781 -0.3570 -0.5920  1.7464
 8970TIP3   OH248400   2.932   2.588  12.812 -0.2356  0.1370 -0.0967
 8970TIP3    H148401   2.974   2.578  12.727 -1.2281  2.4583 -0.9285
 8970TIP3    H248402   2.969   2.668  12.848 -2.7508  1.4633 -0.2124
 8971TIP3   OH248403   0.162   0.057   5.961  0.1079  0.3101 -0.4515
 8971TIP3    H148404   0.201  -0.019   5.918  1.8957  2.5304 -3.0823
 8971TIP3    H248405   0.235   0.116   5.978 -1.0579  1.0487  2.5967
 8972TIP3   OH248406   4.052   2.121   2.181  0.0101 -0.0216 -0.7260
 8972TIP3    H148407   4.003   2.107   2.100 -0.2477 -0.0344 -0.5696
 8972TIP3    H248408   3.987   2.107   2.250 -0.6597  3.2198 -0.5476
 8973TIP3   OH248409   3.099   3.124  15.255 -0.1213  0.0928 -0.5367
 8973TIP3    H148410   3.091   3.192  15.321 -3.9211 -0.1627 -0.5064
 8973TIP3    H248411   3.162   3.062  15.292  1.6275  2.3503  0.4828
 8974TIP3   OH248412   4.482   3.701   4.850 -0.2519 -0.1527 -0.0856
 8974TIP3    H148413   4.511   3.623   4.804  1.9137  1.3318 -1.3916
 8974TIP3    H248414   4.467   3.671   4.940 -1.3846 -2.4280 -0.9606
 8975TIP3   OH248415   3.359   2.827   3.709  0.1033  0.4215  0.3064
 8975TIP3    H148416   3.384   2.917   3.686  0.8449  0.3284  0.7217
 8975TIP3    H248417   3.405   2.809   3.791 -1.9652  0.4963  1.5446
 8976TIP3   OH248418   3.931   2.570   5.081 -0.0236 -0.8889 -0.0393
 8976TIP3    H148419   3.876   2.495   5.103 -0.0494 -0.5381  1.1580
 8976TIP3    H248420   3.911   2.635   5.148 -1.3293  0.8970 -2.0594
 8977TIP3   OH248421   1.732   2.626   1.420  0.6254  0.2266 -0.0697
 8977TIP3    H148422   1.695   2.691   1.361 -0.2837  1.0915  1.3748
 8977TIP3    H248423   1.823   2.654   1.433  1.0201 -0.3092 -1.4613
 8978TIP3   OH248424   4.325   0.551   4.309  0.4852 -0.3950 -0.4909
 8978TIP3    H148425   4.359   0.631   4.350  0.0921 -0.6687  0.3959
 8978TIP3    H248426   4.376   0.542   4.228  0.0016  1.1645 -0.9931
 8979TIP3   OH248427   0.543   3.798  11.945  0.2143 -0.3596  0.5051
 8979TIP3    H148428   0.592   3.766  11.870 -1.0407  1.2604 -1.0872
 8979TIP3    H248429   0.541   3.893  11.934  0.2079 -0.0334  2.7537
 8980TIP3   OH248430   0.192   0.128   2.535  0.0664  0.8880  0.4247
 8980TIP3    H148431   0.144   0.151   2.614  2.3628 -0.0183  2.2203
 8980TIP3    H248432   0.190   0.207   2.481 -0.3984  2.0211  2.0399
 8981TIP3   OH248433   1.322   4.897   5.869  0.4108  0.3829 -0.6004
 8981TIP3    H148434   1.397   4.944   5.907  1.0443 -1.0891  0.0754
 8981TIP3    H248435   1.253   4.906   5.934  0.4719  0.5466 -0.5579
 8982TIP3   OH248436   2.824   4.779   2.957  0.5543 -0.5686  0.0685
 8982TIP3    H148437   2.901   4.723   2.949  0.7171 -0.4660  0.7720
 8982TIP3    H248438   2.761   4.744   2.895  0.5906 -1.6334  0.6123
 8983TIP3   OH248439   3.427   2.723   3.319  0.2090 -0.2950  0.4607
 8983TIP3    H148440   3.433   2.651   3.256 -1.2274 -0.1653  0.1513
 8983TIP3    H248441   3.335   2.747   3.319  0.5751  1.1918  0.9735
 8984TIP3   OH248442   6.527   0.466   2.885 -0.5177  0.1305 -0.0114
 8984TIP3    H148443   6.462   0.414   2.838 -1.5237 -0.9028  2.3181
 8984TIP3    H248444   6.486   0.552   2.895 -0.0026  0.5852 -1.5179
 8985TIP3   OH248445   4.423   4.735  11.536 -0.5921 -0.1273 -0.3851
 8985TIP3    H148446   4.497   4.794  11.526  0.0751 -0.6175  1.3218
 8985TIP3    H248447   4.350   4.780  11.494  0.4889  0.7250 -1.3808
 8986TIP3   OH248448   3.710   3.241   1.239  0.1281 -0.0360 -0.7231
 8986TIP3    H148449   3.798   3.227   1.273  0.3762 -0.2038 -1.4164
 8986TIP3    H248450   3.694   3.335   1.249 -0.0220 -0.1689  0.3570
 8987TIP3   OH248451   5.973   4.372  13.797 -0.1257 -0.1979 -0.3183
 8987TIP3    H148452   5.962   4.366  13.702 -0.9308  1.3238 -0.3692
 8987TIP3    H248453   5.902   4.320  13.833 -0.8246  0.5528 -0.5825
 8988TIP3   OH248454   6.322   1.876  14.189  0.4384  0.4124 -0.2373
 8988TIP3    H148455   6.389   1.933  14.225  0.2595  0.3245  0.2374
 8988TIP3    H248456   6.300   1.816  14.260 -0.3999  0.6753 -0.2631
 8989TIP3   OH248457   3.125   4.895   2.836 -0.7429 -0.4800  0.0331
 8989TIP3    H148458   3.055   4.861   2.780 -0.2018 -2.2153  0.3466
 8989TIP3    H248459   3.176   4.818   2.859  0.9017  0.6627  0.3410
 8990TIP3   OH248460   4.776   3.535  14.290  0.1539 -0.5004  0.3398
 8990TIP3    H148461   4.788   3.497  14.203 -1.1694 -1.5153  0.5619
 8990TIP3    H248462   4.728   3.616  14.274 -0.9491 -1.1659  0.1715
 8991TIP3   OH248463   6.656   1.728  12.758  0.9186 -0.1479 -0.6051
 8991TIP3    H148464   6.640   1.757  12.848  0.8198  0.5929 -0.8572
 8991TIP3    H248465   6.671   1.634  12.766  2.3574  0.1243  0.3822
 8992TIP3   OH248466   4.711   5.961   0.783 -0.3096 -0.6702  0.0334
 8992TIP3    H148467   4.800   5.969   0.749 -0.0019 -0.4084  0.8733
 8992TIP3    H248468   4.661   5.920   0.712  0.0308  0.9435 -1.1982
 8993TIP3   OH248469   4.595   3.772  11.174  0.4269 -0.0613  0.1054
 8993TIP3    H148470   4.601   3.768  11.269 -2.0986 -1.5268  0.2844
 8993TIP3    H248471   4.588   3.681  11.146 -0.7242  0.4180 -1.2963
 8994TIP3   OH248472   1.751   3.232  13.339 -0.1098 -0.0405 -0.5444
 8994TIP3    H148473   1.799   3.266  13.414 -0.2584 -3.4076  1.2468
 8994TIP3    H248474   1.818   3.206  13.277  0.2818 -1.4637  0.4381
 8995TIP3   OH248475   1.521   2.508   2.004  0.5053 -0.0660 -0.3916
 8995TIP3    H148476   1.606   2.466   2.016  0.5991 -0.2127 -1.4459
 8995TIP3    H248477   1.505   2.555   2.086  0.9515 -1.1665  0.3569
 8996TIP3   OH248478   4.908   2.668   3.785  0.4557  0.7038 -0.1500
 8996TIP3    H148479   4.869   2.695   3.701  1.4450  2.3958 -0.1164
 8996TIP3    H248480   4.951   2.585   3.766 -2.2339 -0.7175 -0.4246
 8997TIP3   OH248481   0.125   4.681  12.222  0.0139  0.0619  0.3675
 8997TIP3    H148482   0.095   4.764  12.258  0.0970  0.0568  0.4494
 8997TIP3    H248483   0.098   4.615  12.286 -0.9731 -0.0983 -0.1953
 8998TIP3   OH248484   1.585   3.865   1.665 -0.2119 -0.6570 -0.0387
 8998TIP3    H148485   1.550   3.953   1.673  1.5343  0.0611  0.1106
 8998TIP3    H248486   1.574   3.842   1.573  0.8865  0.4100 -0.4460
 8999TIP3   OH248487   2.728   0.948  11.348 -0.3143  0.3787 -0.5646
 8999TIP3    H148488   2.778   0.911  11.275  1.4575  0.2003  0.6653
 8999TIP3    H248489   2.778   1.025  11.375 -1.4099  0.9394 -0.0730
 9000TIP3   OH248490   2.548   1.888   5.853  0.1860  0.5288  0.0245
 9000TIP3    H148491   2.558   1.793   5.866 -0.0462  0.3180 -1.2250
 9000TIP3    H248492   2.496   1.896   5.774  1.1762  1.7094 -0.5410
 9001TIP3   OH248493   3.024   0.010   0.119  0.3333 -0.2019  0.4534
 9001TIP3    H148494   2.964  -0.032   0.057 -0.0667  1.0299 -0.0265
 9001TIP3    H248495   3.056   0.088   0.073 -0.7242  1.3037  2.0861
 9002TIP3   OH248496   4.834   6.647   4.227 -0.3570  0.3014  0.1545
 9002TIP3    H148497   4.915   6.596   4.232  0.8791  2.1948  0.6286
 9002TIP3    H248498   4.863   6.738   4.231 -2.4168  1.0991 -1.2289
 9003TIP3   OH248499   4.196   1.085   1.426 -0.4139  0.0872 -0.4866
 9003TIP3    H148500   4.155   1.076   1.340 -0.3780 -1.4133 -0.3676
 9003TIP3    H248501   4.160   1.013   1.477  2.5268 -1.4843 -0.4416
 9004TIP3   OH248502   0.283   4.515  10.709 -0.0414 -0.3585 -0.2119
 9004TIP3    H148503   0.321   4.592  10.752 -1.1925 -0.2143  0.6168
 9004TIP3    H248504   0.343   4.444  10.731 -0.2114 -0.1425  1.0642
 9005TIP3   OH248505   2.030   1.459  12.266  0.0713  0.4788  0.0145
 9005TIP3    H148506   1.987   1.444  12.350  0.9082  1.2613  0.5968
 9005TIP3    H248507   1.959   1.462  12.203 -0.6019  0.3003  0.7480
 9006TIP3   OH248508   0.789   5.441   1.407  0.1369 -0.2876  0.8315
 9006TIP3    H148509   0.833   5.422   1.490  2.3098 -1.0783 -0.4360
 9006TIP3    H248510   0.834   5.517   1.371 -0.7350  0.0059  0.3141
 9007TIP3   OH248511   2.846   5.740  14.809 -0.5476 -0.1293  0.2474
 9007TIP3    H148512   2.883   5.706  14.728  1.0472  0.3865  0.7208
 9007TIP3    H248513   2.790   5.812  14.782  0.3180  0.3170 -0.3720
 9008TIP3   OH248514   2.320   0.494  13.826  0.1026  0.5178 -0.7983
 9008TIP3    H148515   2.250   0.513  13.764  0.4872  1.0523 -1.0689
 9008TIP3    H248516   2.400   0.501  13.775  0.4216  0.9405 -0.2431
 9009TIP3   OH248517   0.329   2.416   0.819 -0.2935  0.2880 -0.0321
 9009TIP3    H148518   0.269   2.366   0.875 -0.4333  1.3876  0.8470
 9009TIP3    H248519   0.403   2.357   0.804  0.0991  0.1902  1.9556
 9010TIP3   OH248520   5.773   5.512  11.991 -0.2560  0.0319 -0.2503
 9010TIP3    H148521   5.744   5.591  12.036 -1.2742 -0.3872 -0.1314
 9010TIP3    H248522   5.868   5.516  11.993 -0.2432 -0.1003  2.1607
 9011TIP3   OH248523   6.347   4.158   1.265  0.5748  0.2418  0.1498
 9011TIP3    H148524   6.273   4.107   1.300  1.1705  0.4392  1.7945
 9011TIP3    H248525   6.344   4.240   1.313  2.4625 -0.1439  1.0298
 9012TIP3   OH248526   2.694   3.456  15.689  0.3470 -0.2481  0.3681
 9012TIP3    H148527   2.645   3.397  15.632 -1.0360  1.5924 -0.4547
 9012TIP3    H248528   2.775   3.409  15.709 -0.6585 -2.3596 -0.2832
 9013TIP3   OH248529   2.111   1.132   2.414 -0.3757  0.4828 -0.2854
 9013TIP3    H148530   2.205   1.145   2.406 -0.5468  1.5285 -0.8686
 9013TIP3    H248531   2.073   1.200   2.358 -1.4466 -1.1516 -1.6624
 9014TIP3   OH248532   2.378   2.615  13.995 -0.3068 -0.2829  0.0201
 9014TIP3    H148533   2.394   2.582  14.083  0.6800  0.8880  0.3049
 9014TIP3    H248534   2.465   2.633  13.960 -0.6264 -1.6019 -1.5645
 9015TIP3   OH248535   1.279   0.188  15.761 -0.5990 -0.5817 -0.2207
 9015TIP3    H148536   1.270   0.176  15.667 -0.6634  1.8313 -0.6016
 9015TIP3    H248537   1.272   0.100  15.798 -1.8753 -1.4544 -2.3552
 9016TIP3   OH248538   5.539   1.318   0.730  0.6290 -0.0008 -1.1280
 9016TIP3    H148539   5.592   1.295   0.806  0.5540  1.5033 -0.5777
 9016TIP3    H248540   5.449   1.297   0.756  0.5457  0.9706 -0.5900
 9017TIP3   OH248541   0.570   6.654  15.317 -0.2381  0.7101 -0.5758
 9017TIP3    H148542   0.488   6.682  15.359 -0.3391 -1.9450  1.2885
 9017TIP3    H248543   0.637   6.671  15.383  0.9478  3.4553 -2.3204
 9018TIP3   OH248544   1.372   4.166  12.657  0.9410  0.3542  0.1186
 9018TIP3    H148545   1.327   4.092  12.698 -1.5800  1.7245 -0.0110
 9018TIP3    H248546   1.404   4.217  12.731  0.7869  0.2568  0.2536
 9019TIP3   OH248547   4.246   0.374   4.074 -0.0405 -0.0112  0.3429
 9019TIP3    H148548   4.172   0.351   4.130 -0.9744  0.9447 -0.4690
 9019TIP3    H248549   4.222   0.343   3.987  1.0377 -0.7391  0.2810
 9020TIP3   OH248550   3.874   4.461   2.034  0.0197 -0.1877 -0.0526
 9020TIP3    H148551   3.841   4.481   1.946 -0.0178 -1.2644 -0.3061
 9020TIP3    H248552   3.808   4.496   2.093 -1.8724 -2.6321 -0.5535
 9021TIP3   OH248553   0.680   0.106   5.236 -0.1008  0.4313 -0.1727
 9021TIP3    H148554   0.723   0.125   5.152 -0.3417  0.1807 -0.3535
 9021TIP3    H248555   0.735   0.150   5.301 -0.0978  0.9056 -0.4902
 9022TIP3   OH248556   6.744   3.907  14.639  0.5313 -0.1261  0.6164
 9022TIP3    H148557   6.662   3.859  14.625 -0.3147  1.0522  1.3054
 9022TIP3    H248558   6.728   3.993  14.600  1.7524 -0.1425  0.0467
 9023TIP3   OH248559   0.430   5.360  16.661  0.5212 -0.3190  0.4112
 9023TIP3    H148560   0.340   5.372  16.632  0.8187  0.1826 -0.3344
 9023TIP3    H248561   0.483   5.394  16.589  1.3456 -2.2677  0.0267
 9024TIP3   OH248562   6.046   1.779   5.914  0.3149 -0.2786 -0.1593
 9024TIP3    H148563   6.006   1.848   5.966 -0.5863 -0.5214 -0.5145
 9024TIP3    H248564   6.100   1.730   5.976  1.5458  1.1526 -0.0310
 9025TIP3   OH248565   0.002   3.180  12.970  0.4674  0.3665  0.2904
 9025TIP3    H148566   0.009   3.176  12.875  1.8425 -0.1818  0.3903
 9025TIP3    H248567  -0.058   3.253  12.986 -1.4133 -0.8051 -1.0147
 9026TIP3   OH248568   1.778   2.269  16.321  0.3820  0.0081  0.2164
 9026TIP3    H148569   1.763   2.185  16.278 -1.0912  0.4960 -0.2909
 9026TIP3    H248570   1.812   2.326  16.252 -3.1023  1.1395 -0.8115
 9027TIP3   OH248571   5.495   3.294   3.367  0.2443 -0.1996  0.5890
 9027TIP3    H148572   5.488   3.347   3.288  0.3394  1.8014  1.8616
 9027TIP3    H248573   5.581   3.251   3.359  0.3150  0.0914 -0.3188
 9028TIP3   OH248574   0.136   4.882  11.682 -0.0998 -0.1671 -0.1779
 9028TIP3    H148575   0.069   4.843  11.627 -1.0725  1.0695  0.1010
 9028TIP3    H248576   0.176   4.949  11.627  0.1007 -0.0965  0.0525
 9029TIP3   OH248577   0.783   3.607   5.370  0.1103  0.0620 -0.0223
 9029TIP3    H148578   0.844   3.681   5.376  0.5178 -0.1394 -1.3645
 9029TIP3    H248579   0.697   3.648   5.371  0.3272  0.5459 -0.5692
 9030TIP3   OH248580   5.841   5.576  13.685  0.2532  0.1119  0.0723
 9030TIP3    H148581   5.935   5.562  13.679  0.1242 -0.3400 -1.4480
 9030TIP3    H248582   5.803   5.488  13.686 -0.1912  0.2772 -0.7837
 9031TIP3   OH248583   6.474   1.294   0.430  0.5661  0.5816 -0.2681
 9031TIP3    H148584   6.512   1.355   0.367  1.9215 -2.1044 -2.2762
 9031TIP3    H248585   6.383   1.283   0.401  1.1551 -0.5703 -1.8578
 9032TIP3   OH248586   3.017   1.716   1.989  0.5994 -0.1929  0.6431
 9032TIP3    H148587   3.012   1.682   1.900  1.2720  1.9068 -0.2699
 9032TIP3    H248588   2.928   1.745   2.009 -0.0280 -2.4819  1.5084
 9033TIP3   OH248589   3.442   5.288   1.673 -0.1074  0.1497 -0.4660
 9033TIP3    H148590   3.394   5.263   1.752 -1.2616  2.4188 -0.3735
 9033TIP3    H248591   3.497   5.361   1.700  2.3952 -1.4456 -0.9467
 9034TIP3   OH248592   2.604   2.144  11.407 -0.3536 -0.1048 -0.2185
 9034TIP3    H148593   2.603   2.219  11.466  2.2337  2.2852 -2.8931
 9034TIP3    H248594   2.667   2.084  11.446  1.3122  1.4279 -0.4262
 9035TIP3   OH248595   0.869   3.354   1.101  0.2923  0.2269 -0.1687
 9035TIP3    H148596   0.900   3.435   1.061 -1.4912  0.1652 -1.8438
 9035TIP3    H248597   0.869   3.290   1.030 -0.4392 -0.6232  0.5669
 9036TIP3   OH248598   4.812   2.229  11.550 -0.7586  0.2103 -0.6045
 9036TIP3    H148599   4.840   2.270  11.468 -1.0009  0.1110 -0.7351
 9036TIP3    H248600   4.886   2.173  11.575 -1.0859 -0.5470 -1.2841
 9037TIP3   OH248601   0.873   1.913  15.746  0.1934 -0.2353  0.0636
 9037TIP3    H148602   0.894   1.958  15.665 -0.8895  0.8237  0.3462
 9037TIP3    H248603   0.825   1.835  15.718 -0.1430  0.1073 -0.3164
 9038TIP3   OH248604   3.576   1.238  13.622 -0.0154  0.1949  0.2507
 9038TIP3    H148605   3.651   1.196  13.663  0.0603 -0.0029 -0.0938
 9038TIP3    H248606   3.596   1.239  13.528 -1.2737 -1.5827 -0.0989
 9039TIP3   OH248607   4.408   0.743  15.239  0.0844 -0.0718 -0.3358
 9039TIP3    H148608   4.442   0.695  15.164  1.4725 -1.0223  0.8427
 9039TIP3    H248609   4.484   0.786  15.277 -0.7990  1.3566 -0.1298
 9040TIP3   OH248610   2.959   3.975  10.264 -0.2005 -0.0333  0.5049
 9040TIP3    H148611   2.884   3.930  10.303 -0.5676  2.5542  3.0698
 9040TIP3    H248612   2.921   4.032  10.197 -0.1373 -0.8295 -0.2284
 9041TIP3   OH248613   4.766   5.580   1.945 -0.9195 -0.1970 -0.1378
 9041TIP3    H148614   4.718   5.525   1.883  0.4375 -0.0924 -1.3538
 9041TIP3    H248615   4.759   5.669   1.908 -0.4368 -0.0713  0.0560
 9042TIP3   OH248616   2.552   4.680   5.539 -0.0092  0.3451  0.5118
 9042TIP3    H148617   2.531   4.635   5.457 -2.4299 -0.8298  1.6432
 9042TIP3    H248618   2.645   4.698   5.534  0.5381 -2.3419 -1.2613
 9043TIP3   OH248619   3.825   1.388  13.812  0.0741  0.3348  0.1251
 9043TIP3    H148620   3.831   1.328  13.737 -1.2508  0.8995 -0.4719
 9043TIP3    H248621   3.892   1.358  13.872  2.2303  0.7585 -1.9154
 9044TIP3   OH248622   6.492   6.356  11.103 -0.0988  0.0408  0.0959
 9044TIP3    H148623   6.514   6.321  11.017 -0.4212  1.2968 -0.5164
 9044TIP3    H248624   6.407   6.399  11.092  0.5219  1.5023  0.6440
 9045TIP3   OH248625   4.408   1.583   4.900  0.4809 -0.5500 -0.3901
 9045TIP3    H148626   4.463   1.631   4.838  2.4400  0.2941  1.7992
 9045TIP3    H248627   4.337   1.643   4.920  0.9424  0.0003 -0.3635
 9046TIP3   OH248628   0.199   4.445   2.565 -0.1436 -0.2944 -0.2772
 9046TIP3    H148629   0.105   4.425   2.562  0.1510 -2.1065  1.1971
 9046TIP3    H248630   0.208   4.503   2.640 -0.0753 -0.1106 -0.4263
 9047TIP3   OH248631   4.773   4.345   5.780  0.0552 -0.1455 -0.4359
 9047TIP3    H148632   4.684   4.326   5.809  0.5091 -1.0712  0.4598
 9047TIP3    H248633   4.763   4.394   5.699 -1.2667 -0.1402 -0.2844
 9048TIP3   OH248634   4.471   1.429   5.250 -0.1074  0.3658 -0.4440
 9048TIP3    H148635   4.375   1.430   5.256 -0.0489  0.7057  0.7092
 9048TIP3    H248636   4.498   1.361   5.311  0.4353  1.3789  0.4831
 9049TIP3   OH248637   0.658   6.201  16.616  0.0037  0.1913 -0.0565
 9049TIP3    H148638   0.625   6.269  16.557 -0.7746 -1.5837 -1.7881
 9049TIP3    H248639   0.730   6.160  16.568 -1.8358 -2.5238 -0.7135
 9050TIP3   OH248640   4.234   3.819   1.927 -0.2143  0.1299  0.0363
 9050TIP3    H148641   4.271   3.791   1.843  0.7180  0.4960  0.3071
 9050TIP3    H248642   4.217   3.913   1.915  1.1229  0.4654  0.6596
 9051TIP3   OH248643   5.716   5.220  15.900 -0.0613  0.4575 -0.2290
 9051TIP3    H148644   5.770   5.256  15.970 -0.0052  2.0236 -1.0306
 9051TIP3    H248645   5.759   5.248  15.820 -0.3833 -0.9075 -0.9086
 9052TIP3   OH248646   5.893   4.995  15.668 -0.3899 -0.4899 -0.1470
 9052TIP3    H148647   5.881   5.041  15.584 -1.1170  0.4061  0.4312
 9052TIP3    H248648   5.986   5.005  15.688 -0.5665  0.8557  0.0326
 9053TIP3   OH248649   1.626   6.224  15.764 -0.7301 -0.3248  0.1602
 9053TIP3    H148650   1.569   6.163  15.811 -1.0539 -0.4031 -0.3252
 9053TIP3    H248651   1.589   6.310  15.783 -1.0526 -0.3814 -0.2149
 9054TIP3   OH248652   6.779   1.116   4.398 -0.1645  0.3899  0.7162
 9054TIP3    H148653   6.844   1.185   4.409  1.4957 -0.9929  0.1131
 9054TIP3    H248654   6.804   1.050   4.463 -0.8890 -0.2292  0.3781
 9055TIP3   OH248655   0.975   3.706  12.855  0.0372 -0.0008 -0.6967
 9055TIP3    H148656   0.978   3.770  12.926  0.1739  0.6765 -1.3040
 9055TIP3    H248657   0.902   3.734  12.800 -1.7139 -1.9720  0.5020
 9056TIP3   OH248658   0.528   6.562  14.049 -0.1686 -0.1794  0.2360
 9056TIP3    H148659   0.472   6.509  13.992  0.8228 -1.2725  0.2489
 9056TIP3    H248660   0.558   6.501  14.117  2.5559 -0.1475 -0.8372
 9057TIP3   OH248661   5.818   0.448   3.044 -0.0237 -0.1596  0.0497
 9057TIP3    H148662   5.866   0.422   2.965 -1.9282  0.4260 -1.3742
 9057TIP3    H248663   5.873   0.515   3.084  0.9917 -0.4799 -0.7536
 9058TIP3   OH248664   6.116   4.479  12.286 -0.0086  0.0362 -0.3431
 9058TIP3    H148665   6.207   4.462  12.312  0.4101 -0.7625 -2.1295
 9058TIP3    H248666   6.065   4.414  12.332  0.4770 -0.2582 -0.2077
 9059TIP3   OH248667   5.675   1.743  15.401  0.7581  0.3725 -0.3392
 9059TIP3    H148668   5.694   1.678  15.333  0.8877  0.2361 -0.1739
 9059TIP3    H248669   5.747   1.734  15.464  0.9696  0.9256 -0.4933
 9060TIP3   OH248670   4.988   2.039  16.799  0.1595 -0.3688  0.0924
 9060TIP3    H148671   4.895   2.035  16.823  0.5923 -1.7966  1.6787
 9060TIP3    H248672   4.992   2.111  16.736 -2.0646 -0.4467 -0.2445
 9061TIP3   OH248673   3.387   6.439   2.573 -0.6886 -0.4440  0.5925
 9061TIP3    H148674   3.457   6.374   2.586 -0.2190  0.2177  1.3910
 9061TIP3    H248675   3.352   6.455   2.660 -0.2469  0.9861  0.5341
 9062TIP3   OH248676   4.453   1.063  14.591 -0.4889  0.2638 -0.3313
 9062TIP3    H148677   4.367   1.079  14.629 -0.7699 -0.7534 -0.5030
 9062TIP3    H248678   4.474   1.143  14.542 -1.7793  0.1563 -1.1039
 9063TIP3   OH248679   6.319   1.790   6.156  0.1683  0.2112  0.1524
 9063TIP3    H148680   6.333   1.695   6.164  1.4335  0.4493  0.8855
 9063TIP3    H248681   6.232   1.804   6.194 -0.8519 -0.8721 -1.6042
 9064TIP3   OH248682   4.451   5.169  13.216 -0.1484  0.7158  0.1478
 9064TIP3    H148683   4.472   5.168  13.310 -0.7774 -0.9672  0.3060
 9064TIP3    H248684   4.450   5.076  13.191 -0.7995  1.0964 -1.3390
 9065TIP3   OH248685   6.657   5.377   4.105 -0.1443  0.4906 -0.1234
 9065TIP3    H148686   6.693   5.447   4.051 -1.1295 -0.2688 -1.8662
 9065TIP3    H248687   6.731   5.318   4.120  0.0269  0.4049 -1.2140
 9066TIP3   OH248688   5.514   1.347   6.487  0.4605 -0.0951 -0.0641
 9066TIP3    H148689   5.573   1.346   6.411  1.3672  0.3501  0.6253
 9066TIP3    H248690   5.561   1.395   6.554 -0.2061 -0.7499  0.9031
 9067TIP3   OH248691   3.275   4.052   2.764 -0.0457 -0.2407  0.6965
 9067TIP3    H148692   3.328   3.996   2.708  1.7606  0.4979  1.5951
 9067TIP3    H248693   3.313   4.139   2.754  0.8924 -0.2246  3.6383
 9068TIP3   OH248694   2.529   2.900   6.085  0.1806 -0.5040 -0.2055
 9068TIP3    H148695   2.453   2.849   6.114 -0.0178 -0.4024 -0.5498
 9068TIP3    H248696   2.581   2.913   6.165 -0.4456 -0.0863  0.1379
 9069TIP3   OH248697   0.119   3.840  10.651  0.1296  0.4248  0.0442
 9069TIP3    H148698   0.051   3.899  10.618 -2.2618 -1.0442  2.0343
 9069TIP3    H248699   0.086   3.753  10.632  1.3528 -0.3462  1.2709
 9070TIP3   OH248700   3.201   0.173   3.397  0.1761 -0.5231 -0.3466
 9070TIP3    H148701   3.111   0.153   3.423  0.5545  0.0841  1.6067
 9070TIP3    H248702   3.244   0.088   3.393 -0.1853 -0.7244 -0.0807
 9071TIP3   OH248703   0.781   6.451  13.590 -0.2140 -0.2453 -0.0582
 9071TIP3    H148704   0.744   6.533  13.558 -1.7998 -0.5918  0.7742
 9071TIP3    H248705   0.747   6.385  13.530 -2.4517 -0.7824  1.6714
 9072TIP3   OH248706   2.942   3.622   0.460  0.4984 -0.2184  0.3733
 9072TIP3    H148707   2.924   3.604   0.552  0.6843  1.7242  0.8412
 9072TIP3    H248708   2.860   3.657   0.426  0.5823 -0.4380 -0.0619
 9073TIP3   OH248709   5.609   6.108   1.237 -0.5315 -0.2229  0.5236
 9073TIP3    H148710   5.551   6.044   1.194 -0.4354  0.4936 -0.7283
 9073TIP3    H248711   5.692   6.062   1.247 -0.9468 -0.8526  1.2076
 9074TIP3   OH248712   5.794   3.887  16.600 -0.6565 -0.9139  0.1752
 9074TIP3    H148713   5.775   3.886  16.694  1.0723  0.3093  0.5946
 9074TIP3    H248714   5.804   3.980  16.578  1.5088 -1.2529 -0.5966
 9075TIP3   OH248715   2.512   6.708   4.654  0.1608  0.5782 -0.3638
 9075TIP3    H148716   2.502   6.738   4.744  1.1250  1.4409 -0.5282
 9075TIP3    H248717   2.562   6.626   4.661 -0.6398  0.1100 -0.0557
 9076TIP3   OH248718   6.392   1.651  12.602 -0.0404  0.1471 -0.2666
 9076TIP3    H148719   6.480   1.674  12.630 -0.4939 -0.4273  1.8439
 9076TIP3    H248720   6.394   1.557  12.588 -0.5254 -0.0127  0.6910
 9077TIP3   OH248721   2.746   1.246  14.510 -0.5673  0.4144  0.5671
 9077TIP3    H148722   2.837   1.222  14.494 -0.4275  1.0486  0.3793
 9077TIP3    H248723   2.720   1.194  14.586 -0.3732 -0.5409 -0.0085
 9078TIP3   OH248724   4.957   2.282  15.897 -0.4871  0.2736  0.1319
 9078TIP3    H148725   4.912   2.198  15.903 -0.5820  0.3904  1.3222
 9078TIP3    H248726   4.933   2.316  15.811 -1.4132 -0.3807  0.1158
 9079TIP3   OH248727   0.083   5.750  14.895  0.2192 -0.0441  0.1015
 9079TIP3    H148728   0.024   5.713  14.961 -1.4861  1.1837 -0.6745
 9079TIP3    H248729   0.108   5.835  14.931  0.6483 -0.0823 -0.0969
 9080TIP3   OH248730   6.723   3.459   4.632  0.8758 -0.0056  0.1715
 9080TIP3    H148731   6.658   3.441   4.564  0.6399 -0.8935  0.6151
 9080TIP3    H248732   6.743   3.373   4.669  0.3131  0.5546  1.8518
 9081TIP3   OH248733   1.980   1.976   4.628  0.1806  0.5854  0.5066
 9081TIP3    H148734   1.990   2.020   4.543  0.1644 -0.1577  0.1144
 9081TIP3    H248735   1.956   2.047   4.688 -0.6839  0.9962 -0.2890
 9082TIP3   OH248736   5.623   2.445  16.807 -0.1275 -0.3408  0.0244
 9082TIP3    H148737   5.657   2.467  16.893 -1.2553  1.4308  0.0642
 9082TIP3    H248738   5.664   2.508  16.748  0.8143 -1.6756 -0.8145
 9083TIP3   OH248739   1.346   2.259  10.823 -0.2874 -0.0839  0.1212
 9083TIP3    H148740   1.346   2.256  10.728 -0.2607 -2.3095  0.1271
 9083TIP3    H248741   1.390   2.178  10.850 -0.6644  0.2831  2.0174
 9084TIP3   OH248742   1.779   0.882   0.243 -0.5075 -0.1356 -0.0546
 9084TIP3    H148743   1.862   0.855   0.281  0.2288  1.7503 -0.2312
 9084TIP3    H248744   1.801   0.953   0.182 -2.1998  0.2300 -0.3108
 9085TIP3   OH248745   5.935   5.505   2.205  0.2591  0.1758 -0.2448
 9085TIP3    H148746   6.010   5.557   2.233  0.9741 -1.0990  0.3104
 9085TIP3    H248747   5.972   5.421   2.179 -1.0926 -1.0934  1.5948
 9086TIP3   OH248748   6.192   4.759  15.861 -0.7172 -0.1470 -0.0723
 9086TIP3    H148749   6.171   4.817  15.788  0.0060  0.2562  0.0299
 9086TIP3    H248750   6.285   4.739  15.850 -0.0185  1.6173  1.8727
 9087TIP3   OH248751   2.479   2.222  10.432  0.3707 -0.5815  0.2703
 9087TIP3    H148752   2.497   2.286  10.500  1.0348  1.7291 -1.9380
 9087TIP3    H248753   2.530   2.145  10.458  0.8394  0.3077  2.1653
 9088TIP3   OH248754   2.309   0.668  15.754  0.2354 -0.4984 -0.4718
 9088TIP3    H148755   2.295   0.647  15.846 -0.4898 -0.7480 -0.6381
 9088TIP3    H248756   2.225   0.651  15.712  0.7763 -1.1110 -1.3191
 9089TIP3   OH248757   3.514   0.817   5.051  0.7820  0.0294 -0.3534
 9089TIP3    H148758   3.543   0.905   5.076  0.6223  0.0212 -0.1402
 9089TIP3    H248759   3.501   0.822   4.956 -1.3356  0.8594 -0.0719
 9090TIP3   OH248760   5.897   6.165  13.528 -0.2013 -1.0369 -0.4265
 9090TIP3    H148761   5.902   6.209  13.613  0.8333 -1.4424 -0.2583
 9090TIP3    H248762   5.949   6.086  13.539  0.6106 -0.7029 -1.6742
 9091TIP3   OH248763   0.001   6.187  11.401 -0.7887  0.0387 -0.4547
 9091TIP3    H148764  -0.057   6.247  11.448 -1.8924 -1.5511  0.3080
 9091TIP3    H248765   0.082   6.236  11.390 -0.7873  0.8410  2.3139
 9092TIP3   OH248766   0.405   3.438  15.677 -0.3669  0.3885 -0.7087
 9092TIP3    H148767   0.395   3.371  15.609 -2.9053 -1.3928  1.2659
 9092TIP3    H248768   0.446   3.393  15.750 -2.2168  0.8884  0.6997
 9093TIP3   OH248769   6.589   1.103  14.822 -0.7052  0.3514  0.2481
 9093TIP3    H148770   6.499   1.072  14.816  0.1376 -2.0723 -3.8924
 9093TIP3    H248771   6.609   1.138  14.735  2.4515  0.2719  0.8053
 9094TIP3   OH248772   3.727   5.475   5.748 -0.1888  0.6245  0.3377
 9094TIP3    H148773   3.776   5.548   5.786 -0.1127  0.7921 -0.0764
 9094TIP3    H248774   3.690   5.511   5.667  2.3869 -0.6092 -1.5306
 9095TIP3   OH248775   4.706   3.905  15.037 -0.1510  0.2554  0.3561
 9095TIP3    H148776   4.760   3.828  15.051  1.8795  1.4535 -0.4744
 9095TIP3    H248777   4.705   3.918  14.943  0.3111  1.7480  0.5351
 9096TIP3   OH248778   2.570   5.023  14.566  0.3027 -0.0251 -0.4410
 9096TIP3    H148779   2.547   4.938  14.529  1.6569 -1.2828  1.4589
 9096TIP3    H248780   2.547   5.086  14.497  1.0932 -2.0685 -2.7082
 9097TIP3   OH248781   2.227   1.421   2.645 -0.5127 -0.5701 -0.2235
 9097TIP3    H148782   2.281   1.368   2.585 -3.3290 -2.3677 -1.3636
 9097TIP3    H248783   2.290   1.477   2.690  2.4813 -3.4514 -0.4204
 9098TIP3   OH248784   3.788   0.592   3.069  0.2441  0.0439  0.7002
 9098TIP3    H148785   3.779   0.506   3.027  0.3338 -1.0252  2.7291
 9098TIP3    H248786   3.698   0.619   3.088  0.2723 -0.2464  1.2619
 9099TIP3   OH248787   2.221   2.434  13.822  0.0456 -0.3663 -0.1471
 9099TIP3    H148788   2.272   2.355  13.841 -1.7511 -1.2738  1.1880
 9099TIP3    H248789   2.263   2.503  13.873 -0.4092 -1.2514  1.4938
 9100TIP3   OH248790   5.563   6.771  13.718  0.1694 -0.3591 -0.0561
 9100TIP3    H148791   5.503   6.799  13.788 -1.5990 -1.8242 -0.9143
 9100TIP3    H248792   5.586   6.680  13.741  0.5687 -0.4391 -0.7361
 9101TIP3   OH248793   3.858   6.331   1.273  0.1927 -0.0872  0.4714
 9101TIP3    H148794   3.816   6.417   1.269  0.0612 -0.1945 -1.0069
 9101TIP3    H248795   3.790   6.269   1.246  1.0310 -0.3375 -1.2322
 9102TIP3   OH248796   6.498   5.853   2.537  0.2540  0.0700  0.0790
 9102TIP3    H148797   6.513   5.939   2.497  0.0649  0.1544  0.1891
 9102TIP3    H248798   6.425   5.867   2.598  0.4289 -0.0945  0.3322
 9103TIP3   OH248799   2.868   3.159  13.157 -0.6705  0.4244 -0.0530
 9103TIP3    H148800   2.937   3.215  13.121  1.0543 -1.0291  0.8279
 9103TIP3    H248801   2.787   3.193  13.119  0.5583  1.9487 -1.4525
 9104TIP3   OH248802   1.744   5.243  15.040  0.2355  0.0629  0.6479
 9104TIP3    H148803   1.757   5.331  15.074 -0.5927 -0.5103  2.6001
 9104TIP3    H248804   1.827   5.198  15.056 -0.0764 -0.1372  1.7309
 9105TIP3   OH248805   4.336   3.441  11.863  0.3469  0.1786  0.2926
 9105TIP3    H148806   4.366   3.465  11.951  3.2090  1.7153 -0.9729
 9105TIP3    H248807   4.412   3.399  11.823 -0.4577  0.6580 -1.8765
 9106TIP3   OH248808   3.481   5.280  12.098  0.1601  0.8151  0.7638
 9106TIP3    H148809   3.400   5.326  12.123 -0.7575 -0.9437  1.1966
 9106TIP3    H248810   3.512   5.328  12.021 -1.2778  1.5703  0.6077
 9107TIP3   OH248811   3.972   2.157  12.711  0.2205 -0.0208  0.2737
 9107TIP3    H148812   3.881   2.162  12.741  0.0099 -1.0885 -0.1580
 9107TIP3    H248813   4.023   2.162  12.792 -0.1973  0.9021  0.4990
 9108TIP3   OH248814   5.346   2.726   0.309  0.1784 -0.8516  0.0040
 9108TIP3    H148815   5.263   2.689   0.278  1.0835 -1.6953 -1.5426
 9108TIP3    H248816   5.378   2.663   0.373 -1.0034  0.1762  1.6879
 9109TIP3   OH248817   2.466   0.171  12.873 -0.0400  0.8908  0.0615
 9109TIP3    H148818   2.392   0.143  12.819  0.3126 -0.9392  0.4704
 9109TIP3    H248819   2.475   0.102  12.939  1.3528  1.6272  0.6831
 9110TIP3   OH248820   6.746   0.180  13.273 -0.1928  0.1125  0.5900
 9110TIP3    H148821   6.681   0.109  13.272  0.4353 -0.4750  1.0231
 9110TIP3    H248822   6.800   0.162  13.349  0.3730  0.7042  0.3324
 9111TIP3   OH248823   5.256   4.754  11.076 -0.1204  0.0836  0.2380
 9111TIP3    H148824   5.274   4.660  11.086 -1.8237 -0.6229 -2.3582
 9111TIP3    H248825   5.175   4.769  11.125  0.7554  0.5206  1.6185
 9112TIP3   OH248826   2.466   0.758  17.101 -0.0657  0.4741  0.1416
 9112TIP3    H148827   2.554   0.747  17.063 -0.7503 -1.5117 -1.0394
 9112TIP3    H248828   2.483   0.786  17.191  1.8785 -1.2292  0.3998
 9113TIP3   OH248829   0.604   6.403  12.297 -0.0080  0.6382 -0.1564
 9113TIP3    H148830   0.682   6.358  12.264  0.3351  2.5769 -2.2092
 9113TIP3    H248831   0.535   6.337  12.292  1.2349 -0.8170  0.7572
 9114TIP3   OH248832   4.529   2.637  13.836  0.2247  0.0224  0.3057
 9114TIP3    H148833   4.511   2.708  13.774  0.0130  0.5101  0.9176
 9114TIP3    H248834   4.548   2.682  13.919  1.1078 -0.6021  0.4453
 9115TIP3   OH248835   1.010   0.436  11.530  0.3714 -0.1774  0.2927
 9115TIP3    H148836   1.044   0.365  11.584  0.6926  0.9665  1.6363
 9115TIP3    H248837   0.915   0.428  11.537  0.3485 -1.3793 -0.8289
 9116TIP3   OH248838   5.771   1.254   6.020  0.0291 -0.1943 -0.0227
 9116TIP3    H148839   5.861   1.238   6.048 -0.2540 -1.1183  0.3966
 9116TIP3    H248840   5.779   1.293   5.933  0.8171 -0.7632 -0.2069
 9117TIP3   OH248841   0.094   1.161   6.572  0.0140  0.0041  0.2264
 9117TIP3    H148842   0.078   1.247   6.533  0.1874 -0.9471 -2.1400
 9117TIP3    H248843   0.154   1.178   6.644  1.2763  1.7312 -1.1290
 9118TIP3   OH248844   3.039   5.946  13.035  0.6512 -0.1181  0.3894
 9118TIP3    H148845   3.032   6.005  13.109  0.2408  1.6893 -1.0115
 9118TIP3    H248846   3.060   6.003  12.961  1.6607 -1.9178 -0.7905
 9119TIP3   OH248847   6.077   6.208   3.323 -0.0213  0.2259 -0.4079
 9119TIP3    H148848   5.997   6.216   3.271 -0.6741  2.0659  0.7669
 9119TIP3    H248849   6.089   6.295   3.361  2.0446 -0.2699  0.1844
 9120TIP3   OH248850   2.058   5.374   1.469 -0.6041  0.0917 -0.1731
 9120TIP3    H148851   2.010   5.297   1.436  2.1815 -1.0957 -1.7928
 9120TIP3    H248852   2.076   5.353   1.561 -1.4017 -0.3727 -0.1117
 9121TIP3   OH248853   5.579   4.525  11.674  0.1128 -0.2747  0.5694
 9121TIP3    H148854   5.511   4.490  11.732  0.1805  0.7621  1.3045
 9121TIP3    H248855   5.552   4.615  11.658 -1.1732 -1.1210 -2.9311
 9122TIP3   OH248856   5.821   5.105  15.438 -0.0563 -0.0820  0.0031
 9122TIP3    H148857   5.823   5.200  15.428  1.8498 -0.0912 -0.0982
 9122TIP3    H248858   5.872   5.072  15.364  1.9756 -0.9561  1.6865
 9123TIP3   OH248859   1.269   6.823  12.930 -0.4272  0.6936 -0.2073
 9123TIP3    H148860   1.179   6.800  12.906 -1.1518  1.4501  1.5684
 9123TIP3    H248861   1.305   6.742  12.966 -0.6486  0.5614 -0.2779
 9124TIP3   OH248862   4.799   1.253  14.416  0.5679  0.2273  0.2648
 9124TIP3    H148863   4.787   1.162  14.389 -0.2659  0.5298 -0.4358
 9124TIP3    H248864   4.890   1.257  14.445  0.5587 -0.8746  0.4968
 9125TIP3   OH248865   5.833   0.149  15.974 -0.1232  0.0108  0.6753
 9125TIP3    H148866   5.913   0.176  16.017 -0.7377  1.0214  1.2249
 9125TIP3    H248867   5.769   0.216  15.998 -0.3674  0.9504 -2.2256
 9126TIP3   OH248868   1.973   3.058   4.533 -0.1430  0.0845  0.6462
 9126TIP3    H148869   1.924   2.993   4.582  0.0159 -0.4978  0.0393
 9126TIP3    H248870   2.001   3.013   4.453  0.3533  0.7580  0.4282
 9127TIP3   OH248871   5.876   5.471  16.344  0.5708  0.4210 -0.0578
 9127TIP3    H148872   5.945   5.537  16.333  0.5485  0.2462 -1.4759
 9127TIP3    H248873   5.834   5.494  16.427 -0.1051  2.8348 -0.9746
 9128TIP3   OH248874   6.186   5.455  17.056  0.1247  0.4655  0.1335
 9128TIP3    H148875   6.177   5.463  16.961  1.1172 -0.1046 -0.0245
 9128TIP3    H248876   6.274   5.489  17.075  0.3675 -0.4336  0.6968
 9129TIP3   OH248877   4.259   3.958  13.383 -0.1354 -0.4594  0.5216
 9129TIP3    H148878   4.175   4.006  13.384 -0.0759 -0.3657  0.9704
 9129TIP3    H248879   4.240   3.878  13.335  0.1030  0.6418 -1.5376
 9130TIP3   OH248880   5.190   0.029  13.852  0.1350 -0.2357  0.0751
 9130TIP3    H148881   5.248  -0.033  13.808 -0.0981 -1.7663  1.8315
 9130TIP3    H248882   5.127   0.055  13.785 -0.4729 -2.7985 -0.4264
 9131TIP3   OH248883   1.336   3.642   4.118 -0.6535  0.4888  0.0271
 9131TIP3    H148884   1.324   3.634   4.024 -1.7101 -1.8752  0.3067
 9131TIP3    H248885   1.401   3.575   4.140 -1.8444 -0.3353  1.1927
 9132TIP3   OH248886   1.097   4.886   4.565  0.0765  0.0440 -0.5595
 9132TIP3    H148887   1.161   4.947   4.601 -0.7692  0.0866  0.9600
 9132TIP3    H248888   1.123   4.801   4.600 -0.2494 -0.0587 -0.5628
 9133TIP3   OH248889   6.327   2.190   1.690 -0.1987 -0.5297  0.5408
 9133TIP3    H148890   6.312   2.101   1.658  0.1809 -0.0773 -0.9656
 9133TIP3    H248891   6.364   2.237   1.615  0.2492  0.7268  1.5079
 9134TIP3   OH248892   4.401   3.926   2.864  0.4317  0.2439 -0.4448
 9134TIP3    H148893   4.445   3.843   2.883 -0.0196  0.0189 -0.3759
 9134TIP3    H248894   4.310   3.912   2.891 -0.1594  0.0453 -2.4036
 9135TIP3   OH248895   5.010   0.006  15.859 -0.7623 -0.3879  0.0939
 9135TIP3    H148896   5.025  -0.078  15.816 -2.9559 -1.3171  0.9863
 9135TIP3    H248897   4.997   0.068  15.788  0.3001 -0.9005 -0.5696
 9136TIP3   OH248898   6.504   6.299  15.906 -0.6028  0.5972 -0.0916
 9136TIP3    H148899   6.452   6.379  15.909 -1.9569 -0.2703  2.1823
 9136TIP3    H248900   6.585   6.322  15.951 -0.8626  0.7842  0.2904
 9137TIP3   OH248901   3.030   3.826  16.102  0.0409  0.3819  0.3621
 9137TIP3    H148902   3.001   3.736  16.114 -0.5048  0.7813  2.3450
 9137TIP3    H248903   2.950   3.878  16.102  0.4598  1.0938  1.8641
 9138TIP3   OH248904   1.432   3.447  14.508 -0.5628  0.3275 -0.0680
 9138TIP3    H148905   1.416   3.360  14.545 -0.1390 -0.1693 -1.0053
 9138TIP3    H248906   1.527   3.459  14.515 -0.9322  2.3007  3.3998
 9139TIP3   OH248907   2.970   1.751  15.381  0.2310  0.5972  0.3226
 9139TIP3    H148908   2.886   1.757  15.427 -0.1114 -0.3073 -0.1412
 9139TIP3    H248909   2.960   1.808  15.305 -0.2314 -0.0467 -0.1064
 9140TIP3   OH248910   0.778   5.730  11.570  0.0465 -0.0252  0.1903
 9140TIP3    H148911   0.768   5.710  11.477  0.1468 -2.6022  0.6590
 9140TIP3    H248912   0.864   5.696  11.592 -0.2082  0.0582  1.3572
 9141TIP3   OH248913   5.850   4.498  14.428  0.2605  0.4033 -0.1532
 9141TIP3    H148914   5.853   4.405  14.408 -1.2074  0.3514 -0.2440
 9141TIP3    H248915   5.758   4.515  14.448  0.6710  1.6412  0.7942
 9142TIP3   OH248916   0.160   2.692   2.876  0.1265  0.2394 -0.4587
 9142TIP3    H148917   0.123   2.764   2.826 -1.4268 -0.6202 -0.6027
 9142TIP3    H248918   0.099   2.619   2.863  0.9900 -0.7425  0.6861
 9143TIP3   OH248919   1.380   4.883  13.787  0.0277  0.0924 -0.2668
 9143TIP3    H148920   1.423   4.943  13.849 -1.9476  1.4456 -0.1183
 9143TIP3    H248921   1.334   4.941  13.726 -2.2642 -1.2586  0.0930
 9144TIP3   OH248922   4.822   2.644  16.933  0.2678  0.0090  0.0958
 9144TIP3    H148923   4.879   2.720  16.942 -0.9882  1.1946 -1.3935
 9144TIP3    H248924   4.803   2.638  16.840 -0.1678 -1.7815  0.2574
 9145TIP3   OH248925   0.357   2.313  16.502 -0.4008  0.0664 -0.8342
 9145TIP3    H148926   0.341   2.393  16.552 -0.0106 -1.1557  1.3473
 9145TIP3    H248927   0.452   2.313  16.487 -0.4801  0.2925 -1.3546
 9146TIP3   OH248928   2.100   4.229   5.261  0.5630  0.2259  0.3606
 9146TIP3    H148929   2.121   4.273   5.179 -0.6527 -1.0657 -0.6845
 9146TIP3    H248930   2.180   4.239   5.314  2.8009 -1.9428 -2.2799
 9147TIP3   OH248931   1.704   5.789  16.961 -0.5126  0.3582 -0.0508
 9147TIP3    H148932   1.726   5.856  17.026  0.0121  0.3410 -0.2113
 9147TIP3    H248933   1.662   5.719  17.012 -1.2606  0.8961  0.0862
 9148TIP3   OH248934   4.944   0.513   4.075 -0.1974  0.1348  0.0695
 9148TIP3    H148935   4.912   0.440   4.128  2.2285 -0.9247  0.2153
 9148TIP3    H248936   5.031   0.532   4.110 -0.0293  1.9081 -1.1544
 9149TIP3   OH248937   6.226   2.137  13.395 -0.0322 -0.5114  0.4615
 9149TIP3    H148938   6.215   2.168  13.485 -0.4625  1.3142 -0.1972
 9149TIP3    H248939   6.143   2.158  13.352  0.2133 -1.2673 -0.4084
 9150TIP3   OH248940   0.115   1.726   3.987 -0.0221 -0.1892  0.0475
 9150TIP3    H148941   0.090   1.798   3.929 -0.0562 -0.0990  0.1720
 9150TIP3    H248942   0.044   1.662   3.978  0.0718 -0.2627 -0.1594
 9151TIP3   OH248943   4.676   4.765   6.839 -0.1148  0.7005  0.4012
 9151TIP3    H148944   4.757   4.725   6.808  0.1406  1.5862 -0.1232
 9151TIP3    H248945   4.668   4.737   6.930  0.8470  0.6961  0.4937
 9152TIP3   OH248946   3.192   0.499   3.526  0.3978  0.0704  0.1168
 9152TIP3    H148947   3.148   0.447   3.594  2.4977 -0.2484  1.3420
 9152TIP3    H248948   3.173   0.590   3.550 -0.2625 -0.0737  0.1472
 9153TIP3   OH248949   3.731   6.293   5.537  0.1023 -0.4928 -0.1934
 9153TIP3    H148950   3.798   6.359   5.519  0.2184 -0.8920 -1.3274
 9153TIP3    H248951   3.709   6.305   5.629  1.3949 -0.0385  0.0750
 9154TIP3   OH248952   4.706   1.795   0.334  0.1734  0.3579  0.5307
 9154TIP3    H148953   4.765   1.819   0.263 -1.9737  0.8243 -1.2401
 9154TIP3    H248954   4.621   1.830   0.306 -1.6025 -2.8162  1.4360
 9155TIP3   OH248955   3.705   1.420  15.213 -0.3267  0.3525 -0.2923
 9155TIP3    H148956   3.658   1.458  15.287 -0.8188 -0.6589 -0.0528
 9155TIP3    H248957   3.654   1.446  15.137 -0.7788  0.0213 -0.1129
 9156TIP3   OH248958   1.769   0.764  15.637 -0.0894  0.5484 -0.0846
 9156TIP3    H148959   1.710   0.741  15.708  0.9041  1.4153  1.0770
 9156TIP3    H248960   1.830   0.691  15.631 -1.7326 -0.7963 -1.9164
 9157TIP3   OH248961   4.967   5.311   3.571 -0.5746  0.4142  0.5577
 9157TIP3    H148962   4.879   5.347   3.581 -1.5890 -1.5225 -0.7967
 9157TIP3    H248963   5.020   5.386   3.543 -1.4282  1.9220  2.7557
 9158TIP3   OH248964   5.658   4.372   3.097 -0.4053 -0.3457 -0.5964
 9158TIP3    H148965   5.723   4.423   3.047 -1.4856  0.2389 -1.4324
 9158TIP3    H248966   5.612   4.321   3.031 -0.9835 -0.5529 -0.0373
 9159TIP3   OH248967   2.960   1.457  16.722 -0.1017 -0.3039  0.5678
 9159TIP3    H148968   2.958   1.540  16.674 -0.0858 -0.6422 -0.0250
 9159TIP3    H248969   2.950   1.390  16.654 -0.9073 -0.7638  1.1227
 9160TIP3   OH248970   3.766   2.275  12.887 -0.5987 -0.2287 -0.1309
 9160TIP3    H148971   3.802   2.288  12.975  0.6692 -1.6910 -0.3896
 9160TIP3    H248972   3.700   2.206  12.898 -1.5069  0.6142 -0.1091
 9161TIP3   OH248973   2.068   3.587   4.215 -0.4085 -0.2965  0.4641
 9161TIP3    H148974   2.155   3.547   4.212  0.2427  1.0894 -0.5773
 9161TIP3    H248975   2.011   3.523   4.172  0.3597 -0.6670 -0.0370
 9162TIP3   OH248976   2.713   6.593   1.235  0.1079 -0.3719  0.7241
 9162TIP3    H148977   2.794   6.554   1.267  0.7201 -0.1077 -0.4553
 9162TIP3    H248978   2.677   6.640   1.310  1.1446 -0.3428  1.2135
 9163TIP3   OH248979   6.387   2.382  10.857  0.1493 -0.1260 -0.1549
 9163TIP3    H148980   6.480   2.400  10.871  0.1834 -0.4602  0.0474
 9163TIP3    H248981   6.342   2.455  10.901  0.3200  0.1956 -0.5070
 9164TIP3   OH248982   4.433   0.160  16.426  0.5768 -0.4194 -0.2849
 9164TIP3    H148983   4.398   0.109  16.499  0.4559 -0.0324 -0.0710
 9164TIP3    H248984   4.523   0.180  16.452 -0.3911  2.4899  1.2773
 9165TIP3   OH248985   2.998   4.903   4.582  0.1113 -0.5225 -0.5184
 9165TIP3    H148986   3.035   4.979   4.537 -0.4398  1.2015  1.7513
 9165TIP3    H248987   2.934   4.867   4.521  0.0146  1.1549 -1.4533
 9166TIP3   OH248988   6.680   4.967   0.866  0.0294  0.2001  0.9508
 9166TIP3    H148989   6.621   4.897   0.893  0.2703 -0.2838  0.2649
 9166TIP3    H248990   6.750   4.967   0.932  1.0108 -1.4706 -0.0215
 9167TIP3   OH248991   1.298   4.022   5.736 -0.6878  0.8675 -0.4238
 9167TIP3    H148992   1.238   4.055   5.803 -0.3288 -2.5311  1.8028
 9167TIP3    H248993   1.384   4.024   5.778 -0.6258 -2.4759 -0.1542
 9168TIP3   OH248994   6.197   0.953  11.854 -0.0044  0.1493  0.9155
 9168TIP3    H148995   6.142   0.984  11.926 -1.2234  1.5076 -0.5240
 9168TIP3    H248996   6.151   0.875  11.820  0.0203  0.1153  0.9604
 9169TIP3   OH248997   6.310   5.986   1.036  0.3907  0.3526 -0.3464
 9169TIP3    H148998   6.240   5.923   1.014  0.5571  0.5995 -1.6863
 9169TIP3    H248999   6.352   6.004   0.952  0.1162  2.5457 -0.0609
 9170TIP3   OH249000   4.836   1.321   5.521 -0.2235 -0.0382 -0.2417
 9170TIP3    H149001   4.929   1.319   5.503 -0.3030 -0.6528 -0.6228
 9170TIP3    H249002   4.810   1.412   5.509  0.6348  0.4813  1.5171
 9171TIP3   OH249003   3.973   0.960   5.488 -0.1557 -0.0679 -0.3693
 9171TIP3    H149004   4.000   0.967   5.397 -0.4239  0.0314 -0.4424
 9171TIP3    H249005   3.977   0.867   5.508 -1.1824 -0.2198 -0.8174
 9172TIP3   OH249006   3.907   3.505   5.445 -0.0380 -0.5477  0.1838
 9172TIP3    H149007   3.843   3.474   5.509 -1.9273 -2.7720 -2.5396
 9172TIP3    H249008   3.867   3.584   5.408 -0.0989 -0.6273  0.0799
 9173TIP3   OH249009   1.732   4.770  15.004 -0.0655 -0.2207  0.3036
 9173TIP3    H149010   1.659   4.819  15.042 -0.8495  1.4467 -2.9196
 9173TIP3    H249011   1.689   4.702  14.951  0.7815 -0.3094 -0.2870
 9174TIP3   OH249012   6.225   1.936   1.590  0.0687 -0.0352  0.3361
 9174TIP3    H149013   6.245   1.846   1.562  0.5728 -0.3217  1.5486
 9174TIP3    H249014   6.211   1.984   1.509  0.4048 -1.0720 -0.3562
 9175TIP3   OH249015   2.110   0.154   6.569 -0.0592  0.1190 -0.2985
 9175TIP3    H149016   2.056   0.228   6.542  0.1096 -0.3738 -2.0968
 9175TIP3    H249017   2.178   0.192   6.623 -1.3018  0.9554  0.7477
 9176TIP3   OH249018   0.963   2.823   5.092 -0.4074 -0.0041 -0.1508
 9176TIP3    H149019   1.000   2.785   5.171  1.5346  1.5926 -0.2014
 9176TIP3    H249020   0.894   2.882   5.122  0.0580  0.2956  0.3385
 9177TIP3   OH249021   4.866   5.744   1.577 -0.2498 -0.2597 -0.0225
 9177TIP3    H149022   4.771   5.742   1.569 -0.1352 -0.7829 -1.4643
 9177TIP3    H249023   4.893   5.654   1.561  0.6541  0.3504 -2.2649
 9178TIP3   OH249024   6.369   5.981   4.594  0.6259  0.3508  0.0749
 9178TIP3    H149025   6.409   6.053   4.545  0.5445 -0.5434 -1.3759
 9178TIP3    H249026   6.437   5.914   4.599  0.5327  0.3133  0.9420
 9179TIP3   OH249027   0.450   6.383  13.838 -0.1107  0.6239  0.3163
 9179TIP3    H149028   0.373   6.326  13.834  1.0874 -1.0703  0.0252
 9179TIP3    H249029   0.515   6.331  13.885  1.1722  1.6043 -0.3312
 9180TIP3   OH249030   2.072   4.296  13.233 -0.0562 -0.2037  0.0417
 9180TIP3    H149031   2.112   4.229  13.287 -0.2713 -1.6643 -1.5212
 9180TIP3    H249032   1.978   4.285  13.247 -0.1362 -0.8911 -0.9131
 9181TIP3   OH249033   1.827   4.349  11.310 -0.8014  0.3482  0.2245
 9181TIP3    H149034   1.850   4.437  11.339  4.1528 -0.1617 -1.2106
 9181TIP3    H249035   1.847   4.348  11.216  1.8116 -2.7951  0.6224
 9182TIP3   OH249036   3.352   6.477   3.722 -0.2763  0.1002 -0.1804
 9182TIP3    H149037   3.429   6.451   3.773  0.4133  0.8939 -0.8000
 9182TIP3    H249038   3.348   6.572   3.731 -0.4822  0.1864 -1.1468
 9183TIP3   OH249039   5.993   3.836  13.657  0.3094  0.3137 -0.1727
 9183TIP3    H149040   5.940   3.855  13.580 -0.2865 -1.9472 -0.3818
 9183TIP3    H249041   6.073   3.795  13.622 -0.1810 -1.1880  0.3854
 9184TIP3   OH249042   4.583   1.536   0.201  0.3614  0.2137 -0.0646
 9184TIP3    H149043   4.495   1.544   0.238  0.0259 -1.4825 -0.4122
 9184TIP3    H249044   4.638   1.509   0.274  0.8695  2.3736  0.4157
 9185TIP3   OH249045   6.353   3.617   5.635 -0.6538 -0.3699  0.5725
 9185TIP3    H149046   6.267   3.636   5.672 -0.8225 -0.2400  0.1189
 9185TIP3    H249047   6.395   3.702   5.626 -0.7840 -0.3510  0.0653
 9186TIP3   OH249048   3.697   5.029   4.750  0.4698  0.1465 -0.5779
 9186TIP3    H149049   3.780   5.001   4.711 -0.8684 -3.4178 -1.1514
 9186TIP3    H249050   3.636   5.034   4.676 -0.6389 -0.6457  0.2604
 9187TIP3   OH249051   4.334   5.481  13.025  0.1879  0.1327  0.5070
 9187TIP3    H149052   4.300   5.425  13.095 -2.6661  0.7403 -0.2640
 9187TIP3    H249053   4.297   5.568  13.043 -0.2909  0.3931 -1.5228
 9188TIP3   OH249054   4.306   1.185   4.050 -0.4266 -0.0879 -0.1616
 9188TIP3    H149055   4.215   1.156   4.041 -0.1302 -0.8893 -0.7139
 9188TIP3    H249056   4.321   1.239   3.973 -0.4310  0.0312 -0.0786
 9189TIP3   OH249057   3.102   3.800   5.221 -0.0427  0.2946 -0.0624
 9189TIP3    H149058   3.154   3.722   5.236 -0.8015 -1.0786 -3.5761
 9189TIP3    H249059   3.011   3.771   5.233 -0.3247  0.6228 -1.2600
 9190TIP3   OH249060   3.447   6.517  16.193  0.8576  0.0279  0.2015
 9190TIP3    H149061   3.467   6.498  16.101  0.8325  0.0386  0.1937
 9190TIP3    H249062   3.426   6.431  16.231  1.3850 -0.0491  0.3244
 9191TIP3   OH249063   1.717   4.363   0.318 -0.0471  0.1589 -0.2765
 9191TIP3    H149064   1.720   4.451   0.357 -0.4979 -0.1095  0.3827
 9191TIP3    H249065   1.805   4.350   0.283  0.4549  0.3386  0.8561
 9192TIP3   OH249066   0.879   2.045   4.021 -0.2005  0.3114  0.1879
 9192TIP3    H149067   0.924   1.968   3.988 -0.6354  0.4288 -0.7191
 9192TIP3    H249068   0.946   2.093   4.070 -0.3739 -1.5406  2.3703
 9193TIP3   OH249069   0.235   4.770   3.257  0.6158 -0.3679 -0.1174
 9193TIP3    H149070   0.311   4.789   3.313 -0.6382 -1.8360  2.2453
 9193TIP3    H249071   0.271   4.768   3.168  2.6727  2.3827  0.5023
 9194TIP3   OH249072   0.235   4.224   5.329 -0.1160 -0.2636 -0.6686
 9194TIP3    H149073   0.212   4.163   5.398 -0.9365  1.3487  0.5654
 9194TIP3    H249074   0.160   4.221   5.269  0.4795 -1.4697 -1.3877
 9195TIP3   OH249075   3.143   4.836  15.192 -0.4355 -0.1850 -0.6983
 9195TIP3    H149076   3.050   4.850  15.211 -0.3985 -0.4375 -0.3160
 9195TIP3    H249077   3.187   4.912  15.229 -0.3243 -0.8496  0.6151
 9196TIP3   OH249078   3.413   0.408  13.215  0.4348  0.0080 -0.1958
 9196TIP3    H149079   3.477   0.440  13.152  0.8778  0.6410  0.5545
 9196TIP3    H249080   3.328   0.424  13.174  0.7516 -1.8706 -1.6906
 9197TIP3   OH249081   5.636   4.480   2.579  0.6120 -0.1624  0.0400
 9197TIP3    H149082   5.599   4.563   2.547  1.5076  0.5227  0.7308
 9197TIP3    H249083   5.658   4.497   2.670  2.0522 -0.7291 -0.1817
 9198TIP3   OH249084   3.664   2.382   5.150  0.0732  0.0785  0.3003
 9198TIP3    H149085   3.632   2.328   5.222 -1.1182 -0.5726 -0.6712
 9198TIP3    H249086   3.635   2.471   5.171  0.1252 -0.0307  0.8416
 9199TIP3   OH249087   4.973   3.506   0.524 -0.0154  0.2037 -0.4362
 9199TIP3    H149088   4.942   3.428   0.478  0.4441  0.3298 -0.9836
 9199TIP3    H249089   4.958   3.578   0.462 -0.3741  0.5424  0.0379
 9200TIP3   OH249090   1.529   6.069  17.003 -0.6321 -0.3187  0.0629
 9200TIP3    H149091   1.507   5.977  16.987 -0.9562 -0.4892  1.3748
 9200TIP3    H249092   1.496   6.086  17.092 -2.6439  1.7124 -0.9799
 9201TIP3   OH249093   5.594   5.494   1.921  0.5817 -0.2420 -0.1634
 9201TIP3    H149094   5.605   5.421   1.983  1.3527 -0.0670 -0.0843
 9201TIP3    H249095   5.642   5.567   1.961  0.1174  0.2047 -0.4165
 9202TIP3   OH249096   2.886   1.352  13.874  0.3088 -0.1824  0.1352
 9202TIP3    H149097   2.839   1.414  13.819  0.2780  1.8559  2.2709
 9202TIP3    H249098   2.822   1.327  13.942  1.2017 -0.2377  0.9796
 9203TIP3   OH249099   6.773   5.496  14.719 -0.4948 -0.2987 -0.3519
 9203TIP3    H149100   6.847   5.507  14.659 -0.4412  0.4679 -0.1656
 9203TIP3    H249101   6.719   5.429  14.679 -0.8379  0.7094 -1.6545
 9204TIP3   OH249102   4.131   4.304  12.946  0.6758 -0.0262 -0.2992
 9204TIP3    H149103   4.041   4.328  12.968  0.1101 -2.5277  0.4161
 9204TIP3    H249104   4.176   4.299  13.031  0.8341 -1.1480 -0.4413
 9205TIP3   OH249105   1.406   5.979   5.418 -0.4605  0.3380 -0.1270
 9205TIP3    H149106   1.497   5.954   5.434 -0.0966  1.3672 -0.4999
 9205TIP3    H249107   1.372   6.002   5.505  0.2732  1.9182 -0.2102
 9206TIP3   OH249108   2.291   3.422  16.882 -0.4670  0.2888 -0.0793
 9206TIP3    H149109   2.219   3.426  16.819 -0.2373 -0.1905 -0.3765
 9206TIP3    H249110   2.315   3.514  16.896 -0.4763  0.4010 -0.7480
 9207TIP3   OH249111   2.796   2.752  13.586 -0.2846  0.5073 -0.2494
 9207TIP3    H149112   2.778   2.661  13.564  3.2460 -0.0373 -1.6412
 9207TIP3    H249113   2.783   2.800  13.504 -0.0748  0.8654 -0.0786
 9208TIP3   OH249114   4.330   1.117  15.007  0.0139 -0.5796 -0.3603
 9208TIP3    H149115   4.370   1.181  15.066 -2.2010  0.8138 -0.2226
 9208TIP3    H249116   4.378   1.127  14.925  1.5504 -0.7978  0.4777
 9209TIP3   OH249117   6.492   0.586   3.978 -0.2438  0.1550 -0.2209
 9209TIP3    H149118   6.449   0.653   4.031 -0.9172  0.4256 -1.1018
 9209TIP3    H249119   6.438   0.508   3.989  0.8599 -0.4660  1.2838
 9210TIP3   OH249120   1.460   2.528  16.517 -0.0868 -0.1804  0.1660
 9210TIP3    H149121   1.405   2.603  16.542  0.6073  0.6501 -0.7104
 9210TIP3    H249122   1.507   2.505  16.597 -1.2733 -0.5547  0.7882
 9211TIP3   OH249123   5.082   2.333   3.982  0.4984 -0.1954  0.2607
 9211TIP3    H149124   5.176   2.320   3.990  0.5969  1.4459  3.0553
 9211TIP3    H249125   5.067   2.421   4.016 -2.0098 -0.2595 -0.4922
 9212TIP3   OH249126   1.228   6.618  13.493 -0.4749  0.1460  0.2740
 9212TIP3    H149127   1.187   6.629  13.407 -1.5360  0.4772  0.8090
 9212TIP3    H249128   1.198   6.694  13.543  0.0723 -0.0857  0.9616
 9213TIP3   OH249129   2.978   2.950  14.671  0.3178  0.2015  0.3418
 9213TIP3    H149130   2.973   3.045  14.656  0.4236 -0.0113 -1.1689
 9213TIP3    H249131   3.000   2.913  14.586  0.2769 -1.1999  0.9104
 9214TIP3   OH249132   2.260   1.566  12.407  0.1992  0.3244 -0.0402
 9214TIP3    H149133   2.184   1.512  12.391  0.1893  0.6383 -1.1896
 9214TIP3    H249134   2.286   1.598  12.320 -0.3719  2.9297  0.6443
 9215TIP3   OH249135   3.756   2.270   2.825 -0.4058 -0.1550 -0.0367
 9215TIP3    H149136   3.830   2.225   2.864  0.2175 -0.2800 -1.2976
 9215TIP3    H249137   3.768   2.362   2.850  0.4108 -0.1079 -0.5505
 9216TIP3   OH249138   5.074   1.900   4.249 -0.3197 -0.0021  0.6668
 9216TIP3    H149139   5.154   1.871   4.292 -0.5801 -0.9925  0.4895
 9216TIP3    H249140   5.091   1.889   4.155 -0.8724 -0.8058  0.6497
 9217TIP3   OH249141   4.269   3.934   3.670  0.3024  0.2664 -0.1633
 9217TIP3    H149142   4.331   3.862   3.684  0.2176  0.5631  2.2051
 9217TIP3    H249143   4.220   3.909   3.592  1.8607 -1.0870 -0.7759
 9218TIP3   OH249144   3.474   0.623   3.560 -0.2456  0.3256  0.2599
 9218TIP3    H149145   3.435   0.536   3.563 -1.2767  0.7955  1.5078
 9218TIP3    H249146   3.549   0.614   3.502 -0.6186 -1.2739 -0.0099
 9219TIP3   OH249147   1.257   2.721   2.226  0.3254 -0.2804  0.0188
 9219TIP3    H149148   1.215   2.784   2.284 -1.9917 -0.9673 -0.7849
 9219TIP3    H249149   1.235   2.751   2.138 -2.7907 -3.2277 -0.4337
 9220TIP3   OH249150   4.135   4.155  14.808  0.2037 -0.6322 -0.6800
 9220TIP3    H149151   4.106   4.231  14.758 -1.2943 -1.2356 -0.8067
 9220TIP3    H249152   4.172   4.191  14.888  0.1911  0.2569 -1.0655
 9221TIP3   OH249153   4.137   4.907  13.090  0.1188  0.5455 -0.1672
 9221TIP3    H149154   4.058   4.928  13.042  0.5249  0.4156 -0.9089
 9221TIP3    H249155   4.126   4.950  13.175 -1.1771 -0.2947  0.1152
 9222TIP3   OH249156   6.695   2.098  13.622 -0.1941 -1.2123 -0.3658
 9222TIP3    H149157   6.740   2.102  13.707 -0.4703 -1.3390 -0.2124
 9222TIP3    H249158   6.602   2.106  13.644 -0.1974 -0.0420 -0.7580
 9223TIP3   OH249159   2.142   5.090  10.994  0.5451  0.6247 -0.1746
 9223TIP3    H149160   2.231   5.066  10.970  0.2415 -1.2055  0.3550
 9223TIP3    H249161   2.101   5.117  10.912  1.2938  0.4875 -0.6045
 9224TIP3   OH249162   6.055   6.785   6.008 -0.4920  0.0511  0.5441
 9224TIP3    H149163   6.025   6.694   6.008 -1.5799  0.3296 -2.1121
 9224TIP3    H249164   6.148   6.779   5.986 -0.9729 -0.3902 -1.5465
 9225TIP3   OH249165   3.564   4.356  13.043  0.0536 -0.1615  0.1672
 9225TIP3    H149166   3.551   4.436  13.093  2.1994 -0.2114  0.9405
 9225TIP3    H249167   3.618   4.383  12.969  1.1027 -0.8984  0.6299
 9226TIP3   OH249168   6.763   4.952   0.615 -0.2463  0.0529 -0.3139
 9226TIP3    H149169   6.709   4.966   0.693  3.1846  2.1919  1.9299
 9226TIP3    H249170   6.799   4.864   0.626  0.1306  0.3024  0.4506
 9227TIP3   OH249171   0.465   3.868  15.844  0.4500  0.1083 -0.3700
 9227TIP3    H149172   0.397   3.812  15.880  0.1937 -0.2646 -1.3957
 9227TIP3    H249173   0.545   3.816  15.849  0.1759 -0.4507 -1.5048
 9228TIP3   OH249174   0.655   3.541  16.033 -0.3210  0.4044  0.1681
 9228TIP3    H149175   0.597   3.483  15.983  1.1675  0.3078 -1.5596
 9228TIP3    H249176   0.644   3.514  16.124 -0.8829 -1.4976 -0.4211
 9229TIP3   OH249177   6.376   2.845   1.241 -0.3228  0.0039 -0.0028
 9229TIP3    H149178   6.289   2.837   1.203 -1.7114 -0.6199  3.0276
 9229TIP3    H249179   6.374   2.928   1.290  0.0145 -0.9963  1.7910
 9230TIP3   OH249180   6.409   1.542   7.022  0.4579 -0.4663 -0.2916
 9230TIP3    H149181   6.433   1.622   7.067 -1.0030 -0.6100  0.8076
 9230TIP3    H249182   6.466   1.539   6.945  1.3256  1.0154  0.2691
 9231TIP3   OH249183   0.526   5.785   5.170  0.0543  0.2738  0.0579
 9231TIP3    H149184   0.459   5.716   5.177 -0.6763  1.0539  1.0133
 9231TIP3    H249185   0.550   5.786   5.078 -1.5243  0.2208 -0.3819
 9232TIP3   OH249186   2.153   4.395  13.587 -0.4440 -0.6178  0.4348
 9232TIP3    H149187   2.079   4.384  13.528 -0.2454 -1.9179  0.3930
 9232TIP3    H249188   2.142   4.325  13.652 -0.2570  0.3174  1.5127
 9233TIP3   OH249189   2.550   2.308   0.619 -0.5148  0.0258  0.0772
 9233TIP3    H149190   2.573   2.230   0.569 -1.3167  1.0394 -1.9618
 9233TIP3    H249191   2.463   2.332   0.588  1.2047  4.0495 -2.5513
 9234TIP3   OH249192   0.703   3.278  12.795  0.2265 -0.0386 -0.0070
 9234TIP3    H149193   0.741   3.203  12.841 -0.4915  0.0172  0.6971
 9234TIP3    H249194   0.677   3.338  12.864 -0.4778  0.2454 -0.5049
 9235TIP3   OH249195   0.414   0.035  13.793  0.1772  0.1469  0.3793
 9235TIP3    H149196   0.407  -0.031  13.724  0.2903 -1.1525  1.5686
 9235TIP3    H249197   0.503   0.025  13.827  0.2328  1.0016  0.5251
 9236TIP3   OH249198   0.737   6.401   2.661  0.5459 -0.0696 -0.2282
 9236TIP3    H149199   0.656   6.402   2.713  0.5485  1.1946 -0.2114
 9236TIP3    H249200   0.751   6.493   2.637  2.7950 -0.0223  1.0454
 9237TIP3   OH249201   4.754   0.251   3.927  0.2166 -0.2375 -0.4206
 9237TIP3    H149202   4.669   0.280   3.893 -0.4820  0.0402  1.4012
 9237TIP3    H249203   4.808   0.236   3.850 -1.7036 -1.0893 -1.6758
 9238TIP3   OH249204   2.040   2.937   4.218 -0.0697 -0.7363  0.4175
 9238TIP3    H149205   2.111   3.001   4.205 -0.3776 -0.7149 -1.4493
 9238TIP3    H249206   2.008   2.919   4.130 -0.5157 -2.8957  0.9705
 9239TIP3   OH249207   1.549   0.249   1.729 -0.1547  0.5873  0.9584
 9239TIP3    H149208   1.482   0.215   1.789 -1.6246  0.8563 -0.4650
 9239TIP3    H249209   1.560   0.340   1.755 -1.3671  0.9249  0.3551
 9240TIP3   OH249210   5.495   4.701  16.122  0.2673  0.2980  0.4239
 9240TIP3    H149211   5.420   4.758  16.103  0.6171  0.4793 -0.4624
 9240TIP3    H249212   5.564   4.731  16.062 -0.3782 -2.7988 -2.1905
 9241TIP3   OH249213   2.819   3.284   1.349 -0.0574  0.0853  1.1518
 9241TIP3    H149214   2.724   3.285   1.339  0.0744 -1.3225 -0.6353
 9241TIP3    H249215   2.851   3.230   1.277  2.0888  0.2120  1.9261
 9242TIP3   OH249216   6.007   5.701   0.130 -0.0566 -0.0005  0.0991
 9242TIP3    H149217   6.034   5.785   0.168  0.2512 -0.3711  0.7109
 9242TIP3    H249218   5.979   5.649   0.205  0.2830 -0.6402 -0.2116
 9243TIP3   OH249219   5.308   1.163   4.838  0.0152  0.2329  0.5337
 9243TIP3    H149220   5.383   1.120   4.798 -1.5026 -1.3339 -0.8163
 9243TIP3    H249221   5.275   1.221   4.769 -1.7420 -1.3811 -0.0837
 9244TIP3   OH249222   5.309   6.509   3.143  0.2369  0.4078 -0.1613
 9244TIP3    H149223   5.385   6.511   3.202 -1.0351  1.6292  1.5493
 9244TIP3    H249224   5.250   6.445   3.184  0.1431 -0.2061 -1.2332
 9245TIP3   OH249225   5.404   1.831  12.799 -0.4444 -0.1975  0.1985
 9245TIP3    H149226   5.389   1.831  12.893 -0.3789  0.8059  0.2197
 9245TIP3    H249227   5.330   1.882  12.763 -0.8546 -1.1640 -0.3595
 9246TIP3   OH249228   5.912   1.523  15.026  0.5300 -0.4707  0.1245
 9246TIP3    H149229   6.006   1.504  15.036  0.2120 -3.3038 -1.1623
 9246TIP3    H249230   5.892   1.495  14.937 -1.9002 -1.9207  1.0302
 9247TIP3   OH249231   0.594   3.432   4.286  0.7515 -0.3238  0.1403
 9247TIP3    H149232   0.660   3.491   4.250  1.0717 -0.0561  1.1354
 9247TIP3    H249233   0.609   3.434   4.381  1.1105 -2.3842  0.1916
 9248TIP3   OH249234   4.451   5.604  15.526 -0.4330  0.7734  0.2229
 9248TIP3    H149235   4.526   5.561  15.567  0.2694 -0.1008 -1.8599
 9248TIP3    H249236   4.447   5.690  15.567  0.7540  0.2735  1.4682
 9249TIP3   OH249237   2.859   4.012  12.326  0.4848  0.2239  0.0300
 9249TIP3    H149238   2.937   4.006  12.382  1.8388 -2.3858 -1.9368
 9249TIP3    H249239   2.866   3.937  12.267 -1.8367  1.7541 -2.3983
 9250TIP3   OH249240   3.491   2.477   2.816  0.4363  0.3649 -0.0319
 9250TIP3    H149241   3.473   2.396   2.862  1.6382  0.7000  1.0740
 9250TIP3    H249242   3.587   2.485   2.816  0.3778  1.3857 -0.8044
 9251TIP3   OH249243   0.179   3.918   2.457 -0.8154  0.5275 -0.1941
 9251TIP3    H149244   0.243   3.901   2.526  1.5697  1.8481 -1.9465
 9251TIP3    H249245   0.097   3.933   2.504  0.3823 -0.0047  2.2384
 9252TIP3   OH249246   3.825   1.014   1.470  0.4074 -0.0733 -0.2220
 9252TIP3    H149247   3.750   1.073   1.459 -0.2619 -0.7007  0.8316
 9252TIP3    H249248   3.867   1.043   1.551 -0.7803 -1.8920  1.1140
 9253TIP3   OH249249   4.024   6.706   1.809 -0.4814  0.5744 -0.2942
 9253TIP3    H149250   4.079   6.784   1.810  0.6448 -0.2069  0.0873
 9253TIP3    H249251   3.951   6.727   1.867  0.9266  0.5926  1.5708
 9254TIP3   OH249252   1.235   1.570   3.547  0.0871 -0.2797  0.0234
 9254TIP3    H149253   1.184   1.546   3.469 -0.2265 -1.2404  0.5144
 9254TIP3    H249254   1.215   1.501   3.610  3.0220 -1.4574 -0.2057
 9255TIP3   OH249255   3.549   4.499   6.272 -0.1286 -0.0224 -0.2965
 9255TIP3    H149256   3.516   4.413   6.245  3.8714 -1.4473 -1.2925
 9255TIP3    H249257   3.540   4.499   6.367 -1.8873 -0.6605 -0.4145
 9256TIP3   OH249258   5.623   1.989   6.687 -0.0034 -0.0370 -0.7210
 9256TIP3    H149259   5.596   2.039   6.764 -0.8506 -0.1145 -0.9594
 9256TIP3    H249260   5.704   2.031   6.658 -0.3278  0.7480 -0.5040
 9257TIP3   OH249261   0.016   2.510   0.821 -0.0956  0.1599 -0.1092
 9257TIP3    H149262  -0.007   2.583   0.879  0.2749  0.6890 -0.6165
 9257TIP3    H249263  -0.058   2.450   0.828  0.0530  0.0928  1.1002
 9258TIP3   OH249264   2.001   2.390  17.128  0.3329  0.4109  0.0279
 9258TIP3    H149265   2.061   2.343  17.071  1.3617  1.5510  0.1158
 9258TIP3    H249266   2.058   2.444  17.183 -0.7821  3.4722 -1.5599
 9259TIP3   OH249267   3.984   1.360  15.401 -0.0857  0.0465  0.5041
 9259TIP3    H149268   4.044   1.331  15.470 -0.7220 -0.0491  1.0311
 9259TIP3    H249269   3.976   1.285  15.343  2.2711  0.8559 -1.0112
 9260TIP3   OH249270   1.509   4.184  14.484  0.2172 -0.0367 -0.5066
 9260TIP3    H149271   1.501   4.279  14.494  2.3021  0.0859  0.5610
 9260TIP3    H249272   1.594   4.163  14.524 -0.0710 -2.3171 -0.9759
 9261TIP3   OH249273   4.137   4.405   1.577  0.4593  0.0535 -0.0156
 9261TIP3    H149274   4.185   4.471   1.527  1.8710  0.0336  1.2240
 9261TIP3    H249275   4.045   4.432   1.570  0.9404  1.8540  0.0178
 9262TIP3   OH249276   5.337   5.891  13.883 -0.1544  0.4384 -0.3260
 9262TIP3    H149277   5.384   5.946  13.944  1.3706  0.1791 -1.2083
 9262TIP3    H249278   5.333   5.805  13.925 -0.5851  0.6625  0.1003
 9263TIP3   OH249279   1.317   3.767  14.464 -0.5646 -0.2933 -0.1605
 9263TIP3    H149280   1.407   3.797  14.466 -0.5074 -0.4939  0.8207
 9263TIP3    H249281   1.267   3.841  14.431 -0.2377  0.3894  0.8445
 9264TIP3   OH249282   5.791   1.956   3.001  0.4765  0.3445 -0.0390
 9264TIP3    H149283   5.730   1.896   3.044  0.4545 -0.1188 -0.7037
 9264TIP3    H249284   5.827   1.906   2.928  1.4580  0.7084  0.1836
 9265TIP3   OH249285   4.279   1.633   2.972  0.3058 -0.5731 -0.5098
 9265TIP3    H149286   4.253   1.587   3.052 -0.0060  0.0416 -0.2521
 9265TIP3    H249287   4.373   1.617   2.965  0.0327 -2.1764 -1.0325
 9266TIP3   OH249288   5.972   1.053   3.976  0.1396 -0.3364 -0.0808
 9266TIP3    H149289   6.039   0.993   3.944  2.4392  0.7070  2.4275
 9266TIP3    H249290   5.998   1.073   4.066 -1.3398  3.2143 -0.2636
 9267TIP3   OH249291   2.959   4.134   3.247  0.8567  0.1279  0.6885
 9267TIP3    H149292   3.030   4.192   3.274  1.1378 -0.4340  1.1761
 9267TIP3    H249293   2.880   4.175   3.282  1.0042  0.4269  0.6771
 9268TIP3   OH249294   5.789   2.404   5.318 -0.1097  0.5000 -0.3521
 9268TIP3    H149295   5.700   2.381   5.342 -0.6595  3.0256  0.3729
 9268TIP3    H249296   5.789   2.405   5.222 -0.3820 -1.0096 -0.3906
 9269TIP3   OH249297   5.758   4.771  15.706  0.3648 -0.0003 -0.3050
 9269TIP3    H149298   5.800   4.856  15.691 -1.9855  1.3168  0.0891
 9269TIP3    H249299   5.771   4.754  15.799  0.4630  0.1673 -0.2883
 9270TIP3   OH249300   6.836   3.162   1.206 -0.3701 -0.0586  0.7223
 9270TIP3    H149301   6.872   3.074   1.194 -1.4343 -0.4074  0.0307
 9270TIP3    H249302   6.911   3.213   1.238  1.0405 -0.5059 -1.6126
 9271TIP3   OH249303   5.505   2.971  11.152 -0.8155  0.3896 -0.6943
 9271TIP3    H149304   5.536   2.905  11.090 -0.3489 -0.6822  0.6018
 9271TIP3    H249305   5.482   3.046  11.099 -0.4096 -0.4768 -2.1461
 9272TIP3   OH249306   6.362   0.645   3.182 -0.3797 -0.0613  0.4813
 9272TIP3    H149307   6.398   0.676   3.099  1.3082 -1.7673  0.5123
 9272TIP3    H249308   6.431   0.661   3.246  0.1406 -2.7118  0.6963
 9273TIP3   OH249309   0.835   4.555   2.845 -0.4307 -0.1932 -0.4445
 9273TIP3    H149310   0.749   4.566   2.804  0.0737 -2.9377 -2.6314
 9273TIP3    H249311   0.830   4.469   2.886  0.7038  0.4522  1.1155
 9274TIP3   OH249312   0.155   2.490   1.482 -0.2231 -0.6183 -0.9253
 9274TIP3    H149313   0.189   2.450   1.562 -0.0576  1.6846  0.2489
 9274TIP3    H249314   0.088   2.551   1.513  0.4352  0.9492 -2.4441
 9275TIP3   OH249315   0.189   2.695   5.649 -1.0408 -0.2398  0.2265
 9275TIP3    H149316   0.105   2.738   5.631 -0.7131  0.8464  1.1183
 9275TIP3    H249317   0.238   2.760   5.700  0.5943 -0.6006 -0.8049
 9276TIP3   OH249318   3.977   1.792   3.677 -0.0932  0.0031 -0.1811
 9276TIP3    H149319   3.893   1.771   3.718 -0.9417  0.2142 -1.7696
 9276TIP3    H249320   4.001   1.876   3.715 -1.4312  0.7466 -0.9291
 9277TIP3   OH249321   6.017   1.915  12.466 -0.1916  0.2359 -0.6553
 9277TIP3    H149322   5.984   1.856  12.398  1.0537  0.8857 -1.8713
 9277TIP3    H249323   5.938   1.950  12.507 -0.9572 -2.1331  0.0170
 9278TIP3   OH249324   3.478   4.743   3.570 -0.3145  0.3695  0.4223
 9278TIP3    H149325   3.384   4.761   3.571 -0.8209 -1.6545 -1.4056
 9278TIP3    H249326   3.491   4.680   3.641 -0.1598  1.3078  1.2361
 9279TIP3   OH249327   3.708   1.357  12.599 -0.1902  0.3003 -0.3490
 9279TIP3    H149328   3.795   1.319  12.617 -0.1067  0.7715  0.2861
 9279TIP3    H249329   3.725   1.426  12.535 -0.4720 -1.3115 -2.2644
 9280TIP3   OH249330   0.581   4.727   4.058  0.1812  0.7291 -0.1610
 9280TIP3    H149331   0.537   4.776   4.127  0.9259 -1.3467  1.9013
 9280TIP3    H249332   0.553   4.637   4.072  2.1007 -0.0666 -1.1988
 9281TIP3   OH249333   3.188   5.168  16.688  0.4385 -0.1184  0.0797
 9281TIP3    H149334   3.196   5.078  16.656 -0.2133 -0.7142  1.5304
 9281TIP3    H249335   3.093   5.182  16.696  0.5484  0.5845  0.1690
 9282TIP3   OH249336   3.312   4.263  12.703 -0.2814  0.2025 -0.6474
 9282TIP3    H149337   3.352   4.204  12.639 -0.0392 -0.4259  0.0746
 9282TIP3    H249338   3.313   4.349  12.660  1.3572  0.1085 -0.8513
 9283TIP3   OH249339   5.893   2.892   1.279  0.2840  0.2040 -0.3110
 9283TIP3    H149340   5.821   2.829   1.280 -0.7653  1.3603  0.7619
 9283TIP3    H249341   5.893   2.930   1.367  1.2984  1.2474 -0.7288
 9284TIP3   OH249342   4.942   4.440  14.200 -0.8996  0.8991  0.3820
 9284TIP3    H149343   4.883   4.416  14.271 -1.6463  0.2411 -0.4453
 9284TIP3    H249344   4.915   4.386  14.126  1.0605  0.2051  0.1134
 9285TIP3   OH249345   6.044   0.740  13.750 -0.5078 -0.2544  0.5848
 9285TIP3    H149346   6.086   0.694  13.678 -1.1898  0.1328 -0.0769
 9285TIP3    H249347   5.961   0.693  13.763 -0.2643 -0.5081  1.3322
 9286TIP3   OH249348   3.805   0.268   4.723 -0.1144  0.0305  0.6508
 9286TIP3    H149349   3.896   0.242   4.711 -0.0385 -0.2984  1.7784
 9286TIP3    H249350   3.766   0.198   4.776 -0.3049  1.3847  2.4329
 9287TIP3   OH249351   5.910   5.502   4.922  0.1682 -0.0193  0.3839
 9287TIP3    H149352   5.960   5.427   4.889 -1.1924 -1.1315  0.7955
 9287TIP3    H249353   5.824   5.466   4.944 -0.4123  1.6088  0.8791
 9288TIP3   OH249354   3.748   0.070  16.028  0.3794  0.4038 -0.1238
 9288TIP3    H149355   3.831   0.116  16.017  1.3445 -1.6057 -1.9518
 9288TIP3    H249356   3.751   0.036  16.117  2.5231 -1.3341 -0.7671
 9289TIP3   OH249357   6.080   5.853   2.523 -0.1514 -0.5224  0.3643
 9289TIP3    H149358   6.019   5.870   2.451  0.5240  5.1325  0.7347
 9289TIP3    H249359   6.025   5.858   2.601  0.1967  0.8548  0.5313
 9290TIP3   OH249360   4.072   1.927   0.881  0.5489  0.1208 -0.2131
 9290TIP3    H149361   3.992   1.913   0.933  0.6088  0.6178  0.0185
 9290TIP3    H249362   4.126   1.850   0.898 -0.5437 -1.0250 -1.6275
 9291TIP3   OH249363   6.429   3.237   0.679 -0.0422  0.0364 -0.1096
 9291TIP3    H149364   6.422   3.143   0.698 -2.5210 -0.2460 -1.8787
 9291TIP3    H249365   6.463   3.276   0.760  2.8666 -2.5168  0.0828
 9292TIP3   OH249366   5.299   6.384   4.630 -0.2944 -0.1283  0.7483
 9292TIP3    H149367   5.387   6.420   4.626 -0.4579  0.1694 -2.2825
 9292TIP3    H249368   5.299   6.328   4.708  1.9681  1.2747  1.8433
 9293TIP3   OH249369   1.278   6.016   5.650  0.1281  0.0595 -0.9863
 9293TIP3    H149370   1.319   5.933   5.675  1.2866 -0.1093 -3.1243
 9293TIP3    H249371   1.199   6.022   5.704  0.7944 -1.6971  0.2712
 9294TIP3   OH249372   0.500   6.594   1.049  0.7542  0.3325 -0.1212
 9294TIP3    H149373   0.493   6.587   0.954 -1.7203 -0.4966  0.0620
 9294TIP3    H249374   0.412   6.618   1.078  0.0148 -4.2052  2.2592
 9295TIP3   OH249375   4.767   5.830   3.499 -0.0379  0.0376 -0.1493
 9295TIP3    H149376   4.677   5.852   3.519 -0.0715  0.5505 -0.8065
 9295TIP3    H249377   4.767   5.811   3.405  0.5729  0.2600 -0.2026
 9296TIP3   OH249378   5.466   2.392   4.723 -0.1081  0.7654 -0.1986
 9296TIP3    H149379   5.465   2.402   4.818  1.7187  1.3862 -0.1942
 9296TIP3    H249380   5.514   2.310   4.709  0.0519  0.9249 -0.5882
 9297TIP3   OH249381   6.791   4.845   4.836  0.0199 -0.8432  0.2277
 9297TIP3    H149382   6.796   4.932   4.797 -2.5433 -0.8013 -0.1753
 9297TIP3    H249383   6.761   4.788   4.765  0.0778 -1.7199  0.8884
 9298TIP3   OH249384   0.006   3.737  13.400  0.5554  0.0154  0.3636
 9298TIP3    H149385   0.087   3.728  13.350  1.2618 -0.8276  1.6077
 9298TIP3    H249386  -0.045   3.660  13.376 -0.6798  1.3474 -1.6924
 9299TIP3   OH249387   0.703   0.989  11.280 -0.2016  0.8798  0.1965
 9299TIP3    H149388   0.640   0.920  11.303  0.3715  0.1246 -0.4333
 9299TIP3    H249389   0.654   1.071  11.291 -1.7515  0.2651 -1.6154
 9300TIP3   OH249390   3.059   2.147  15.792  0.2058 -0.4024  0.5337
 9300TIP3    H149391   3.011   2.228  15.811 -0.0332 -0.9829  2.6454
 9300TIP3    H249392   3.130   2.175  15.734  0.9306  1.6166  2.2603
 9301TIP3   OH249393   4.047   0.271   4.223  1.0180  0.4564  0.9687
 9301TIP3    H149394   4.060   0.314   4.308  2.8377  1.6139  0.1813
 9301TIP3    H249395   4.044   0.178   4.244 -2.5490  0.7891  2.6731
 9302TIP3   OH249396   5.313   5.260  16.670  0.1082 -0.2716 -0.3560
 9302TIP3    H149397   5.405   5.284  16.676 -0.5231  2.3000 -0.0699
 9302TIP3    H249398   5.274   5.290  16.752 -1.4142  0.9565 -1.4602
 9303TIP3   OH249399   6.777   5.427  16.084 -0.3275  0.3217 -0.5599
 9303TIP3    H149400   6.802   5.372  16.157  0.3602 -1.3041 -1.9572
 9303TIP3    H249401   6.853   5.483  16.068 -0.8814  1.4452  0.6145
 9304TIP3   OH249402   2.288   1.146  14.532  0.3200 -0.6444  0.1292
 9304TIP3    H149403   2.239   1.064  14.529  0.1342 -0.5134 -0.8261
 9304TIP3    H249404   2.363   1.131  14.475  0.6452 -0.3750  0.4843
 9305TIP3   OH249405   6.775   5.144   4.809  0.2176 -0.7346 -0.0908
 9305TIP3    H149406   6.801   5.112   4.896  0.1685 -2.7629 -0.7658
 9305TIP3    H249407   6.737   5.230   4.826  0.2733 -1.0475  1.8912
 9306TIP3   OH249408   5.191   6.557  16.873 -0.0955  0.5953 -0.3696
 9306TIP3    H149409   5.222   6.504  16.800 -0.8894  0.4257 -0.5949
 9306TIP3    H249410   5.136   6.624  16.833 -2.3358 -0.8081  0.1935
 9307TIP3   OH249411   0.043   3.726  16.338  0.6182 -0.4011  0.3650
 9307TIP3    H149412   0.098   3.718  16.259 -1.0990 -1.5002 -0.7940
 9307TIP3    H249413   0.003   3.812  16.330 -0.6326 -1.0556 -0.7498
 9308TIP3   OH249414   2.708   2.824  15.455  0.0977  0.1249 -0.1999
 9308TIP3    H149415   2.725   2.807  15.362  0.6668  0.5729 -0.1747
 9308TIP3    H249416   2.749   2.750  15.500  0.5984  0.3718 -0.2460
 9309TIP3   OH249417   1.293   0.597  13.754  0.2314  0.3562 -0.3314
 9309TIP3    H149418   1.325   0.509  13.734 -0.1719 -0.6618  2.8843
 9309TIP3    H249419   1.199   0.585  13.768  0.3205  1.0722  1.0248
 9310TIP3   OH249420   6.372   5.771   3.325  0.6989 -0.0830 -0.0478
 9310TIP3    H149421   6.325   5.781   3.408 -0.8214 -0.8329 -0.7803
 9310TIP3    H249422   6.423   5.852   3.317 -1.8219  1.6588 -0.0080
 9311TIP3   OH249423   0.665   3.888   3.029  0.0698  0.0016  0.2332
 9311TIP3    H149424   0.613   3.966   3.048 -1.1342 -0.6676 -0.2022
 9311TIP3    H249425   0.713   3.871   3.110 -0.2577  0.7330  0.5927
 9312TIP3   OH249426   6.760   5.822   3.356  0.2441  0.5531  0.3413
 9312TIP3    H149427   6.767   5.733   3.391  0.0655  1.0812  1.7748
 9312TIP3    H249428   6.849   5.844   3.330  0.6250  0.5487  1.5560
 9313TIP3   OH249429   4.902   3.750   2.422 -0.2951  0.2609 -0.9868
 9313TIP3    H149430   4.843   3.808   2.470  0.1932 -0.1923  0.2015
 9313TIP3    H249431   4.909   3.789   2.336 -1.5787  0.8446 -0.8502
 9314TIP3   OH249432   4.772   3.594   1.602  0.1148 -0.1755  0.1997
 9314TIP3    H149433   4.728   3.612   1.519 -0.5209  3.0874  1.1044
 9314TIP3    H249434   4.720   3.524   1.642 -0.5528 -0.6372 -1.3921
 9315TIP3   OH249435   3.730   4.324  11.080 -0.1232 -0.4626 -0.4892
 9315TIP3    H149436   3.756   4.336  10.989  3.2105 -1.8696  0.1286
 9315TIP3    H249437   3.775   4.395  11.127  1.0576 -1.7559  0.4127
 9316TIP3   OH249438   0.254   1.828  16.536 -0.3618  0.0685 -0.6559
 9316TIP3    H149439   0.172   1.837  16.487 -0.5699 -0.8797 -0.4906
 9316TIP3    H249440   0.316   1.884  16.489 -1.0234  0.5732 -0.9485
 9317TIP3   OH249441   2.669   5.771   5.427 -0.0316  0.2669 -0.2961
 9317TIP3    H149442   2.602   5.814   5.479 -0.2008 -0.3893  0.0406
 9317TIP3    H249443   2.636   5.776   5.337  1.0788  2.9374 -0.6340
 9318TIP3   OH249444   5.736   5.485  11.631  0.1519  0.4419 -0.1804
 9318TIP3    H149445   5.765   5.573  11.609 -0.3800  0.3218 -1.4578
 9318TIP3    H249446   5.647   5.495  11.664 -0.3629  0.2949 -1.4592
 9319TIP3   OH249447   1.299   0.752   1.289  0.1499  0.0343 -0.1725
 9319TIP3    H149448   1.353   0.783   1.361  0.0928  0.2661 -0.2293
 9319TIP3    H249449   1.337   0.792   1.211  0.6820 -0.8253 -0.3634
 9320TIP3   OH249450   6.727   6.763   3.475 -0.0265  0.6863  0.5333
 9320TIP3    H149451   6.712   6.787   3.383 -1.2137  1.9436  1.0199
 9320TIP3    H249452   6.659   6.810   3.523  0.6444  0.1264  2.0806
 9321TIP3   OH249453   5.225   3.758   1.447  0.0968  0.3955  0.2180
 9321TIP3    H149454   5.151   3.763   1.387 -1.4905 -0.1756  2.0346
 9321TIP3    H249455   5.230   3.665   1.473  1.5400  0.3943  0.0292
 9322TIP3   OH249456   1.179   4.631  16.557  0.2799  0.9631  0.8136
 9322TIP3    H149457   1.178   4.580  16.638  0.1375  1.2103  0.9670
 9322TIP3    H249458   1.265   4.672  16.555  1.2680 -1.0023 -0.3981
 9323TIP3   OH249459   6.343   1.203  15.443 -0.3460 -0.3807  0.7420
 9323TIP3    H149460   6.416   1.256  15.476 -0.1436 -0.7895  0.9656
 9323TIP3    H249461   6.273   1.266  15.427  0.8082  0.3924 -1.7916
 9324TIP3   OH249462   6.205   3.778   4.620  0.6975  0.3939  0.6504
 9324TIP3    H149463   6.110   3.789   4.611  0.7167  1.3361  1.4516
 9324TIP3    H249464   6.215   3.704   4.680  0.4745  0.1702  0.4156
 9325TIP3   OH249465   2.607   0.846  11.707  0.1713 -0.3106 -0.3061
 9325TIP3    H149466   2.587   0.931  11.748  1.2275 -0.3848  0.4112
 9325TIP3    H249467   2.530   0.792  11.724  0.0031  0.1174  0.3462
 9326TIP3   OH249468   5.680   4.097   2.940 -0.2697 -0.5815 -0.3798
 9326TIP3    H149469   5.721   4.013   2.918  1.3598  0.6883 -2.6150
 9326TIP3    H249470   5.727   4.161   2.886 -1.4554  1.7875  1.2497
 9327TIP3   OH249471   1.357   5.488   5.800  0.4693  0.7536 -0.4362
 9327TIP3    H149472   1.362   5.418   5.865  0.1952  1.5918  0.5082
 9327TIP3    H249473   1.263   5.506   5.791  0.4555  0.2543 -1.5176
 9328TIP3   OH249474   6.203   4.049  13.696 -0.6973 -0.4553 -0.0970
 9328TIP3    H149475   6.209   4.110  13.623  1.3173 -1.0406 -0.4849
 9328TIP3    H249476   6.119   4.005  13.684 -1.3718  0.9643 -0.8100
 9329TIP3   OH249477   6.463   1.336   1.749 -0.3547 -0.3998 -0.3937
 9329TIP3    H149478   6.429   1.403   1.809 -1.3939 -1.4694  0.2590
 9329TIP3    H249479   6.554   1.361   1.734 -0.8722  1.4696 -0.6252
 9330TIP3   OH249480   2.875   4.233   0.977 -0.0155  0.2013 -1.0563
 9330TIP3    H149481   2.841   4.154   0.934 -1.2717 -0.9609  1.8457
 9330TIP3    H249482   2.798   4.288   0.991  0.5522  1.0843 -1.2927
 9331TIP3   OH249483   2.280   2.626  12.592 -0.5515 -0.1231 -0.0963
 9331TIP3    H149484   2.325   2.685  12.653 -0.7445 -0.1276  0.0517
 9331TIP3    H249485   2.187   2.639  12.611 -0.5963 -0.4137 -0.1206
 9332TIP3   OH249486   4.146   5.565   0.525 -0.1285 -0.2316 -0.2852
 9332TIP3    H149487   4.139   5.486   0.579 -0.1749 -0.0760 -0.0588
 9332TIP3    H249488   4.081   5.552   0.456  0.3829 -0.7227 -0.6832
 9333TIP3   OH249489   0.043   3.871   3.110 -0.3449 -0.2370  0.0300
 9333TIP3    H149490  -0.000   3.848   3.028  1.1287  0.3966 -0.9820
 9333TIP3    H249491   0.072   3.961   3.097  0.3715 -0.3071  1.0410
 9334TIP3   OH249492   4.474   2.800   4.840  0.0929  0.6724 -0.0121
 9334TIP3    H149493   4.397   2.750   4.812 -1.0060  2.0701  0.4286
 9334TIP3    H249494   4.544   2.735   4.843 -1.3503 -0.9292  0.8869
 9335TIP3   OH249495   6.068   2.004   6.135  0.1070 -0.5083  0.1788
 9335TIP3    H149496   5.977   2.029   6.153  1.0857  1.7085  2.8324
 9335TIP3    H249497   6.097   1.958   6.214  1.6875  0.1808  0.0401
 9336TIP3   OH249498   1.674   0.382  13.732 -0.3673 -0.1567  0.1787
 9336TIP3    H149499   1.636   0.373  13.820  0.1214 -1.9612  0.2481
 9336TIP3    H249500   1.608   0.430  13.682 -0.6678  0.8810  1.5047
 9337TIP3   OH249501   2.368   4.704  13.056  0.0290  0.1540  0.0415
 9337TIP3    H149502   2.318   4.648  13.115 -1.8839  2.1533  0.4756
 9337TIP3    H249503   2.389   4.649  12.981 -0.7152 -1.4318  0.9554
 9338TIP3   OH249504   3.661   0.967  15.153 -0.0555  0.7453  0.0580
 9338TIP3    H149505   3.596   0.908  15.191  0.9079 -0.6177 -0.3272
 9338TIP3    H249506   3.656   1.045  15.208 -0.5452 -0.1474  1.3656
 9339TIP3   OH249507   1.649   5.277  15.941 -0.2392 -0.1835 -0.3876
 9339TIP3    H149508   1.719   5.317  15.993  1.1052 -2.0582 -0.6333
 9339TIP3    H249509   1.569   5.297  15.989  0.3107  2.6711 -0.4748
 9340TIP3   OH249510   2.750   6.028  11.890  0.4869 -0.1577  0.3198
 9340TIP3    H149511   2.806   6.059  11.961  3.8851 -0.7092 -1.9153
 9340TIP3    H249512   2.714   5.946  11.923 -2.6273  2.0774  3.3798
 9341TIP3   OH249513   6.421   3.753  17.114 -0.0865 -0.6383 -0.8394
 9341TIP3    H149514   6.401   3.727  17.024  1.1195  0.6738 -1.5293
 9341TIP3    H249515   6.338   3.786  17.148 -0.8562 -2.3110 -1.0203
 9342TIP3   OH249516   5.080   0.459  14.772 -0.1638 -0.1885 -0.0858
 9342TIP3    H149517   5.027   0.456  14.852 -0.6354  2.2386 -0.2379
 9342TIP3    H249518   5.139   0.533  14.785  0.5558 -0.4742 -1.5128
 9343TIP3   OH249519   4.094   3.968  17.052 -0.4536  0.0182 -0.7339
 9343TIP3    H149520   4.055   3.916  16.981 -2.7672 -0.5849  0.8495
 9343TIP3    H249521   4.036   4.044  17.060 -0.4412 -0.1002  0.6933
 9344TIP3   OH249522   2.360   0.636   1.520 -0.9159  0.2800 -0.2061
 9344TIP3    H149523   2.405   0.689   1.455  0.9434 -0.5298  0.3263
 9344TIP3    H249524   2.352   0.549   1.480 -0.8464  0.0934  0.1693
 9345TIP3   OH249525   0.391   2.826  11.390  0.0484  0.4055 -0.1070
 9345TIP3    H149526   0.299   2.809  11.411  0.1436 -0.0142 -0.0215
 9345TIP3    H249527   0.391   2.848  11.297 -0.1052  0.1237 -0.1754
 9346TIP3   OH249528   3.295   2.924  13.392 -0.4752 -0.3964 -0.4765
 9346TIP3    H149529   3.222   2.864  13.407 -1.8362  1.0850 -0.8905
 9346TIP3    H249530   3.265   3.008  13.428  1.6541 -0.0963  0.7321
 9347TIP3   OH249531   2.693   0.394  16.022 -0.5026 -0.1524 -0.0635
 9347TIP3    H149532   2.718   0.475  15.978  0.7363 -0.4394  0.0619
 9347TIP3    H249533   2.613   0.366  15.978  0.2063  0.0388 -1.5693
 9348TIP3   OH249534   3.762   5.381  13.152 -0.2077 -0.1703 -0.0708
 9348TIP3    H149535   3.843   5.431  13.140  0.2302 -0.9597 -0.4869
 9348TIP3    H249536   3.788   5.304  13.202 -0.3182 -1.3509 -1.7508
 9349TIP3   OH249537   3.758   3.068  12.474  0.3826  0.2246 -0.1779
 9349TIP3    H149538   3.723   2.992  12.426 -2.4381  1.0205  0.4422
 9349TIP3    H249539   3.681   3.113  12.507  2.0582  2.3888  1.0437
 9350TIP3   OH249540   1.103   6.685   3.746 -0.0076  0.4424 -0.3725
 9350TIP3    H149541   1.164   6.621   3.782 -0.1319  0.1341 -0.7093
 9350TIP3    H249542   1.120   6.685   3.652  0.7219  1.6680 -0.2674
 9351TIP3   OH249543   2.409   6.134  15.106 -0.2361  0.7414 -0.2734
 9351TIP3    H149544   2.420   6.065  15.041 -0.4398  0.4084  0.0439
 9351TIP3    H249545   2.325   6.115  15.147  0.3631  0.3542  0.7963
 9352TIP3   OH249546   0.772   5.447   2.983 -0.1141  0.1851  0.1744
 9352TIP3    H149547   0.796   5.531   2.944 -1.5385  1.3421  1.6928
 9352TIP3    H249548   0.837   5.433   3.052  2.8649 -2.2188 -2.7873
 9353TIP3   OH249549   3.460   3.447  11.348 -0.1848 -0.3068 -0.1501
 9353TIP3    H149550   3.373   3.437  11.385  1.1157 -2.0342  2.7461
 9353TIP3    H249551   3.518   3.400  11.407  2.9039  1.5768 -1.3789
 9354TIP3   OH249552   0.196   4.174  15.113  0.4677  0.7235  0.2799
 9354TIP3    H149553   0.273   4.217  15.150  1.4619  0.1658 -1.0705
 9354TIP3    H249554   0.175   4.104  15.175  0.5419  1.3743  1.0585
 9355TIP3   OH249555   5.264   4.209   4.507  1.0005 -0.5262 -0.3337
 9355TIP3    H149556   5.317   4.188   4.430  0.5152 -3.2145 -0.0186
 9355TIP3    H249557   5.174   4.192   4.479  0.8296 -1.6298  0.8351
 9356TIP3   OH249558   1.987   3.404  14.792 -0.3819 -0.8488 -0.0924
 9356TIP3    H149559   2.078   3.374  14.796 -0.2371 -0.4153 -0.0674
 9356TIP3    H249560   1.939   3.330  14.755  0.1358 -0.7530 -0.9950
 9357TIP3   OH249561   1.700   1.372   5.381  0.4735 -0.1766  0.7011
 9357TIP3    H149562   1.734   1.386   5.293 -0.8672 -0.2631  0.1477
 9357TIP3    H249563   1.675   1.459   5.412  1.0137 -0.1355  1.0415
 9358TIP3   OH249564   4.023   0.148  15.976  0.8783 -0.4177 -0.4815
 9358TIP3    H149565   4.088   0.140  16.046  2.0649 -1.5581 -1.6486
 9358TIP3    H249566   4.055   0.219  15.921  1.0642 -0.8776 -0.9757
 9359TIP3   OH249567   1.457   4.862  16.880  0.0797 -0.0361 -0.1459
 9359TIP3    H149568   1.375   4.851  16.928  0.0338 -0.5343 -0.3302
 9359TIP3    H249569   1.513   4.913  16.938 -0.5293  0.7343 -0.2159
 9360TIP3   OH249570   5.740   4.950   0.129  0.5720  0.1180  0.0198
 9360TIP3    H149571   5.778   5.037   0.142  1.2101  0.0953 -1.5025
 9360TIP3    H249572   5.781   4.896   0.196 -1.7229  1.4375  2.7596
 9361TIP3   OH249573   6.578   4.951  15.538  0.5197  0.4840 -0.2253
 9361TIP3    H149574   6.668   4.939  15.567  0.6965  0.0244 -0.9276
 9361TIP3    H249575   6.583   4.950  15.442 -0.3418 -0.5036 -0.2835
 9362TIP3   OH249576   6.568   1.171   6.282  0.2544  0.5239  0.1907
 9362TIP3    H149577   6.586   1.135   6.369  0.8371  1.7868  0.6236
 9362TIP3    H249578   6.579   1.266   6.293 -1.5206  0.8805 -0.8206
 9363TIP3   OH249579   3.086   2.790  12.944  0.8900  0.3403  0.4157
 9363TIP3    H149580   3.026   2.829  13.009  0.3124  0.7604 -0.3562
 9363TIP3    H249581   3.150   2.858  12.927  0.8722  0.3348  0.3283
 9364TIP3   OH249582   3.916   3.758  15.520  0.5723  0.0441 -0.6156
 9364TIP3    H149583   3.833   3.795  15.549  1.3104  1.7424 -0.5331
 9364TIP3    H249584   3.892   3.678  15.474 -1.1452  0.6725 -0.8942
 9365TIP3   OH249585   0.075   5.122  15.358  1.1529 -0.7163  0.2547
 9365TIP3    H149586   0.022   5.120  15.278 -0.0065  0.7009  0.9142
 9365TIP3    H249587   0.075   5.032  15.389 -2.3246 -0.6015  1.0484
 9366TIP3   OH249588   6.239   0.927  13.657 -0.0434 -0.0655 -0.0820
 9366TIP3    H149589   6.286   0.877  13.590  2.6016 -1.7681  2.7856
 9366TIP3    H249590   6.170   0.868  13.687 -0.4490  0.2184 -0.4435
 9367TIP3   OH249591   0.398   3.939   3.306 -0.1072 -0.4996  0.3942
 9367TIP3    H149592   0.398   4.018   3.360 -0.2122 -0.2700  0.0682
 9367TIP3    H249593   0.434   3.871   3.361  3.3049  0.4893 -0.3896
 9368TIP3   OH249594   3.229   5.631   3.538  0.3496 -0.0798  0.3289
 9368TIP3    H149595   3.233   5.569   3.465 -0.1346 -0.9662  1.0289
 9368TIP3    H249596   3.170   5.700   3.509  1.9898  0.8361 -1.0107
 9369TIP3   OH249597   3.352   4.762  15.737  0.6232 -0.1275  0.2408
 9369TIP3    H149598   3.448   4.772  15.738  0.7247 -0.7069  2.6030
 9369TIP3    H249599   3.329   4.743  15.828 -1.8326  0.6005 -0.1549
 9370TIP3   OH249600   1.227   0.219  13.457 -0.1820 -0.1608  0.2942
 9370TIP3    H149601   1.213   0.257  13.371 -0.7995  1.8236  1.2224
 9370TIP3    H249602   1.143   0.179  13.479 -0.5095  0.6883  0.6084
 9371TIP3   OH249603   2.271   4.904  15.110  0.2201  0.4709 -0.7677
 9371TIP3    H149604   2.262   4.947  15.025 -0.4077  2.6078  0.3054
 9371TIP3    H249605   2.307   4.972  15.168 -0.6244 -0.4985  0.9835
 9372TIP3   OH249606   3.902   3.000  16.078  0.0053 -0.0989  0.2091
 9372TIP3    H149607   3.880   2.984  15.986  0.1714 -1.6845  0.4103
 9372TIP3    H249608   3.909   2.912  16.116 -1.4654  0.5203  2.0797
 9373TIP3   OH249609   5.399   1.863   3.662  0.0509  0.3287  0.8836
 9373TIP3    H149610   5.344   1.789   3.687 -1.1814  0.2444 -1.6724
 9373TIP3    H249611   5.338   1.938   3.660  0.1677  0.4298 -1.0436
 9374TIP3   OH249612   0.026   5.870  11.033  0.6350 -0.1125  0.0117
 9374TIP3    H149613  -0.018   5.865  10.949  0.2354  1.7907  0.0552
 9374TIP3    H249614  -0.014   5.800  11.085 -1.0577  0.3873 -0.5375
 9375TIP3   OH249615   2.592   3.664   5.168 -0.0207  0.3407  0.1392
 9375TIP3    H149616   2.497   3.671   5.165  0.0882  2.1942 -0.0371
 9375TIP3    H249617   2.623   3.728   5.104  1.3717  1.5032  1.8841
 9376TIP3   OH249618   1.061   4.781   4.882  0.4539 -0.2478 -0.1426
 9376TIP3    H149619   1.150   4.815   4.881  1.5055 -2.6232  1.9781
 9376TIP3    H249620   1.066   4.698   4.836  0.0004 -1.6327  2.1272
 9377TIP3   OH249621   4.492   3.664   2.033 -0.8846  0.1268 -0.2943
 9377TIP3    H149622   4.505   3.614   1.952  0.1745  0.6157 -0.4462
 9377TIP3    H249623   4.398   3.663   2.047 -0.8537 -3.0169  0.4217
 9378TIP3   OH249624   6.324   2.484   0.905  0.2004  0.2725  0.9643
 9378TIP3    H149625   6.354   2.395   0.886  0.5043  0.4587  0.5400
 9378TIP3    H249626   6.316   2.525   0.819 -0.8550  0.3711  1.0994
 9379TIP3   OH249627   5.246   1.665   5.825 -0.4427 -0.3104 -0.0633
 9379TIP3    H149628   5.265   1.574   5.802  0.5544 -0.1760  0.1851
 9379TIP3    H249629   5.166   1.686   5.776  0.1364 -0.8663 -1.2780
 9380TIP3   OH249630   2.210   1.419  13.683 -0.1143 -0.8476  0.1571
 9380TIP3    H149631   2.162   1.451  13.606  0.4715  0.2843  0.2407
 9380TIP3    H249632   2.268   1.491  13.706 -0.2488 -1.1872  1.6483
 9381TIP3   OH249633   1.221   4.835   0.922  0.1937 -0.1348  0.1418
 9381TIP3    H149634   1.277   4.762   0.897  0.0191 -0.2854  0.1842
 9381TIP3    H249635   1.162   4.799   0.988  0.4633  0.1897  0.5598
 9382TIP3   OH249636   2.254   2.486   6.006 -0.1314  0.2565 -0.3373
 9382TIP3    H149637   2.195   2.450   6.072 -0.3760  2.9321  1.0433
 9382TIP3    H249638   2.342   2.474   6.042 -0.0099 -1.1593 -1.0614
 9383TIP3   OH249639   1.586   6.178  11.096 -0.0026  0.3709  0.2778
 9383TIP3    H149640   1.642   6.181  11.018 -0.7030 -1.3472 -0.3255
 9383TIP3    H249641   1.646   6.158  11.168  0.1431 -2.0487 -0.4470
 9384TIP3   OH249642   1.002   5.127  11.114 -0.1469  0.2799 -0.1695
 9384TIP3    H149643   1.086   5.125  11.069  0.0698  0.9265  0.2014
 9384TIP3    H249644   1.000   5.212  11.158  0.3327 -0.9534  2.3748
 9385TIP3   OH249645   3.432   0.613   4.713 -0.0127 -0.2797  0.3321
 9385TIP3    H149646   3.460   0.576   4.797 -0.5289 -0.5082  0.4063
 9385TIP3    H249647   3.432   0.708   4.728  1.2116 -0.2460  0.1713
 9386TIP3   OH249648   1.713   3.487  13.037 -0.0105 -0.2247  0.6406
 9386TIP3    H149649   1.733   3.533  13.118 -2.1745  1.0255  0.5378
 9386TIP3    H249650   1.762   3.405  13.043  3.5761  1.7927  1.0630
 9387TIP3   OH249651   3.164   5.039  16.314  0.0401 -0.0041  0.2617
 9387TIP3    H149652   3.171   5.030  16.409  0.4801 -0.3851  0.1959
 9387TIP3    H249653   3.123   4.957  16.284 -1.2024  0.5950  0.2346
 9388TIP3   OH249654   6.387   5.021  11.996 -0.3623  0.4072  0.6382
 9388TIP3    H149655   6.336   4.967  11.936  0.1681  0.9079 -0.2833
 9388TIP3    H249656   6.388   4.970  12.077 -1.0501 -0.3097  0.2206
 9389TIP3   OH249657   3.704   3.356   3.560  0.2499 -0.2449  0.0378
 9389TIP3    H149658   3.673   3.337   3.472 -0.6935 -0.3710  0.3929
 9389TIP3    H249659   3.661   3.291   3.616 -0.1702  0.6341  0.7612
 9390TIP3   OH249660   3.542   3.747  13.089  0.0001 -0.2633 -0.0786
 9390TIP3    H149661   3.636   3.760  13.077 -0.0286  1.8709  1.4548
 9390TIP3    H249662   3.534   3.708  13.176 -0.4322 -3.4442 -1.4298
 9391TIP3   OH249663   0.352   4.772  13.167 -0.7321 -0.1820 -0.5012
 9391TIP3    H149664   0.274   4.801  13.214 -0.2325 -0.2815  0.3995
 9391TIP3    H249665   0.325   4.689  13.126 -0.5521 -1.2536  1.4152
 9392TIP3   OH249666   0.905   4.063   4.281  0.0879  0.4617  0.0244
 9392TIP3    H149667   0.899   3.996   4.213 -1.7730 -0.4899  1.0443
 9392TIP3    H249668   0.965   4.026   4.345 -0.0684  0.2491  0.0511
 9393TIP3   OH249669   6.700   6.742   0.835  0.1835 -0.0508  0.7075
 9393TIP3    H149670   6.738   6.706   0.915  0.5402  0.4396  0.7674
 9393TIP3    H249671   6.608   6.716   0.838  0.5256 -1.3500  0.5151
 9394TIP3   OH249672   0.410   2.546   3.578 -0.2375  1.1649  0.6253
 9394TIP3    H149673   0.501   2.547   3.607 -0.7735 -0.1228  2.5276
 9394TIP3    H249674   0.364   2.494   3.643 -2.3670  1.7780 -0.2809
 9395TIP3   OH249675   4.177   5.265  13.224 -0.4713 -0.5746 -0.3306
 9395TIP3    H149676   4.245   5.199  13.235 -1.8990 -1.7958  1.5703
 9395TIP3    H249677   4.124   5.260  13.303 -0.6168  2.9462 -0.0201
 9396TIP3   OH249678   3.699   4.452   2.890  0.3729  0.0132  0.1989
 9396TIP3    H149679   3.699   4.421   2.980  1.2236  1.5697  0.7794
 9396TIP3    H249680   3.735   4.541   2.896 -1.3352  0.8659 -1.4222
 9397TIP3   OH249681   4.140   6.301  11.873  0.1242  0.7425  0.0906
 9397TIP3    H149682   4.046   6.308  11.891  0.1078  0.4647  0.1192
 9397TIP3    H249683   4.182   6.345  11.947  0.0462 -0.1193  0.6624
 9398TIP3   OH249684   5.638   3.312  11.748 -0.0932  0.3185  0.0540
 9398TIP3    H149685   5.693   3.242  11.714 -0.8540  0.3305 -1.2674
 9398TIP3    H249686   5.652   3.310  11.842  0.1373 -1.4041  0.0107
 9399TIP3   OH249687   4.642   1.100   3.696  0.1068  0.3431  0.3979
 9399TIP3    H149688   4.592   1.096   3.615  0.2973  0.6115  0.2642
 9399TIP3    H249689   4.584   1.061   3.762  0.2069 -0.4728  0.0141
 9400TIP3   OH249690   0.634   2.007   2.180 -0.2772 -0.4984  0.1065
 9400TIP3    H149691   0.667   2.092   2.151  0.1233 -0.7442 -0.1683
 9400TIP3    H249692   0.701   1.945   2.152  0.7156 -0.6279  2.5085
 9401TIP3   OH249693   4.926   2.902  17.014 -0.5593  0.4359 -0.0282
 9401TIP3    H149694   5.002   2.892  16.956 -0.4809 -1.9117  0.3585
 9401TIP3    H249695   4.960   2.882  17.101 -1.3468  0.6951  0.3464
 9402TIP3   OH249696   6.377   5.785   4.251 -0.3579  0.1412 -0.1721
 9402TIP3    H149697   6.426   5.749   4.177  0.6827  3.3454 -1.2021
 9402TIP3    H249698   6.414   5.743   4.328  0.8480 -0.8403 -1.2542
 9403TIP3   OH249699   6.721   0.571  14.631  0.4610  0.3009  0.4417
 9403TIP3    H149700   6.698   0.539  14.718 -1.8432  0.8390  0.0945
 9403TIP3    H249701   6.729   0.492  14.577  1.0804  0.0193  0.9353
 9404TIP3   OH249702   6.666   6.231   1.847 -0.4299 -0.1958 -0.3205
 9404TIP3    H149703   6.720   6.153   1.835  0.8514  0.7303 -0.7225
 9404TIP3    H249704   6.629   6.248   1.760  1.4814  1.1912 -0.9100
 9405TIP3   OH249705   0.978   3.135   0.446 -0.4262  0.1615  0.2541
 9405TIP3    H149706   0.986   3.230   0.436 -1.2312  0.1170 -1.1281
 9405TIP3    H249707   1.022   3.116   0.529  1.1393  1.5261 -0.2055
 9406TIP3   OH249708   4.968   5.649  14.477 -0.2131  0.1473 -0.1918
 9406TIP3    H149709   4.932   5.735  14.455 -0.3121  0.2175  0.2419
 9406TIP3    H249710   5.049   5.668  14.523  1.1021 -0.0191 -2.3110
 9407TIP3   OH249711   5.259   3.913   3.615 -0.1544 -0.2549 -0.1588
 9407TIP3    H149712   5.317   3.938   3.688 -0.1412 -0.0485 -0.2414
 9407TIP3    H249713   5.299   3.952   3.538 -0.8190  0.5344 -0.1138
 9408TIP3   OH249714   3.860   1.260   0.241  0.0566  0.4333  0.4461
 9408TIP3    H149715   3.823   1.283   0.155  2.9497  2.1447 -0.4794
 9408TIP3    H249716   3.806   1.187   0.271 -1.7018  0.4106 -2.3589
 9409TIP3   OH249717   4.463   2.465  15.614 -0.0739 -0.1433  0.2024
 9409TIP3    H149718   4.415   2.423  15.542  1.6919 -0.6505 -0.7523
 9409TIP3    H249719   4.426   2.553  15.619 -1.5813 -0.7362  0.0070
 9410TIP3   OH249720   2.255   2.165  14.119 -0.3488 -0.1828  0.3780
 9410TIP3    H149721   2.265   2.134  14.209  0.8841  0.8230  0.6124
 9410TIP3    H249722   2.240   2.259  14.127  0.1242 -0.0223 -0.4743
 9411TIP3   OH249723   0.811   4.970  12.256 -0.4164 -0.0922 -0.2883
 9411TIP3    H149724   0.827   5.063  12.272  0.1704 -0.1046 -0.7978
 9411TIP3    H249725   0.715   4.963  12.256 -0.5127  0.8012 -1.8798
 9412TIP3   OH249726   3.424   5.250  16.954  0.0152 -0.7752  0.9093
 9412TIP3    H149727   3.367   5.326  16.968  0.6646 -0.0914 -0.0324
 9412TIP3    H249728   3.482   5.249  17.030  0.4968  0.1366  0.5632
 9413TIP3   OH249729   5.288   2.092   1.385  0.2388  0.3179  0.4228
 9413TIP3    H149730   5.275   2.179   1.349  0.4307  0.3084  0.3334
 9413TIP3    H249731   5.241   2.093   1.469  0.3875  0.5598  0.5020
 9414TIP3   OH249732   5.404   2.401   0.803  0.2604  0.7579 -0.6527
 9414TIP3    H149733   5.386   2.326   0.745  1.0055  1.1064 -1.3574
 9414TIP3    H249734   5.435   2.361   0.884  1.0086  0.2856 -1.1466
 9415TIP3   OH249735   6.541   6.102   2.428  0.0335  0.4865  0.1192
 9415TIP3    H149736   6.525   6.080   2.336 -0.5773  1.5631 -0.0586
 9415TIP3    H249737   6.515   6.194   2.435 -2.3411 -0.2060  1.9398
 9416TIP3   OH249738   6.281   2.046   0.222  0.5323  0.2622  0.0818
 9416TIP3    H149739   6.194   2.008   0.236  0.8277 -1.5904 -2.2956
 9416TIP3    H249740   6.339   1.970   0.214  2.0855  1.4061  0.0500
 9417TIP3   OH249741   1.450   6.805   5.792  0.1531 -0.0497  0.1851
 9417TIP3    H149742   1.483   6.894   5.802 -0.0962  0.4273 -2.4968
 9417TIP3    H249743   1.408   6.804   5.706  0.2135 -2.7786  0.0905
 9418TIP3   OH249744   2.790   0.232  12.098 -0.1400  0.0011  0.1241
 9418TIP3    H149745   2.752   0.270  12.019  0.6579  0.2034 -0.1711
 9418TIP3    H249746   2.825   0.307  12.147  0.8915 -0.2693 -0.1674
 9419TIP3   OH249747   3.872   1.501  14.250  0.2209 -0.4707 -0.4136
 9419TIP3    H149748   3.790   1.453  14.254  0.8702 -1.5385  0.4576
 9419TIP3    H249749   3.893   1.522  14.341  0.4191  0.6872 -0.7011
 9420TIP3   OH249750   3.404   5.316   0.623  0.2863  0.6134 -0.4733
 9420TIP3    H149751   3.461   5.275   0.558  1.1086 -0.6021  0.9380
 9420TIP3    H249752   3.459   5.325   0.701 -1.6658 -1.7062  1.3477
 9421TIP3   OH249753   2.254   4.089  14.314  0.8890  0.0662 -0.2443
 9421TIP3    H149754   2.305   4.169  14.302 -0.3339  1.1762  1.4933
 9421TIP3    H249755   2.164   4.120  14.328  0.5647 -1.5068  1.5465
 9422TIP3   OH249756   0.005   0.019  13.747 -0.0281 -0.6385 -0.3951
 9422TIP3    H149757  -0.090   0.025  13.759  0.0016 -2.1794  0.9074
 9422TIP3    H249758   0.042   0.071  13.819  0.0983 -1.8727  0.4618
 9423TIP3   OH249759   3.212   0.997  12.252  0.0177  0.4133  0.0543
 9423TIP3    H149760   3.149   0.939  12.209 -0.4408  1.5474 -0.8645
 9423TIP3    H249761   3.289   0.942  12.266 -0.1524 -0.2531 -1.4029
 9424TIP3   OH249762   0.125   0.008   4.321 -0.8821  0.3987  0.0123
 9424TIP3    H149763   0.160  -0.026   4.239 -1.2525  0.7337 -0.2860
 9424TIP3    H249764   0.137  -0.064   4.383 -2.4998 -0.6634 -0.8260
 9425TIP3   OH249765   4.638   4.028   1.222  0.2154  0.2935  0.2159
 9425TIP3    H149766   4.611   3.940   1.247  0.1790  0.6281  1.3912
 9425TIP3    H249767   4.577   4.086   1.268  0.7343  0.9541  0.0845
 9426TIP3   OH249768   3.698   0.701  16.716  0.1519  0.1798 -0.1297
 9426TIP3    H149769   3.666   0.677  16.803  2.0892 -0.5688  0.4193
 9426TIP3    H249770   3.658   0.636  16.657  1.4845 -1.4602  0.6977
 9427TIP3   OH249771   1.001   3.036   1.663 -0.0024  0.4709 -0.4886
 9427TIP3    H149772   0.961   3.020   1.748 -1.4971  2.8144 -0.6560
 9427TIP3    H249773   1.086   2.993   1.667 -0.1060  0.4008  2.1260
 9428TIP3   OH249774   4.442   6.635  12.116  0.7210  0.0574 -0.2906
 9428TIP3    H149775   4.436   6.701  12.186 -0.2398  0.8088 -1.0509
 9428TIP3    H249776   4.463   6.685  12.038  0.7429 -0.6385 -0.7384
 9429TIP3   OH249777   1.902   5.675  17.203  0.0083  0.0981 -0.3037
 9429TIP3    H149778   1.976   5.714  17.250 -0.3902 -0.8939  1.2466
 9429TIP3    H249779   1.825   5.713  17.244 -0.3695  0.6874 -1.5219
 9430TIP3   OH249780   6.656   6.231  14.122  0.2685  0.1112 -0.2347
 9430TIP3    H149781   6.663   6.159  14.185  0.0887 -0.1787 -0.5464
 9430TIP3    H249782   6.654   6.310  14.176 -1.3344 -0.1973  0.2164
 9431TIP3   OH249783   3.670   1.152   5.924 -0.3623  0.2263 -0.2680
 9431TIP3    H149784   3.583   1.191   5.935 -0.5967 -0.0162 -1.1955
 9431TIP3    H249785   3.705   1.147   6.013 -0.9879  1.0277  0.0396
 9432TIP3   OH249786   0.700   4.643  14.089  0.0621 -0.0314 -0.2026
 9432TIP3    H149787   0.737   4.683  14.169  1.0028  0.0032 -0.6380
 9432TIP3    H249788   0.749   4.562  14.079  1.7731  1.1418 -2.1173
 9433TIP3   OH249789   0.714   0.432  15.869  0.0401  0.1935 -0.6356
 9433TIP3    H149790   0.799   0.456  15.905  0.5284 -1.8358 -0.3190
 9433TIP3    H249791   0.718   0.459  15.778  0.4253  1.5104 -0.2403
 9434TIP3   OH249792   5.729   5.278   0.781  0.4397 -0.1649  0.4650
 9434TIP3    H149793   5.794   5.239   0.838  1.4301 -0.8113 -1.0586
 9434TIP3    H249794   5.723   5.219   0.705 -1.2291  0.3674  0.1255
 9435TIP3   OH249795   3.855   3.562  13.254  0.3205  0.1812 -0.1067
 9435TIP3    H149796   3.800   3.571  13.332  1.1207  0.5082  0.4375
 9435TIP3    H249797   3.864   3.467  13.242 -0.2766  0.1263 -0.1464
 9436TIP3   OH249798   0.639   2.004  12.828  0.6365  0.3618  0.2655
 9436TIP3    H149799   0.666   1.912  12.828  0.9987  0.4232  2.4907
 9436TIP3    H249800   0.652   2.033  12.918  0.2220  2.5227 -0.3160
 9437TIP3   OH249801   0.727   3.857  14.156 -0.3127 -0.1880  0.2102
 9437TIP3    H149802   0.747   3.905  14.076  1.7169  0.0260  0.7930
 9437TIP3    H249803   0.794   3.788  14.161 -2.4139 -2.3847  0.0199
 9438TIP3   OH249804   4.371   3.380   1.388 -0.3421 -0.1135  0.4570
 9438TIP3    H149805   4.296   3.436   1.368 -0.8678 -0.8382  0.3445
 9438TIP3    H249806   4.371   3.314   1.319  0.8184  0.2686  0.0694
 9439TIP3   OH249807   4.618   5.017  10.390  0.2374 -0.1779  0.1054
 9439TIP3    H149808   4.535   4.970  10.386  0.1800 -0.0183 -0.7591
 9439TIP3    H249809   4.674   4.973  10.326  0.6086  0.1156  0.2255
 9440TIP3   OH249810   3.209   4.983  14.436  0.4627  0.2960  0.1838
 9440TIP3    H149811   3.301   5.003  14.418  0.4689 -0.3413 -0.5373
 9440TIP3    H249812   3.172   5.067  14.465  1.3329  0.4872  0.7958
 9441TIP3   OH249813   0.619   5.383  10.250  0.5733  0.0207  0.1797
 9441TIP3    H149814   0.637   5.437  10.173  0.6837  2.1759  1.6246
 9441TIP3    H249815   0.686   5.314  10.247  1.6751  1.0904 -0.7240
 9442TIP3   OH249816   1.284   0.317  12.633 -0.2322 -0.0119 -0.1111
 9442TIP3    H149817   1.303   0.410  12.647 -0.0460 -0.2585  1.3514
 9442TIP3    H249818   1.364   0.281  12.594  0.0120  0.2470  0.1519
 9443TIP3   OH249819   3.721   0.304  12.835 -0.1966  0.1625 -0.2914
 9443TIP3    H149820   3.809   0.277  12.859 -0.4588 -0.5403 -0.0991
 9443TIP3    H249821   3.688   0.234  12.779 -0.6511  0.3956 -0.3271
 9444TIP3   OH249822   2.726   4.140  12.725  0.2381  0.0310 -0.2221
 9444TIP3    H149823   2.710   4.160  12.817  0.5792 -1.9153  0.3156
 9444TIP3    H249824   2.818   4.160  12.711  0.0051  1.0456 -0.3672
 9445TIP3   OH249825   4.906   3.279  13.875  0.7812 -0.2385  0.3910
 9445TIP3    H149826   4.987   3.316  13.912  1.0022 -0.7876  0.4668
 9445TIP3    H249827   4.880   3.342  13.807 -0.1570  1.2976  2.0716
 9446TIP3   OH249828   6.273   2.809  15.688  0.0179  0.5552 -0.2904
 9446TIP3    H149829   6.336   2.813  15.759  0.7650 -1.5608 -0.7621
 9446TIP3    H249830   6.189   2.833  15.729  0.7821  1.5617  0.7535
 9447TIP3   OH249831   3.944   0.405  11.595  0.0196 -0.4881 -0.6505
 9447TIP3    H149832   3.955   0.479  11.653 -2.0314 -0.8138  0.2624
 9447TIP3    H249833   3.995   0.334  11.635 -2.2168 -1.0332  1.4976
 9448TIP3   OH249834   3.089   6.536  13.003 -0.3784  0.0644  0.1032
 9448TIP3    H149835   3.021   6.557  13.066 -1.1333  1.1184 -1.0008
 9448TIP3    H249836   3.135   6.619  12.988  1.7345 -0.7720  1.4261
 9449TIP3   OH249837   5.435   1.758  13.996  0.8347  0.1243 -0.0212
 9449TIP3    H149838   5.483   1.828  13.953  2.5849 -0.7684  0.3570
 9449TIP3    H249839   5.459   1.765  14.089  2.2998 -1.8244 -0.1723
 9450TIP3   OH249840   1.772   4.158   1.831  0.6226 -0.0307  0.2114
 9450TIP3    H149841   1.783   4.100   1.906 -1.4999 -0.6853  0.0813
 9450TIP3    H249842   1.708   4.223   1.860  0.6689  0.4169 -0.6512
 9451TIP3   OH249843   0.252   1.741   0.958  0.1732 -0.0498 -0.4378
 9451TIP3    H149844   0.277   1.763   1.048 -0.1371  0.6593 -0.5197
 9451TIP3    H249845   0.172   1.792   0.942 -0.5372 -1.1834 -0.6597
 9452TIP3   OH249846   4.534   0.493  15.848  0.0470 -0.2371 -0.2995
 9452TIP3    H149847   4.512   0.433  15.919  0.0719 -0.4489 -0.4695
 9452TIP3    H249848   4.475   0.468  15.776  0.9388 -0.9203 -0.8160
 9453TIP3   OH249849   5.785   4.427   4.063  0.6037 -0.0300 -0.1301
 9453TIP3    H149850   5.727   4.377   4.121 -0.3321 -0.2047 -1.1853
 9453TIP3    H249851   5.842   4.476   4.122  1.5884 -2.3529  0.9684
 9454TIP3   OH249852   5.124   0.076   5.708 -0.0076  0.8956 -0.1149
 9454TIP3    H149853   5.187   0.091   5.637 -2.2070  3.5632 -1.7317
 9454TIP3    H249854   5.113   0.162   5.748 -1.3135  0.1206  1.2691
 9455TIP3   OH249855   4.476   5.789  14.355  0.3549 -0.0748  0.1881
 9455TIP3    H149856   4.501   5.769  14.265 -1.8440 -1.4206 -0.1880
 9455TIP3    H249857   4.385   5.817  14.350  0.9961  2.7033  1.7174
 9456TIP3   OH249858   6.686   2.930  14.459  0.3010  0.2983 -0.4971
 9456TIP3    H149859   6.700   3.017  14.422 -1.1866  0.7643 -0.0567
 9456TIP3    H249860   6.681   2.872  14.382  1.7033  0.5140 -0.7724
 9457TIP3   OH249861   4.377   1.318   3.819 -0.2683 -0.3589 -0.0779
 9457TIP3    H149862   4.468   1.348   3.814 -0.3592  0.3689  1.9606
 9457TIP3    H249863   4.341   1.337   3.732  0.9403  1.3227 -0.2477
 9458TIP3   OH249864   1.497   1.932  13.578  0.3766  0.3350 -0.5016
 9458TIP3    H149865   1.507   1.856  13.635  1.7762  0.4001 -0.6246
 9458TIP3    H249866   1.544   2.003  13.623 -0.5456  1.0204 -0.5951
 9459TIP3   OH249867   2.803   2.032   5.452 -0.2110  0.6155  0.3059
 9459TIP3    H149868   2.817   1.958   5.393  0.4129  1.0239 -0.0711
 9459TIP3    H249869   2.852   2.104   5.412 -1.7572  1.5620  0.0421
 9460TIP3   OH249870   0.262   5.328   5.114  0.2998  0.6719  0.2125
 9460TIP3    H149871   0.259   5.307   5.207  0.7961 -1.8576 -0.2584
 9460TIP3    H249872   0.201   5.266   5.073  2.6022 -0.6709 -1.4473
 9461TIP3   OH249873   4.637   2.665   2.534  0.1354  0.1184 -0.0321
 9461TIP3    H149874   4.671   2.623   2.455 -2.1271  1.0463 -1.6056
 9461TIP3    H249875   4.566   2.607   2.563  0.7294 -0.0396  1.1625
 9462TIP3   OH249876   2.727   1.773  11.852  0.6559  0.1054  0.3011
 9462TIP3    H149877   2.755   1.859  11.821  1.8805 -0.1329  0.6752
 9462TIP3    H249878   2.637   1.786  11.881  0.7455  1.2070  0.1407
 9463TIP3   OH249879   0.434   1.012  10.417  0.4206 -0.7300  0.3401
 9463TIP3    H149880   0.371   1.076  10.384  0.7231 -0.1842  0.7959
 9463TIP3    H249881   0.504   1.065  10.455  0.6157 -1.3403  0.8445
 9464TIP3   OH249882   2.179   2.785  12.238  0.2149  0.5260 -0.2025
 9464TIP3    H149883   2.178   2.856  12.173  0.7165  1.2295  0.5315
 9464TIP3    H249884   2.260   2.799  12.287  0.2117 -0.4407  0.0889
 9465TIP3   OH249885   6.480   2.795  14.946  0.3308  0.6550 -0.0864
 9465TIP3    H149886   6.499   2.856  14.875  1.3907 -0.4603 -0.7943
 9465TIP3    H249887   6.565   2.779  14.988  0.0339 -0.1478  0.2332
 9466TIP3   OH249888   5.142   5.163   5.520  0.2453  0.5030  0.0554
 9466TIP3    H149889   5.156   5.252   5.553  0.4391  1.1178 -1.6105
 9466TIP3    H249890   5.224   5.117   5.541  1.0148  1.3443 -0.9785
 9467TIP3   OH249891   3.899   0.479  12.536  0.2729 -0.1703  0.1181
 9467TIP3    H149892   3.804   0.476  12.539  0.3236 -1.4460  1.2441
 9467TIP3    H249893   3.924   0.534  12.611  0.4321 -0.0648 -0.0111
 9468TIP3   OH249894   4.890   5.410   0.346 -0.8390 -0.4483  0.3171
 9468TIP3    H149895   4.955   5.466   0.388 -0.6524  1.0623 -1.8102
 9468TIP3    H249896   4.912   5.321   0.374  0.9694  0.2239  1.1242
 9469TIP3   OH249897   1.182   1.537   1.335 -0.6160 -0.1926  0.5809
 9469TIP3    H149898   1.094   1.539   1.373 -0.1476  1.4438  1.6819
 9469TIP3    H249899   1.233   1.595   1.391  0.9795 -0.4643 -0.5350
 9470TIP3   OH249900   3.828   2.403   3.326  0.2059 -0.0340  0.2855
 9470TIP3    H149901   3.833   2.466   3.397  0.7839  0.0410  0.1849
 9470TIP3    H249902   3.741   2.415   3.289 -0.0113  0.0903  0.8253
 9471TIP3   OH249903   4.179   1.995   5.418  0.6148  0.4173 -0.2130
 9471TIP3    H149904   4.256   2.034   5.377  0.0667  0.4143 -1.2754
 9471TIP3    H249905   4.126   1.963   5.345 -0.2065  0.0574  0.5190
 9472TIP3   OH249906   3.382   5.188   3.510 -0.0679 -0.1010  0.9406
 9472TIP3    H149907   3.464   5.236   3.521 -1.0117  1.8819 -0.1477
 9472TIP3    H249908   3.342   5.188   3.597  0.9054 -0.8300  1.4121
 9473TIP3   OH249909   4.092   6.690   2.906  0.0328 -0.4016 -0.6236
 9473TIP3    H149910   4.121   6.661   2.819 -0.3166  0.0146 -0.8861
 9473TIP3    H249911   4.139   6.634   2.967  1.1829  0.0822 -1.0397
 9474TIP3   OH249912   2.917   3.331   2.387  0.6608 -0.4370  0.1440
 9474TIP3    H149913   2.966   3.258   2.349  0.3499 -1.1704  1.0928
 9474TIP3    H249914   2.895   3.387   2.313  1.8477 -0.7355 -0.4625
 9475TIP3   OH249915   3.795   2.118  15.888 -0.0214 -0.3142 -1.1411
 9475TIP3    H149916   3.877   2.160  15.861  0.1973 -1.9202 -3.2841
 9475TIP3    H249917   3.726   2.175  15.852  0.0982  0.9478  0.5218
 9476TIP3   OH249918   1.266   5.515   1.634  0.4565 -0.3688 -0.8448
 9476TIP3    H149919   1.313   5.524   1.717  0.0335 -0.7033 -0.5698
 9476TIP3    H249920   1.289   5.428   1.603  2.5148  0.5929 -2.2628
 9477TIP3   OH249921   1.049   5.193  11.386 -0.6643  0.1179  0.2624
 9477TIP3    H149922   1.008   5.264  11.337  0.5730  0.7934  0.1640
 9477TIP3    H249923   1.011   5.113  11.350 -1.3449  0.6938 -0.3141
 9478TIP3   OH249924   3.704   3.676   4.652 -0.3534 -0.1686 -0.6633
 9478TIP3    H149925   3.718   3.736   4.725  0.0276  2.3085 -2.6492
 9478TIP3    H249926   3.696   3.590   4.693  1.0839  0.9318  2.1708
 9479TIP3   OH249927   0.008   4.676   5.241  1.0543 -0.0306 -0.1446
 9479TIP3    H149928  -0.037   4.756   5.265  0.4564 -0.1669 -0.7891
 9479TIP3    H249929  -0.002   4.619   5.317  1.3406  0.4395  0.2505
 9480TIP3   OH249930   6.720   6.125   2.720  0.3046 -0.7615 -0.3371
 9480TIP3    H149931   6.696   6.097   2.808  2.3664 -0.6331  0.3380
 9480TIP3    H249932   6.655   6.085   2.662 -0.4009 -1.8141  1.1319
 9481TIP3   OH249933   4.361   5.845  14.731 -0.0590  0.5138 -0.1043
 9481TIP3    H149934   4.414   5.824  14.808 -1.3783  0.4096  0.7989
 9481TIP3    H249935   4.357   5.941  14.730 -0.2032  0.5100  0.0711
 9482TIP3   OH249936   4.662   0.552  15.376 -0.6171  0.4616 -0.1804
 9482TIP3    H149937   4.668   0.647  15.361 -3.6699  0.4886 -2.2069
 9482TIP3    H249938   4.641   0.516  15.290  0.3769 -2.1055  0.5681
 9483TIP3   OH249939   4.742   1.762   2.964 -0.1840 -0.2636 -0.3065
 9483TIP3    H149940   4.766   1.759   2.871  2.1130 -0.0986  0.2048
 9483TIP3    H249941   4.773   1.847   2.993 -0.6539 -0.4226  0.6685
 9484TIP3   OH249942   2.803   2.631   3.864  0.7353  0.2948 -0.5768
 9484TIP3    H149943   2.757   2.709   3.894  1.1127 -0.7030  3.1309
 9484TIP3    H249944   2.894   2.644   3.891  0.9163 -1.1690 -0.3718
 9485TIP3   OH249945   5.333   0.516   3.235 -0.5720 -0.1778 -0.7201
 9485TIP3    H149946   5.338   0.440   3.293 -0.8758 -0.6204 -1.2663
 9485TIP3    H249947   5.271   0.575   3.277  0.5863  0.3267  0.3394
 9486TIP3   OH249948   1.297   4.665   4.520  0.1828  0.0583  0.3170
 9486TIP3    H149949   1.350   4.743   4.504 -0.6407  0.6903  0.5820
 9486TIP3    H249950   1.263   4.642   4.434 -0.3405  0.5695  0.3805
 9487TIP3   OH249951   6.423   6.693  11.021 -0.0408 -0.2601 -0.1604
 9487TIP3    H149952   6.387   6.718  10.936  0.0832  1.0588  0.1498
 9487TIP3    H249953   6.373   6.616  11.047 -1.5727  0.6068 -0.4502
 9488TIP3   OH249954   1.297   6.764   3.212 -0.0386 -0.0031  0.2586
 9488TIP3    H149955   1.335   6.724   3.290 -0.5699  1.5259  1.3628
 9488TIP3    H249956   1.369   6.815   3.173 -0.1849  0.5193  0.6675
 9489TIP3   OH249957   1.932   4.093   0.903  0.5071  0.0308  0.6889
 9489TIP3    H149958   1.986   4.094   0.824  0.8991  2.0842  0.9045
 9489TIP3    H249959   1.994   4.107   0.975 -0.1563  1.6106  1.0121
 9490TIP3   OH249960   1.884   0.096  15.915 -0.0869 -1.1226  0.3528
 9490TIP3    H149961   1.832   0.174  15.892  0.8682 -0.4256  0.5132
 9490TIP3    H249962   1.852   0.029  15.855 -0.7377 -0.5359  0.0158
 9491TIP3   OH249963   5.624   3.928  11.948  0.5792  0.3108  0.0549
 9491TIP3    H149964   5.589   3.995  12.008  0.1088 -0.6513  0.8931
 9491TIP3    H249965   5.640   3.852  12.005  0.4728 -0.5043 -0.9870
 9492TIP3   OH249966   4.247   4.909  12.647  0.2990 -0.0977  0.2994
 9492TIP3    H149967   4.175   4.851  12.672  1.8648 -1.5030  1.8650
 9492TIP3    H249968   4.205   4.993  12.631 -1.6366 -0.6769  1.7844
 9493TIP3   OH249969   6.658   6.554  14.237 -0.3018 -0.1790  0.4131
 9493TIP3    H149970   6.571   6.563  14.197 -0.4501  0.4971  0.8824
 9493TIP3    H249971   6.685   6.643  14.256 -0.7278 -0.5220  2.8812
 9494TIP3   OH249972   0.559   3.656   3.917 -0.3793 -0.7453  0.8741
 9494TIP3    H149973   0.518   3.664   3.831  0.8112 -0.0360  0.3413
 9494TIP3    H249974   0.540   3.739   3.961 -0.9507 -1.0903  1.2842
 9495TIP3   OH249975   4.555   2.297   5.180  0.0250 -0.1392  0.0037
 9495TIP3    H149976   4.520   2.354   5.111 -1.1317 -0.6308  0.1582
 9495TIP3    H249977   4.516   2.212   5.163 -0.6175 -0.1723  1.4883
 9496TIP3   OH249978   4.187   2.759  11.188  0.2806 -0.6703 -0.2414
 9496TIP3    H149979   4.135   2.839  11.194  2.5228  0.8193  0.6668
 9496TIP3    H249980   4.171   2.713  11.271 -0.8767 -1.1357 -0.6949
 9497TIP3   OH249981   3.627   2.861  14.686 -0.1071  0.4475 -0.7010
 9497TIP3    H149982   3.537   2.844  14.712  0.4477 -0.5484  0.6879
 9497TIP3    H249983   3.652   2.786  14.633  0.6000 -0.4892  0.8654
 9498TIP3   OH249984   2.958   3.529  12.991  0.4457  0.0020  0.1276
 9498TIP3    H149985   2.930   3.603  12.937 -0.7987 -1.8122 -1.9175
 9498TIP3    H249986   2.884   3.514  13.050  0.4338 -0.0132  0.1083
 9499TIP3   OH249987   4.606   4.294   6.076  0.6255 -0.9664 -0.0610
 9499TIP3    H149988   4.690   4.336   6.092 -0.3226  0.6955  0.8882
 9499TIP3    H249989   4.607   4.217   6.132  0.1788  0.9635  2.8407
 9500TIP3   OH249990   6.209   4.043   2.351  0.6942  0.8548  0.4203
 9500TIP3    H149991   6.147   4.069   2.283  0.0161  0.0848  0.7382
 9500TIP3    H249992   6.177   4.085   2.431 -1.3141 -2.0468  1.2885
 9501TIP3   OH249993   4.519   2.249   1.138 -0.4928 -0.6305  0.7445
 9501TIP3    H149994   4.589   2.251   1.203 -0.7044 -2.2502  1.0649
 9501TIP3    H249995   4.465   2.326   1.157  1.5700  1.1039  0.0175
 9502TIP3   OH249996   0.886   5.558   2.591  0.4741  0.0609 -0.3068
 9502TIP3    H149997   0.931   5.479   2.620 -2.0465 -1.6343 -0.6368
 9502TIP3    H249998   0.880   5.549   2.496 -1.4537 -0.4121 -0.2019
 9503TIP3   OH249999   5.150   0.253  11.894 -0.5202  0.0642  0.4140
 9503TIP3    H150000   5.152   0.340  11.933 -1.0378  0.1862  0.1873
 9503TIP3    H250001   5.216   0.203  11.941  1.1513  1.1129 -0.7261
 9504TIP3   OH250002   5.691   6.773  13.467  0.2119 -0.8272  0.1198
 9504TIP3    H150003   5.619   6.777  13.403  0.2794  1.1787  0.0814
 9504TIP3    H250004   5.649   6.790  13.551  0.4842 -0.6785  0.2274
 9505TIP3   OH250005   1.202   1.611  16.401 -0.2896 -0.1663 -0.2656
 9505TIP3    H150006   1.284   1.620  16.351  0.3569  0.3569  0.8523
 9505TIP3    H250007   1.144   1.677  16.363 -0.5193 -1.1237 -1.6460
 9506TIP3   OH250008   5.024   5.794   6.740  0.5307 -0.0320 -0.4234
 9506TIP3    H150009   4.980   5.716   6.708 -0.5265  0.0542  0.7229
 9506TIP3    H250010   5.109   5.763   6.772  0.8716 -0.3902 -1.6084
 9507TIP3   OH250011   2.227   6.647  13.526  1.0982  0.4697  0.8052
 9507TIP3    H150012   2.222   6.684  13.438  1.3850 -1.1484  0.0655
 9507TIP3    H250013   2.317   6.616  13.535  0.3596 -2.0577  0.4535
 9508TIP3   OH250014   5.376   6.473  14.659  0.1797  0.3495 -0.2377
 9508TIP3    H150015   5.326   6.402  14.700  0.0932  0.9710  0.7891
 9508TIP3    H250016   5.409   6.435  14.578  1.2433 -1.3099  0.8869
 9509TIP3   OH250017   0.347   3.051  14.664 -0.0360  0.0713  0.1645
 9509TIP3    H150018   0.387   3.123  14.615 -1.8217 -0.2945 -2.0156
 9509TIP3    H250019   0.278   3.093  14.715 -1.3037 -0.0377 -1.3660
 9510TIP3   OH250020   0.142   2.857  14.552 -0.0219  0.2381 -0.2250
 9510TIP3    H150021   0.072   2.893  14.497  1.7956  0.6148 -2.4697
 9510TIP3    H250022   0.185   2.934  14.588  0.8138  0.1574 -1.0061
 9511TIP3   OH250023   2.576   3.917   2.675  0.0492  0.2099 -0.5627
 9511TIP3    H150024   2.514   3.915   2.747 -0.7075  0.4318 -1.1931
 9511TIP3    H250025   2.532   3.968   2.607  0.9151  0.3575 -1.0276
 9512TIP3   OH250026   1.000   3.294   3.491  0.1884 -0.7355  0.4913
 9512TIP3    H150027   0.923   3.239   3.511 -0.0049 -1.5286 -2.0379
 9512TIP3    H250028   1.075   3.236   3.504  0.4224 -0.0441  2.6775
 9513TIP3   OH250029   4.261   6.809  11.625 -0.0063  0.6078  0.5123
 9513TIP3    H150030   4.248   6.714  11.623  0.7732  0.4630  1.5980
 9513TIP3    H250031   4.325   6.825  11.556  0.2586  0.2663  0.6709
 9514TIP3   OH250032   4.307   1.841   4.772 -0.1980  0.1233  0.3482
 9514TIP3    H150033   4.307   1.921   4.719  1.2260  0.1120  0.3037
 9514TIP3    H250034   4.277   1.773   4.712 -0.8371  0.5106  0.2165
 9515TIP3   OH250035   6.027   2.385   5.000  0.8544  0.3902 -0.7240
 9515TIP3    H150036   5.938   2.379   5.032  0.6396  0.9757 -1.1858
 9515TIP3    H250037   6.022   2.356   4.909  1.3264 -0.5660 -0.4649
 9516TIP3   OH250038   3.230   4.134  14.034  0.1346 -0.1676  0.1359
 9516TIP3    H150039   3.259   4.044  14.047  0.0190  0.0202  1.8870
 9516TIP3    H250040   3.142   4.127  13.997 -0.2388 -0.7784  1.1385
 9517TIP3   OH250041   0.380   5.976  11.546  0.0800  0.5365 -0.3439
 9517TIP3    H150042   0.416   5.989  11.458 -0.0814  1.7910 -0.2483
 9517TIP3    H250043   0.399   5.885  11.567  0.3790  0.3029 -1.5627
 9518TIP3   OH250044   6.682   2.971  13.486 -0.3466  0.6916  0.4917
 9518TIP3    H150045   6.751   3.009  13.433  0.6899  0.1028  1.3863
 9518TIP3    H250046   6.617   2.941  13.423  1.6000 -1.5043 -0.6290
 9519TIP3   OH250047   1.560   2.831  11.673 -0.1610 -0.3731 -0.0689
 9519TIP3    H150048   1.635   2.772  11.684  0.7530  0.7323 -0.2443
 9519TIP3    H250049   1.564   2.888  11.750 -0.5393  0.0109 -0.3362
 9520TIP3   OH250050   1.843   5.389   2.836 -0.4478 -0.7545 -0.0484
 9520TIP3    H150051   1.812   5.444   2.908 -1.6547 -0.6097 -0.6524
 9520TIP3    H250052   1.777   5.319   2.828 -0.5242 -0.5799 -1.2171
 9521TIP3   OH250053   3.360   6.278  13.927 -0.0145  0.1259  0.7793
 9521TIP3    H150054   3.330   6.360  13.889  0.6882 -0.5344 -1.3526
 9521TIP3    H250055   3.422   6.304  13.995  0.2886  1.3512  0.0530
 9522TIP3   OH250056   3.254   4.362  14.484 -0.0051  0.2615  0.0252
 9522TIP3    H150057   3.280   4.270  14.487 -1.3634 -0.1359  0.2415
 9522TIP3    H250058   3.254   4.390  14.576  0.1038  0.3827 -0.0116
 9523TIP3   OH250059   0.427   0.538   0.410 -0.1808 -0.2420  0.0074
 9523TIP3    H150060   0.434   0.446   0.435 -0.2415  0.0567  1.1644
 9523TIP3    H250061   0.376   0.578   0.480  1.3989  1.0494  0.4625
 9524TIP3   OH250062   5.033   5.269  15.011 -0.0851 -0.3173 -0.0509
 9524TIP3    H150063   5.018   5.324  15.088 -1.8508 -1.6726  0.6451
 9524TIP3    H250064   5.009   5.181  15.039  0.9194 -1.1476 -1.6577
 9525TIP3   OH250065   0.160   5.420  12.818  0.3258  0.5148 -0.0802
 9525TIP3    H150066   0.156   5.446  12.726 -0.8801 -0.7525 -0.4230
 9525TIP3    H250067   0.194   5.330  12.816 -2.5319 -0.6993  0.3804
 9526TIP3   OH250068   5.278   6.686  13.107  0.1278  0.7372 -0.1272
 9526TIP3    H150069   5.225   6.763  13.085  0.3692  1.0257  0.2899
 9526TIP3    H250070   5.238   6.614  13.058  0.3675  1.2780 -1.1509
 9527TIP3   OH250071   1.032   0.597  14.965  1.0615  0.6149 -0.1910
 9527TIP3    H150072   0.980   0.663  14.919 -0.1370 -1.8904 -2.7172
 9527TIP3    H250073   0.974   0.522  14.974  2.7562 -0.6022  1.4142
 9528TIP3   OH250074   3.826   2.735   2.306 -0.1231 -0.8715  0.4770
 9528TIP3    H150075   3.808   2.691   2.389 -1.3424 -0.5729  0.3831
 9528TIP3    H250076   3.750   2.790   2.291  0.0983 -0.9006 -0.8376
 9529TIP3   OH250077   0.295   6.540   5.420 -0.1542  0.0804  0.7683
 9529TIP3    H150078   0.346   6.498   5.351 -0.1068  0.2290  0.7125
 9529TIP3    H250079   0.328   6.630   5.423 -0.8086  0.3423  0.3301
 9530TIP3   OH250080   3.376   1.702   4.383  0.1431 -1.0153  0.0723
 9530TIP3    H150081   3.322   1.734   4.311  0.9756 -1.1656 -0.6312
 9530TIP3    H250082   3.453   1.665   4.341  1.5534  0.6207  1.0882
 9531TIP3   OH250083   6.648   4.969   6.648 -0.1782 -0.3754  0.1108
 9531TIP3    H150084   6.737   4.935   6.637  0.0867  0.5059 -0.5876
 9531TIP3    H250085   6.656   5.063   6.631 -1.4801 -0.4917 -1.3546
 9532TIP3   OH250086   2.224   3.316  14.251  0.6687  0.7269 -0.3337
 9532TIP3    H150087   2.238   3.402  14.292 -1.0650  0.1624  1.5919
 9532TIP3    H250088   2.312   3.279  14.243  1.2638  1.8109  0.7887
 9533TIP3   OH250089   2.750   4.485  15.861 -0.6978 -0.0000 -0.5557
 9533TIP3    H150090   2.694   4.504  15.936  1.6858  0.8543  1.1490
 9533TIP3    H250091   2.776   4.570  15.827  1.9720 -0.1937  0.7103
 9534TIP3   OH250092   0.648   6.355  14.659 -0.0694  0.2588  0.4177
 9534TIP3    H150093   0.740   6.369  14.635 -0.6816 -0.7615 -3.2026
 9534TIP3    H250094   0.638   6.260  14.657 -1.1329  0.3427  1.2160
 9535TIP3   OH250095   3.060   1.170   2.588  0.3058  0.0953  0.2850
 9535TIP3    H150096   3.052   1.264   2.569  0.2598  0.3362  1.4426
 9535TIP3    H250097   2.998   1.128   2.528 -0.8258  0.9359  0.8341
 9536TIP3   OH250098   0.928   1.492   1.464 -0.6960 -0.4814  0.0627
 9536TIP3    H150099   0.852   1.501   1.407 -0.3296 -0.2100 -0.3994
 9536TIP3    H250100   0.906   1.542   1.542 -0.7483  0.1249 -0.3299
 9537TIP3   OH250101   3.551   5.212   2.373  0.0915 -0.2535  0.2990
 9537TIP3    H150102   3.523   5.303   2.383 -0.7434 -0.7117  3.0037
 9537TIP3    H250103   3.633   5.206   2.422  0.6521 -0.7753 -0.6658
 9538TIP3   OH250104   4.770   2.332  14.024 -0.3046  0.3943  0.5596
 9538TIP3    H150105   4.804   2.243  14.016 -0.6110  0.4288 -2.1893
 9538TIP3    H250106   4.698   2.336  13.960  0.6098  2.9709 -0.4438
 9539TIP3   OH250107   4.972   3.386   1.340 -0.2747  0.2151  0.5421
 9539TIP3    H150108   5.033   3.442   1.387 -0.6829 -0.1448  1.5216
 9539TIP3    H250109   5.015   3.369   1.256  1.7966 -1.4060  1.8209
 9540TIP3   OH250110   0.262   5.166  12.763  0.3596 -0.0902 -0.8407
 9540TIP3    H150111   0.353   5.192  12.779 -0.0861  1.1494 -0.2144
 9540TIP3    H250112   0.239   5.113  12.840  0.1568  0.6895 -0.3525
 9541TIP3   OH250113   4.394   6.027   3.127  0.3637 -0.2583  0.5471
 9541TIP3    H150114   4.302   6.001   3.125  0.2142  0.2946 -0.3774
 9541TIP3    H250115   4.434   5.970   3.193 -0.2312 -1.8182 -0.4010
 9542TIP3   OH250116   4.586   1.928  15.447 -0.0377  0.5458 -0.0803
 9542TIP3    H150117   4.512   1.915  15.507  1.2472 -3.0606  0.9837
 9542TIP3    H250118   4.657   1.957  15.504 -0.1077  2.3043 -0.8239
 9543TIP3   OH250119   5.356   4.933  14.181  0.3880 -0.4507 -0.1997
 9543TIP3    H150120   5.322   4.878  14.110  2.3638 -2.2585  0.1378
 9543TIP3    H250121   5.341   5.023  14.152 -3.5071 -1.0490 -0.5423
 9544TIP3   OH250122   6.527   4.915   3.920  0.6687 -0.4860 -0.1362
 9544TIP3    H150123   6.506   4.872   3.837  0.9138  0.4820 -0.7149
 9544TIP3    H250124   6.611   4.959   3.905  0.6647 -0.2102  0.5853
 9545TIP3   OH250125   0.203   6.127   4.828 -0.4416  0.0211 -0.0069
 9545TIP3    H150126   0.242   6.135   4.915  1.2425 -0.5164 -0.6709
 9545TIP3    H250127   0.198   6.032   4.813 -0.8339  0.1099 -0.4569
 9546TIP3   OH250128   6.653   0.851   4.729 -0.3099  0.3769  0.2738
 9546TIP3    H150129   6.621   0.898   4.806 -0.2686 -0.0181  0.5348
 9546TIP3    H250130   6.582   0.790   4.708 -0.2648  0.3909  0.0798
 9547TIP3   OH250131   6.359   6.320   4.575  0.5200  0.4242  0.4234
 9547TIP3    H150132   6.382   6.393   4.634 -0.6514  0.4553  0.8730
 9547TIP3    H250133   6.437   6.264   4.575  0.9004  0.9281  1.2278
 9548TIP3   OH250134   3.435   5.473   4.100  0.1588  0.2757  0.7546
 9548TIP3    H150135   3.373   5.495   4.031  1.6522 -1.0255 -1.1063
 9548TIP3    H250136   3.499   5.544   4.098  0.3467  0.1040  0.5968
 9549TIP3   OH250137   6.585   3.030   0.423 -0.2146 -0.3337  0.5501
 9549TIP3    H150138   6.654   2.966   0.402  0.4710  0.3093  0.8232
 9549TIP3    H250139   6.585   3.035   0.518 -1.2873 -1.0115  0.6100
 9550TIP3   OH250140   4.272   4.846   2.550 -0.0212 -0.4371  1.0273
 9550TIP3    H150141   4.250   4.804   2.633 -0.4901  0.7025  1.5020
 9550TIP3    H250142   4.335   4.787   2.509  0.9266 -0.5691  2.6119
 9551TIP3   OH250143   5.900   3.630   2.661 -0.2278  0.3710  0.0317
 9551TIP3    H150144   5.831   3.691   2.636 -0.9693 -0.6868 -0.6039
 9551TIP3    H250145   5.943   3.607   2.578 -0.3238 -0.3841  0.1866
 9552TIP3   OH250146   2.265   6.313  14.465 -0.2713  0.3476  0.6274
 9552TIP3    H150147   2.296   6.395  14.428 -0.0341  0.2985  0.7162
 9552TIP3    H250148   2.262   6.330  14.560 -0.3818  0.3084  0.6305
 9553TIP3   OH250149   3.249   3.835  11.482 -0.1541  0.8946  0.0262
 9553TIP3    H150150   3.218   3.747  11.458 -3.1742  1.8642  0.0568
 9553TIP3    H250151   3.287   3.823  11.569  0.2242 -0.5183 -0.3021
 9554TIP3   OH250152   2.930   1.485  13.396  0.7759  0.0117 -0.8633
 9554TIP3    H150153   2.984   1.458  13.470 -0.4876  1.6730  0.7552
 9554TIP3    H250154   2.861   1.419  13.391 -0.5077  1.1200  1.0541
 9555TIP3   OH250155   3.334   0.240   0.516  0.2813  0.0709  0.3932
 9555TIP3    H150156   3.332   0.282   0.602  2.7702  2.8976 -0.7463
 9555TIP3    H250157   3.419   0.195   0.513  0.9725  1.3649 -1.0754
 9556TIP3   OH250158   0.543   1.712   1.679 -0.3522  0.3023 -0.6461
 9556TIP3    H150159   0.471   1.654   1.655 -0.2195 -0.2851  0.3044
 9556TIP3    H250160   0.506   1.770   1.746 -0.0744  0.3292 -0.5153
 9557TIP3   OH250161   1.133   4.563  15.084 -0.3529 -0.6442  0.5823
 9557TIP3    H150162   1.069   4.623  15.122  0.3199 -0.4339  1.4338
 9557TIP3    H250163   1.153   4.502  15.155 -0.5095 -1.4565 -0.0573
 9558TIP3   OH250164   3.579   1.932   0.362  0.5048  0.6020  0.4818
 9558TIP3    H150165   3.536   1.996   0.305 -0.7075  0.3104  1.0392
 9558TIP3    H250166   3.618   1.869   0.302 -0.9964  0.1391 -0.0462
 9559TIP3   OH250167   1.809   1.929   4.932  0.0192 -0.3485 -0.0556
 9559TIP3    H150168   1.833   1.859   4.992  2.2953  0.3052 -0.1055
 9559TIP3    H250169   1.865   2.002   4.957  0.3347  0.2698 -2.3067
 9560TIP3   OH250170   2.025   4.226  14.252 -0.2339  0.5667 -0.0108
 9560TIP3    H150171   2.068   4.287  14.192 -2.2142  1.5389 -0.5216
 9560TIP3    H250172   1.985   4.161  14.194 -0.6468  0.4794  0.3703
 9561TIP3   OH250173   6.154   5.793  17.103 -0.2714  0.1259 -0.0197
 9561TIP3    H150174   6.097   5.800  17.027  0.4946  0.6789 -0.5537
 9561TIP3    H250175   6.103   5.742  17.166 -0.5614 -1.1449 -1.2339
 9562TIP3   OH250176   4.853   1.981   2.257 -0.1586  0.3716 -0.7368
 9562TIP3    H150177   4.767   1.979   2.216 -0.0230  1.5905 -1.1225
 9562TIP3    H250178   4.882   2.072   2.249  0.5602  0.2994  0.6572
 9563TIP3   OH250179   3.350   4.660   1.597 -0.5149  0.0876 -0.1845
 9563TIP3    H150180   3.337   4.598   1.525  0.7198  0.0070 -0.3665
 9563TIP3    H250181   3.301   4.738   1.571 -1.0440 -0.3564 -0.5484
 9564TIP3   OH250182   0.727   1.372  10.644  0.0997 -0.1068  0.3168
 9564TIP3    H150183   0.651   1.382  10.587 -0.0644 -2.0207  0.1525
 9564TIP3    H250184   0.755   1.281  10.632  2.8850  0.7025 -0.2186
 9565TIP3   OH250185   3.059   4.392   5.510  0.0020  0.1391  0.5300
 9565TIP3    H150186   3.130   4.422   5.566  0.1275  0.5010  0.1867
 9565TIP3    H250187   3.100   4.376   5.425 -0.1851 -0.4085  0.5412
 9566TIP3   OH250188   6.668   3.652  16.509 -0.1426 -0.6981 -0.7946
 9566TIP3    H150189   6.606   3.725  16.499 -0.4562 -0.9776 -0.9389
 9566TIP3    H250190   6.753   3.689  16.490 -0.4978 -0.7797 -2.7281
 9567TIP3   OH250191   0.858   2.342  14.619  0.5840 -0.5219 -0.4894
 9567TIP3    H150192   0.936   2.339  14.674  0.6900 -1.9391 -0.6858
 9567TIP3    H250193   0.884   2.300  14.537  0.1359  0.6463 -1.2691
 9568TIP3   OH250194   1.080   3.536  11.756  0.0806  0.2543 -0.0113
 9568TIP3    H150195   1.079   3.602  11.686  0.6503  0.4648  0.1792
 9568TIP3    H250196   1.013   3.472  11.729 -0.6398  1.0256 -0.0782
 9569TIP3   OH250197   6.750   3.817  15.448 -0.3505 -0.2285 -0.9549
 9569TIP3    H150198   6.673   3.850  15.494 -0.6707  1.3264 -2.5000
 9569TIP3    H250199   6.716   3.789  15.363  0.3325 -2.3739 -0.5777
 9570TIP3   OH250200   0.055   1.528  16.223  0.0084 -0.0471 -0.7096
 9570TIP3    H150201   0.019   1.597  16.167  0.6460  0.2801 -0.7242
 9570TIP3    H250202   0.062   1.569  16.310  2.2208  0.5761 -1.1212
 9571TIP3   OH250203   5.328   0.688  15.133  0.7336 -0.1236 -0.7603
 9571TIP3    H150204   5.347   0.609  15.182  1.0839 -0.2114 -1.0360
 9571TIP3    H250205   5.308   0.658  15.044 -1.2320 -0.0915 -0.3770
 9572TIP3   OH250206   6.683   2.651   2.160 -0.1566  0.6863  0.0678
 9572TIP3    H150207   6.676   2.734   2.113 -2.2652  1.7711  2.0740
 9572TIP3    H250208   6.616   2.596   2.122 -2.1431  1.7032  1.8543
 9573TIP3   OH250209   5.699   1.294   2.749  0.0705 -0.3944 -0.1558
 9573TIP3    H150210   5.689   1.203   2.722  0.6749 -0.9748  1.4943
 9573TIP3    H250211   5.735   1.290   2.837 -0.7867  1.4507  0.3275
 9574TIP3   OH250212   6.634   4.370  16.643  0.0809  0.0773 -0.0470
 9574TIP3    H150213   6.591   4.297  16.688  2.0115 -0.0328  1.7938
 9574TIP3    H250214   6.728   4.350  16.650  0.6137  2.1678 -0.5190
 9575TIP3   OH250215   2.591   1.160  16.021  0.2553 -0.4160  0.2956
 9575TIP3    H150216   2.543   1.077  16.027 -0.9364 -0.0119 -2.1742
 9575TIP3    H250217   2.548   1.218  16.083 -1.3832 -0.5875 -0.6239
 9576TIP3   OH250218   5.373   5.717  14.670  0.4680  0.5684  0.2227
 9576TIP3    H150219   5.358   5.764  14.588 -0.5283  0.8451  0.5518
 9576TIP3    H250220   5.418   5.637  14.643 -0.5436  0.2769 -0.6951
 9577TIP3   OH250221   6.240   5.124  16.741 -0.2694 -0.4472 -0.2215
 9577TIP3    H150222   6.233   5.137  16.647  0.1132  1.1132 -0.0622
 9577TIP3    H250223   6.210   5.034  16.755 -0.9239 -0.4976 -1.7464
 9578TIP3   OH250224   1.484   1.822   5.333  0.2023 -0.2590 -0.0136
 9578TIP3    H150225   1.426   1.793   5.262 -0.9348  1.8903 -0.0607
 9578TIP3    H250226   1.550   1.876   5.289 -0.6453  1.2793  0.5273
 9579TIP3   OH250227   2.340   3.337  11.861  0.4915 -0.2513  0.2393
 9579TIP3    H150228   2.375   3.350  11.949  2.2362 -0.9195 -0.3264
 9579TIP3    H250229   2.307   3.423  11.835  0.0536 -0.0199  1.4776
 9580TIP3   OH250230   3.722   6.432  13.727 -0.4334  0.3607 -0.3632
 9580TIP3    H150231   3.725   6.340  13.752  3.2121 -0.3099 -2.5423
 9580TIP3    H250232   3.792   6.473  13.778 -0.4569  1.3863 -1.1172
 9581TIP3   OH250233   6.484   5.648  15.356  0.5089  0.0704  0.4327
 9581TIP3    H150234   6.414   5.595  15.318  1.2497  0.2632 -1.2831
 9581TIP3    H250235   6.441   5.702  15.422 -0.6977 -0.8253  0.3976
 9582TIP3   OH250236   0.634   6.377  16.379 -1.0462 -0.5337 -0.1819
 9582TIP3    H150237   0.658   6.314  16.310 -0.3062 -0.8364  0.3255
 9582TIP3    H250238   0.694   6.450  16.366 -1.4746 -0.2208 -0.3781
 9583TIP3   OH250239   5.296   3.699  12.251  0.3026 -0.0228  0.0306
 9583TIP3    H150240   5.306   3.687  12.157 -1.7943  1.3002 -0.4217
 9583TIP3    H250241   5.267   3.613  12.283  1.5379 -0.6236 -0.4227
 9584TIP3   OH250242   1.958   5.849  14.159  0.2079 -0.1592 -0.1700
 9584TIP3    H150243   2.003   5.831  14.077 -0.3708 -3.4773  0.0841
 9584TIP3    H250244   1.876   5.890  14.134  0.4859 -0.1991 -1.1667
 9585TIP3   OH250245   3.339   2.155  17.130 -0.0707 -0.2733 -0.6051
 9585TIP3    H150246   3.393   2.211  17.186 -0.1133 -1.1224  0.3094
 9585TIP3    H250247   3.249   2.175  17.156 -0.1806  0.4256 -1.4494
 9586TIP3   OH250248   4.738   6.578  14.028  0.9360 -0.2767 -0.2011
 9586TIP3    H150249   4.781   6.517  14.087  0.1277  0.1706  0.8726
 9586TIP3    H250250   4.808   6.637  13.999  1.5168 -1.0869 -0.4619
 9587TIP3   OH250251   6.426   2.776  12.645  0.5521  0.6069 -0.2132
 9587TIP3    H150252   6.400   2.802  12.556 -0.5245  1.5837  0.3550
 9587TIP3    H250253   6.461   2.687  12.634  1.8405  1.2545 -1.8187
 9588TIP3   OH250254   4.016   0.461  15.353 -0.2305  0.0546  0.0507
 9588TIP3    H150255   3.981   0.538  15.308 -2.1626 -0.0553  1.2376
 9588TIP3    H250256   3.985   0.387  15.302  1.6857 -0.0063 -1.1300
 9589TIP3   OH250257   4.825   5.215  13.253 -0.1500 -0.4112 -0.1959
 9589TIP3    H150258   4.802   5.128  13.223 -2.3080  0.3091 -0.8500
 9589TIP3    H250259   4.771   5.228  13.331 -1.4464  1.0445 -1.2712
 9590TIP3   OH250260   1.127   0.470  15.253  0.8540 -0.4155 -0.1698
 9590TIP3    H150261   1.187   0.543  15.268  0.9629 -0.5439  0.0395
 9590TIP3    H250262   1.161   0.427  15.175  0.4526  0.0915 -0.6321
 9591TIP3   OH250263   4.633   2.603   4.290 -0.0811  0.5237  0.6532
 9591TIP3    H150264   4.689   2.602   4.368  0.4685 -1.5354  0.3019
 9591TIP3    H250265   4.694   2.595   4.217 -0.7593 -2.2240  0.2805
 9592TIP3   OH250266   5.596   1.202  11.794  0.4790 -0.5462 -0.0407
 9592TIP3    H150267   5.535   1.192  11.866  1.5377  0.4191  1.0287
 9592TIP3    H250268   5.550   1.258  11.731  0.6534  1.1322  1.2691
 9593TIP3   OH250269   4.606   5.371   0.394 -0.4919 -0.5043 -0.0300
 9593TIP3    H150270   4.613   5.386   0.488  0.1128 -0.3648 -0.0954
 9593TIP3    H250271   4.694   5.385   0.360 -0.5328 -1.3156 -0.5093
 9594TIP3   OH250272   3.021   5.341   0.549  0.4730  0.0503 -0.5133
 9594TIP3    H150273   2.944   5.399   0.548 -0.1844 -0.7318 -3.0456
 9594TIP3    H250274   3.024   5.307   0.638 -1.6372  0.7304 -0.1182
 9595TIP3   OH250275   0.078   2.731   3.716 -0.7483 -0.0228 -0.6378
 9595TIP3    H150276  -0.016   2.722   3.734 -0.6081 -1.2981 -0.3972
 9595TIP3    H250277   0.120   2.686   3.789  0.1104  1.6780 -0.0561
 9596TIP3   OH250278   3.340   4.126   4.837  0.1128 -0.3245  0.7290
 9596TIP3    H150279   3.398   4.175   4.895  0.1234  2.2676 -1.2939
 9596TIP3    H250280   3.378   4.135   4.750 -1.5824 -1.3556 -0.1940
 9597TIP3   OH250281   5.002   0.034   4.215  0.8210  0.1809 -0.1723
 9597TIP3    H150282   4.952   0.114   4.227 -1.4239 -1.0621 -0.6433
 9597TIP3    H250283   5.041   0.042   4.128 -1.2308 -0.1122 -1.1703
 9598TIP3   OH250284   6.502   0.724  14.533 -0.4458  0.5721  0.2584
 9598TIP3    H150285   6.455   0.650  14.570 -1.8325  0.9047 -0.7410
 9598TIP3    H250286   6.594   0.698  14.535 -0.8029 -0.7077  0.9492
 9599TIP3   OH250287   6.552   2.429   3.292  0.3169  0.2292  0.3109
 9599TIP3    H150288   6.513   2.376   3.224 -1.7226  2.9466 -0.8112
 9599TIP3    H250289   6.646   2.429   3.273  0.1274 -1.4166 -0.7060
 9600TIP3   OH250290   0.406   5.840   5.520  0.3919 -0.2758  0.3379
 9600TIP3    H150291   0.330   5.896   5.503  0.2915 -0.4674  0.1536
 9600TIP3    H250292   0.373   5.751   5.505  0.5685 -0.3788  0.5614
 9601TIP3   OH250293   1.629   1.049  16.770  0.3374  0.3223 -0.4866
 9601TIP3    H150294   1.651   1.131  16.814  0.7707  0.0583 -0.2061
 9601TIP3    H250295   1.562   1.073  16.707 -0.9231  0.5636  0.8874
 9602TIP3   OH250296   3.406   4.128  11.984  0.0710  0.0494  0.4663
 9602TIP3    H150297   3.316   4.143  12.012  0.4972 -1.0002  2.5758
 9602TIP3    H250298   3.429   4.207  11.934 -1.9739  0.3439 -0.1051
 9603TIP3   OH250299   6.573   3.967   5.924  0.4028  0.4176 -0.3554
 9603TIP3    H150300   6.596   3.880   5.957 -0.1836  0.4942  0.2698
 9603TIP3    H250301   6.638   4.026   5.962 -0.7995  0.6469  1.4677
 9604TIP3   OH250302   5.290   1.742   6.163 -0.1793 -0.1857  0.1500
 9604TIP3    H150303   5.302   1.680   6.092 -1.9326 -0.6606  0.2169
 9604TIP3    H250304   5.359   1.807   6.151 -1.7380  1.0808 -3.3917
 9605TIP3   OH250305   0.144   3.934  14.470 -0.1488  0.3150 -0.2919
 9605TIP3    H150306   0.236   3.944  14.444 -1.1761  2.6455 -3.7958
 9605TIP3    H250307   0.123   4.015  14.516 -0.2275 -0.7011  1.5313
 9606TIP3   OH250308   6.179   0.696   5.026 -0.2914 -0.3455  0.3361
 9606TIP3    H150309   6.149   0.786   5.009 -2.0366 -0.5014  2.1953
 9606TIP3    H250310   6.134   0.671   5.106  0.4087 -2.8042  0.0333
 9607TIP3   OH250311   2.099   3.699   0.239 -0.0374 -0.2822 -0.3722
 9607TIP3    H150312   2.032   3.728   0.178 -0.6473  0.6313  0.6942
 9607TIP3    H250313   2.052   3.686   0.322  0.9420 -0.5407  0.1569
 9608TIP3   OH250314   5.048   4.498  14.872  0.0925 -0.3664 -0.0727
 9608TIP3    H150315   5.031   4.412  14.912 -0.2933  0.2573  1.1637
 9608TIP3    H250316   5.138   4.518  14.896  0.3173 -0.5974 -0.7099
 9609TIP3   OH250317   5.846   4.330   2.267  0.2504 -0.3849  0.3600
 9609TIP3    H150318   5.807   4.382   2.197  0.9756 -1.6370 -1.0237
 9609TIP3    H250319   5.779   4.266   2.290  0.1166 -0.1511  0.6326
 9610TIP3   OH250320   0.300   0.071  12.725 -0.3398  0.0624 -0.0161
 9610TIP3    H150321   0.257   0.083  12.641  0.3851 -0.8852 -0.5482
 9610TIP3    H250322   0.325   0.159  12.753 -2.2575  0.5980  0.1334
 9611TIP3   OH250323   4.843   5.018  16.960 -0.0789 -0.3862  0.0882
 9611TIP3    H150324   4.748   5.026  16.960 -0.0766 -0.2306 -0.9478
 9611TIP3    H250325   4.860   4.928  16.989 -0.5405 -0.4425  0.1805
 9612TIP3   OH250326   0.860   0.518   4.330  0.3181 -0.4845  0.0739
 9612TIP3    H150327   0.891   0.561   4.410  0.1051  0.4500 -0.3357
 9612TIP3    H250328   0.897   0.430   4.335  0.5986 -0.3279  1.0288
 9613TIP3   OH250329   4.269   6.276  14.108 -0.2915  0.1183  0.8702
 9613TIP3    H150330   4.314   6.323  14.038 -0.3395 -0.3380  0.5328
 9613TIP3    H250331   4.222   6.345  14.156 -0.6282  0.3833  0.1779
 9614TIP3   OH250332   5.323   6.825  12.816 -0.1989  0.1191 -0.6672
 9614TIP3    H150333   5.230   6.815  12.837 -0.1032 -2.5498 -1.1642
 9614TIP3    H250334   5.366   6.752  12.860  1.5232  0.7132 -1.2767
 9615TIP3   OH250335   5.192   2.858   4.382  0.1070  0.0014  0.2537
 9615TIP3    H150336   5.120   2.871   4.444 -0.6712  2.1582 -0.9870
 9615TIP3    H250337   5.150   2.862   4.296  1.6907  1.3566 -0.4988
 9616TIP3   OH250338   4.899   4.154   2.715 -0.1117  0.3610 -0.1263
 9616TIP3    H150339   4.866   4.194   2.635 -1.3201 -1.6566 -0.7028
 9616TIP3    H250340   4.971   4.097   2.686  1.0762  1.4414  0.5760
 9617TIP3   OH250341   2.790   5.614  15.626 -0.5616 -0.4666 -0.4096
 9617TIP3    H150342   2.762   5.535  15.581  1.6598 -0.7649 -1.4195
 9617TIP3    H250343   2.878   5.593  15.658 -0.8567  0.8070  1.4069
 9618TIP3   OH250344   1.391   2.670  15.383  0.4612  0.1635  0.0276
 9618TIP3    H150345   1.456   2.688  15.315 -1.0347  1.8448 -1.0222
 9618TIP3    H250346   1.331   2.744  15.379 -0.5570 -0.4800  2.1532
 9619TIP3   OH250347   0.133   2.386  13.169  0.4941 -0.2178  0.0663
 9619TIP3    H150348   0.198   2.316  13.163  1.6688  0.9573 -2.9730
 9619TIP3    H250349   0.164   2.441  13.241  0.5909 -1.7674  1.2588
 9620TIP3   OH250350   5.907   4.162   5.823 -0.0808 -0.2900 -0.4724
 9620TIP3    H150351   5.915   4.067   5.815 -1.0372 -0.4602  0.3931
 9620TIP3    H250352   5.992   4.191   5.855 -0.0616 -0.9676  0.1148
 9621TIP3   OH250353   2.464   0.796   0.147 -0.0674 -0.0814 -0.3404
 9621TIP3    H150354   2.440   0.886   0.169  1.0776 -0.2516  1.8529
 9621TIP3    H250355   2.411   0.741   0.205 -0.6417 -0.8519 -1.5443
 9622TIP3   OH250356   3.850   0.598   0.010 -0.4794 -0.1863  0.4251
 9622TIP3    H150357   3.937   0.559  -0.003  0.8005  1.4452  3.1294
 9622TIP3    H250358   3.789   0.528  -0.010  1.5569 -2.1554  0.7099
 9623TIP3   OH250359   4.533   4.691   1.931  0.7033 -0.1208 -0.1726
 9623TIP3    H150360   4.438   4.696   1.926  0.6241 -1.2256 -0.0536
 9623TIP3    H250361   4.550   4.621   1.994  1.5853 -0.2122 -0.4988
 9624TIP3   OH250362   3.048   5.162  17.120  0.5916  0.2186  0.5501
 9624TIP3    H150363   3.090   5.205  17.195  0.1910  0.5578  0.5900
 9624TIP3    H250364   2.977   5.111  17.159  0.4411  0.3203  0.4121
 9625TIP3   OH250365   5.475   3.699  15.745  0.4216  0.3037  0.3903
 9625TIP3    H150366   5.473   3.791  15.771 -0.4966  0.8785 -1.5792
 9625TIP3    H250367   5.446   3.699  15.654  1.8221 -1.7834 -0.1127
 9626TIP3   OH250368   4.445   5.306   2.602  0.1151  0.3056 -0.1632
 9626TIP3    H150369   4.437   5.224   2.651  0.2338  0.6623  0.4675
 9626TIP3    H250370   4.419   5.283   2.513  1.9827 -0.8824 -0.4756
 9627TIP3   OH250371   2.832   3.748   3.253  0.2338  0.5803 -0.2090
 9627TIP3    H150372   2.847   3.715   3.342  1.6384  2.4237  0.2998
 9627TIP3    H250373   2.861   3.677   3.196  0.3460 -0.2127  0.8007
 9628TIP3   OH250374   1.524   2.118  12.937 -0.0291 -0.0995  0.0622
 9628TIP3    H150375   1.438   2.160  12.931 -1.2373 -2.1333  1.8615
 9628TIP3    H250376   1.534   2.074  12.853  0.0894  1.5717 -0.8376
 9629TIP3   OH250377   3.253   2.830  13.777  0.5504  0.3162  0.5727
 9629TIP3    H150378   3.232   2.813  13.685  0.2505 -2.7901  1.1037
 9629TIP3    H250379   3.175   2.873  13.812 -0.9494 -1.8959  0.1626
 9630TIP3   OH250380   0.522   2.547  16.867  0.1758 -0.1204 -0.0188
 9630TIP3    H150381   0.438   2.586  16.894  0.5592 -0.0305  1.0751
 9630TIP3    H250382   0.579   2.622  16.851  0.7286 -0.1911  1.4901
 9631TIP3   OH250383   3.585   2.479   3.870  0.3212 -0.2029 -0.6388
 9631TIP3    H150384   3.497   2.448   3.892  0.5767 -0.6628 -0.2443
 9631TIP3    H250385   3.589   2.567   3.908  0.7480 -0.9766  1.2244
 9632TIP3   OH250386   3.246   4.912  16.576 -0.4389 -0.1263  0.1295
 9632TIP3    H150387   3.231   4.819  16.558 -0.3087 -0.4623  1.6423
 9632TIP3    H250388   3.330   4.914  16.622 -0.7794  0.6751  0.7331
 9633TIP3   OH250389   1.160   3.339   2.436  0.4492 -0.2765 -0.2672
 9633TIP3    H150390   1.081   3.291   2.411  0.1953 -0.0868  0.1657
 9633TIP3    H250391   1.130   3.429   2.451  0.5306 -0.4443  1.0127
 9634TIP3   OH250392   1.159   0.991  15.343 -0.2076 -0.0836 -0.5848
 9634TIP3    H150393   1.199   1.058  15.398 -2.4221  1.2427 -0.4853
 9634TIP3    H250394   1.232   0.956  15.292  1.2399  1.4457  0.3197
 9635TIP3   OH250395   0.395   5.421  11.687  0.8010 -0.4285  0.3806
 9635TIP3    H150396   0.406   5.514  11.666  2.7646 -0.3937  1.3479
 9635TIP3    H250397   0.480   5.382  11.670 -0.2404 -2.2979 -0.9311
 9636TIP3   OH250398   6.009   6.681  12.008 -0.0493  0.0300 -0.3242
 9636TIP3    H150399   5.937   6.642  11.959  0.5067 -0.2010 -0.9717
 9636TIP3    H250400   6.008   6.773  11.982 -0.8705  0.3082  0.6116
 9637TIP3   OH250401   1.776   0.729   2.731 -0.6144 -0.7090 -0.6754
 9637TIP3    H150402   1.868   0.721   2.756 -0.4454 -1.4392 -1.4773
 9637TIP3    H250403   1.748   0.812   2.770 -0.3558 -1.7008  1.8206
 9638TIP3   OH250404   5.409   3.228  12.179 -0.1341  0.1433  0.3387
 9638TIP3    H150405   5.473   3.258  12.243  0.4338 -0.6254  0.1530
 9638TIP3    H250406   5.393   3.136  12.203 -0.0837 -0.0865 -0.4762
 9639TIP3   OH250407   1.256   4.147   0.452 -0.2376 -0.5201  0.0858
 9639TIP3    H150408   1.225   4.078   0.511 -1.6615 -1.0790 -1.2326
 9639TIP3    H250409   1.280   4.219   0.510 -0.2405 -1.5455  1.4134
 9640TIP3   OH250410   0.393   1.164  13.111 -0.5448  0.2509 -0.7066
 9640TIP3    H150411   0.429   1.168  13.199 -0.3118 -0.2606 -0.7701
 9640TIP3    H250412   0.457   1.209  13.056  0.7590 -1.8303 -1.0354
 9641TIP3   OH250413   6.088   6.651  16.268  0.2494  0.8682 -0.1922
 9641TIP3    H150414   6.023   6.690  16.211  0.4447 -1.9840 -2.6068
 9641TIP3    H250415   6.170   6.656  16.219  0.6928 -0.5009  0.3461
 9642TIP3   OH250416   5.050   3.196  13.446 -0.6321 -0.0718  0.1639
 9642TIP3    H150417   4.999   3.117  13.430 -0.6554  0.0493 -0.3734
 9642TIP3    H250418   4.987   3.267  13.435 -0.9408 -0.0158  1.9625
 9643TIP3   OH250419   5.148   1.635  13.289 -0.0215  0.3343 -0.1810
 9643TIP3    H150420   5.094   1.565  13.326 -0.1237  0.1077 -0.7464
 9643TIP3    H250421   5.177   1.601  13.204  1.0539  0.4313  0.1324
 9644TIP3   OH250422   1.308   5.001   0.349 -0.3934  0.3156  0.0232
 9644TIP3    H150423   1.331   4.949   0.426 -0.9920  0.3884  0.2580
 9644TIP3    H250424   1.242   5.063   0.381  0.7669  1.6688 -0.0994
 9645TIP3   OH250425   1.638   0.023  14.941 -0.2590  0.1498 -0.2407
 9645TIP3    H150426   1.724  -0.015  14.928  0.9093  1.5616  2.4002
 9645TIP3    H250427   1.592  -0.039  14.998  0.4371  1.0089  1.3436
 9646TIP3   OH250428   2.059   6.737  12.605  0.2000  1.0644 -0.2494
 9646TIP3    H150429   2.051   6.675  12.533  0.5011  0.0167  0.5907
 9646TIP3    H250430   2.011   6.814  12.576  0.2103  0.6176 -1.5122
 9647TIP3   OH250431   6.449   5.394  16.967  0.3007 -0.1388 -0.2060
 9647TIP3    H150432   6.473   5.329  16.901 -1.7580 -0.2052 -0.9459
 9647TIP3    H250433   6.532   5.415  17.011  1.2511 -2.2109 -0.8761
 9648TIP3   OH250434   4.857   5.761  15.649 -0.1772 -0.0782  0.4107
 9648TIP3    H150435   4.859   5.678  15.600  0.6832 -0.4932  1.1073
 9648TIP3    H250436   4.829   5.826  15.585  1.0061 -0.5919 -0.6754
 9649TIP3   OH250437   1.797   4.712  11.723  0.0439  0.4136  0.1628
 9649TIP3    H150438   1.773   4.625  11.753 -0.3591 -0.8326 -3.3468
 9649TIP3    H250439   1.874   4.735  11.775 -0.8585 -1.2275  2.3690
 9650TIP3   OH250440   4.817   5.813   0.396 -0.4354  0.6833 -0.7672
 9650TIP3    H150441   4.809   5.904   0.367 -0.5816  0.2379 -2.2153
 9650TIP3    H250442   4.823   5.763   0.315  0.6058 -0.5213  0.0186
 9651TIP3   OH250443   4.822   2.944   0.304  0.1532  0.4993 -0.5083
 9651TIP3    H150444   4.823   3.036   0.278 -0.0940  0.1227 -1.9165
 9651TIP3    H250445   4.823   2.896   0.222  1.0809 -0.7798  0.2274
 9652TIP3   OH250446   1.764   4.099  11.136 -0.2033 -0.0061 -0.3411
 9652TIP3    H150447   1.734   4.167  11.196  0.9941 -0.3890  0.7130
 9652TIP3    H250448   1.690   4.086  11.076 -0.4402  2.2355 -0.6082
 9653TIP3   OH250449   3.921   6.639  11.723 -0.2480  0.0696  0.5649
 9653TIP3    H150450   3.881   6.697  11.658  1.5796  0.7735  0.0114
 9653TIP3    H250451   3.901   6.551  11.692  1.9533  0.3472 -1.9600
 9654TIP3   OH250452   1.312   1.821   3.975  0.9357  0.3106 -0.0312
 9654TIP3    H150453   1.344   1.787   4.059  2.0482  1.8494  0.1965
 9654TIP3    H250454   1.369   1.780   3.910  2.4783  1.8772  0.2655
 9655TIP3   OH250455   2.714   1.229  11.213 -0.2185 -0.4117 -0.1271
 9655TIP3    H150456   2.717   1.302  11.275 -1.7988 -1.2095  0.9425
 9655TIP3    H250457   2.793   1.179  11.230  0.5210  0.6454 -0.3823
 9656TIP3   OH250458   2.027   5.753  12.857 -0.1125  0.5056 -0.0108
 9656TIP3    H150459   2.027   5.686  12.789  3.1478 -1.7365  1.9324
 9656TIP3    H250460   1.949   5.734  12.910 -0.3936 -0.3865 -0.7292
 9657TIP3   OH250461   6.470   0.092   4.228 -0.2187 -0.2627  0.0783
 9657TIP3    H150462   6.487  -0.002   4.237 -0.2420 -0.2243  0.6015
 9657TIP3    H250463   6.501   0.129   4.311 -0.8750  0.0958  0.1696
 9658TIP3   OH250464   6.612   3.303   5.206  0.1055 -0.3301  0.5840
 9658TIP3    H150465   6.652   3.224   5.241 -1.7756 -1.1274  1.0634
 9658TIP3    H250466   6.523   3.303   5.242 -0.4742  1.1461 -0.7136
 9659TIP3   OH250467   5.090   0.935   2.856  0.2248  0.0466  0.3018
 9659TIP3    H150468   5.029   1.005   2.831  0.4017 -0.0050 -0.2886
 9659TIP3    H250469   5.068   0.916   2.947  0.7887  1.5023  0.7675
 9660TIP3   OH250470   0.248   5.394  13.471 -0.0590 -0.7264  0.0686
 9660TIP3    H150471   0.340   5.368  13.460 -0.3750 -1.2972 -1.4089
 9660TIP3    H250472   0.253   5.481  13.511  1.1022 -1.0482  0.6860
 9661TIP3   OH250473   5.183   0.583  17.114 -0.3822  0.7533  0.1833
 9661TIP3    H150474   5.161   0.489  17.111 -0.8617  0.8684 -0.0898
 9661TIP3    H250475   5.119   0.624  17.056 -1.9405  1.5993  2.3750
 9662TIP3   OH250476   5.308   3.424   1.935  0.0361 -0.3918  0.1064
 9662TIP3    H150477   5.331   3.342   1.891 -3.7148 -0.7047 -1.6485
 9662TIP3    H250478   5.328   3.493   1.871 -1.0941 -0.4297 -0.3183
 9663TIP3   OH250479   1.467   4.370  13.901 -0.2917  0.4607 -0.2010
 9663TIP3    H150480   1.445   4.324  13.820 -0.8960 -0.2935  0.3789
 9663TIP3    H250481   1.543   4.322  13.936 -0.0107  0.8056 -0.3296
 9664TIP3   OH250482   5.831   6.663   4.522  0.2930  0.0175  0.0713
 9664TIP3    H150483   5.874   6.748   4.523  0.3970 -0.0235  1.5149
 9664TIP3    H250484   5.745   6.680   4.484  0.7963  0.5040 -0.8714
 9665TIP3   OH250485   4.098   5.526  15.706  0.0588  0.9251 -0.1400
 9665TIP3    H150486   4.142   5.609  15.724  0.1422  0.6063  1.2494
 9665TIP3    H250487   4.125   5.468  15.777 -1.5068  0.2994 -0.0058
 9666TIP3   OH250488   1.944   1.198  12.882  0.2658  0.3227  0.2981
 9666TIP3    H150489   1.959   1.155  12.967  1.1122  0.0529  0.0259
 9666TIP3    H250490   2.025   1.182  12.833 -0.5959 -0.4250 -0.9511
 9667TIP3   OH250491   0.431   1.616   5.891  0.3798  0.0840 -0.0201
 9667TIP3    H150492   0.521   1.591   5.910  0.0301  0.0303  1.7763
 9667TIP3    H250493   0.381   1.535   5.901 -0.1603  0.5569  1.4256
 9668TIP3   OH250494   4.774   6.842   1.327  0.1847  0.0666  0.1683
 9668TIP3    H150495   4.811   6.915   1.278 -0.0708  0.0780 -0.0086
 9668TIP3    H250496   4.711   6.802   1.267 -1.0751  0.8510  0.9124
 9669TIP3   OH250497   6.720   5.558   1.499 -0.2805 -0.1562 -0.0049
 9669TIP3    H150498   6.693   5.498   1.568 -1.6811  0.3951 -0.0420
 9669TIP3    H250499   6.664   5.536   1.424  0.0091  0.4053 -0.3973
 9670TIP3   OH250500   2.099   2.836  15.545 -0.0497  0.8986  0.2163
 9670TIP3    H150501   2.125   2.926  15.564  0.7151  1.2410 -2.0518
 9670TIP3    H250502   2.169   2.803  15.489 -0.7773 -0.7978  0.2559
 9671TIP3   OH250503   4.434   1.722   3.597  0.3037  0.0698 -0.1742
 9671TIP3    H150504   4.485   1.727   3.516  0.0172  0.5239 -0.3274
 9671TIP3    H250505   4.345   1.703   3.568 -0.0123  1.2977 -0.0394
 9672TIP3   OH250506   5.922   6.712  16.053 -0.7578 -0.5519  0.3424
 9672TIP3    H150507   5.877   6.786  16.094 -1.0271 -0.4310 -0.1683
 9672TIP3    H250508   5.853   6.648  16.036 -0.4934 -1.0293  0.9916
 9673TIP3   OH250509   1.680   0.087  11.395  0.2418  0.5599  0.2827
 9673TIP3    H150510   1.740   0.014  11.413 -0.9166 -0.4215  0.3147
 9673TIP3    H250511   1.732   0.148  11.342  0.5968 -1.3379 -1.6854
 9674TIP3   OH250512   4.544   0.167   4.829 -0.6925  0.6332 -0.5912
 9674TIP3    H150513   4.578   0.148   4.917  0.7223  1.2980 -0.9552
 9674TIP3    H250514   4.516   0.082   4.795 -1.0177  0.3330  0.4052
 9675TIP3   OH250515   3.451   6.167  11.963  0.3290 -0.3025 -0.4333
 9675TIP3    H150516   3.363   6.192  11.937  0.4087  1.1857  0.5868
 9675TIP3    H250517   3.457   6.191  12.056  1.6920 -0.7168 -0.3800
 9676TIP3   OH250518   0.412   0.542  14.318 -0.5265  0.4566 -0.2338
 9676TIP3    H150519   0.456   0.603  14.257  1.8311 -0.6851  0.2171
 9676TIP3    H250520   0.404   0.592  14.399 -0.4746  0.8400 -0.4590
 9677TIP3   OH250521   3.628   1.998   1.682 -0.5269  0.2623  0.5418
 9677TIP3    H150522   3.633   2.057   1.607 -0.3815 -0.0086  0.3375
 9677TIP3    H250523   3.537   2.003   1.711 -0.3449  1.1563  0.9899
 9678TIP3   OH250524   0.529   5.297  13.684 -0.0836  0.2036  0.3114
 9678TIP3    H150525   0.570   5.226  13.734 -1.0645  0.4154  1.4648
 9678TIP3    H250526   0.437   5.295  13.710 -0.0621  2.1758  0.7520
 9679TIP3   OH250527   1.617   1.412  16.624 -0.0465 -0.1247  0.1099
 9679TIP3    H150528   1.688   1.454  16.577  0.4162 -0.7313  0.2448
 9679TIP3    H250529   1.582   1.479  16.682  0.3635  0.1987 -0.0207
 9680TIP3   OH250530   6.138   6.036  13.186 -0.1395 -0.6875  0.1964
 9680TIP3    H150531   6.157   6.072  13.099  0.7183  0.7755  0.9372
 9680TIP3    H250532   6.195   5.959  13.193  1.9964  0.8068  0.4901
 9681TIP3   OH250533   4.803   2.588  12.677  0.2159 -0.3347  0.4489
 9681TIP3    H150534   4.773   2.503  12.645  0.4901 -1.0264  1.9218
 9681TIP3    H250535   4.776   2.650  12.610  0.2194 -1.6083 -0.7786
 9682TIP3   OH250536   4.437   2.770   5.886  0.0335 -0.3663  0.9484
 9682TIP3    H150537   4.454   2.858   5.919  1.1723  0.3228 -1.2760
 9682TIP3    H250538   4.369   2.783   5.820  2.2372 -0.5670 -1.5356
 9683TIP3   OH250539   4.081   6.335  15.013  0.0725  0.0671  0.2900
 9683TIP3    H150540   4.032   6.333  14.931 -0.6411 -1.1483  0.7112
 9683TIP3    H250541   4.017   6.310  15.080  0.9956 -0.4660  0.9987
 9684TIP3   OH250542   0.252   4.871   4.140  0.1271  0.6244  0.5421
 9684TIP3    H150543   0.330   4.844   4.190 -0.3592 -1.1188  0.4167
 9684TIP3    H250544   0.244   4.965   4.158  1.1531  0.4585  2.0933
 9685TIP3   OH250545   0.406   3.143   3.018 -0.0162  0.3151  0.1799
 9685TIP3    H150546   0.378   3.208   2.954  0.3117  0.0637 -0.2261
 9685TIP3    H250547   0.490   3.111   2.985 -0.8028 -1.3011 -0.3600
 9686TIP3   OH250548   0.493   6.786  12.890  0.2686  0.3839 -0.2555
 9686TIP3    H150549   0.440   6.843  12.835  2.1051  0.7335 -1.7575
 9686TIP3    H250550   0.583   6.798  12.858  1.0737 -1.2652  1.2193
 9687TIP3   OH250551   4.481   4.181   1.390 -0.0591 -0.2330  0.4256
 9687TIP3    H150552   4.532   4.169   1.469 -0.3007 -0.1795  0.5917
 9687TIP3    H250553   4.495   4.272   1.365  0.6903 -0.4778 -0.0702
 9688TIP3   OH250554   2.683   6.616   0.538 -0.7536 -0.3297 -0.4303
 9688TIP3    H150555   2.605   6.658   0.575 -0.4592  0.5239 -0.7538
 9688TIP3    H250556   2.729   6.687   0.493  1.7689 -0.1164  2.1883
 9689TIP3   OH250557   2.118   6.487   4.600  0.3853  0.2553  0.1267
 9689TIP3    H150558   2.203   6.477   4.642  0.1296 -1.8864  0.2294
 9689TIP3    H250559   2.137   6.486   4.506  0.5072  0.1903  0.1525
 9690TIP3   OH250560   4.784   0.165  12.422 -0.5020  0.4838 -0.0936
 9690TIP3    H150561   4.700   0.122  12.438 -0.0483 -0.6641 -0.6646
 9690TIP3    H250562   4.841   0.095  12.388  1.1686  0.8661  1.7558
 9691TIP3   OH250563   4.653   0.699  12.797  0.5787 -0.2625 -0.0206
 9691TIP3    H150564   4.618   0.632  12.738  0.2110 -0.7441  0.7236
 9691TIP3    H250565   4.576   0.750  12.823  0.6360 -0.4607  0.5414
 9692TIP3   OH250566   6.321   3.643   0.370  0.1516  0.7996  0.5508
 9692TIP3    H150567   6.374   3.708   0.324 -1.6855  2.2522  0.3419
 9692TIP3    H250568   6.330   3.666   0.463  0.7218  0.3660  0.6060
 9693TIP3   OH250569   1.192   1.798  15.782 -0.0348  0.0015 -0.4482
 9693TIP3    H150570   1.107   1.767  15.752  0.7217 -1.7853 -0.8685
 9693TIP3    H250571   1.217   1.738  15.852  0.3110  1.3129  0.6064
 9694TIP3   OH250572   1.486   0.023  14.416 -0.4315  0.3256  0.4877
 9694TIP3    H150573   1.520  -0.060  14.382  1.8429  1.7216 -0.9344
 9694TIP3    H250574   1.422   0.051  14.350 -0.6167  0.0741  0.5606
 9695TIP3   OH250575   2.078   1.506   6.066  0.4887  0.7203  0.4898
 9695TIP3    H150576   2.066   1.487   6.159  2.2526 -0.2062  0.5687
 9695TIP3    H250577   2.102   1.599   6.064  1.0216  0.6002  1.0245
 9696TIP3   OH250578   5.262   6.666   3.941  0.5374  0.7349 -0.4335
 9696TIP3    H150579   5.197   6.731   3.969  0.0405  0.2104 -0.3511
 9696TIP3    H250580   5.274   6.611   4.019 -0.1006 -0.1244 -0.9275
 9697TIP3   OH250581   3.885   4.517  16.341 -0.5337 -0.0328  0.1271
 9697TIP3    H150582   3.884   4.447  16.276 -0.4706 -1.1763  1.3283
 9697TIP3    H250583   3.945   4.486  16.409  0.0809  1.5224  0.3346
 9698TIP3   OH250584   6.011   3.045   3.521 -0.6149  0.4166  0.2958
 9698TIP3    H150585   5.966   2.982   3.464 -1.7766  0.8704  0.6899
 9698TIP3    H250586   6.059   3.102   3.460  0.6889 -0.9808 -0.0571
 9699TIP3   OH250587   2.611   6.086   0.849 -0.8116 -0.6328  0.3444
 9699TIP3    H150588   2.639   6.173   0.819 -0.4596 -1.2332 -1.1675
 9699TIP3    H250589   2.682   6.028   0.822 -2.4006 -1.8414 -1.4654
 9700TIP3   OH250590   4.862   2.432  11.840  0.0657 -0.4078 -0.2697
 9700TIP3    H150591   4.913   2.505  11.876 -1.6270  0.9585 -0.5052
 9700TIP3    H250592   4.855   2.452  11.746 -0.5424 -0.7831 -0.3105
 9701TIP3   OH250593   0.705   5.175   5.777 -0.2489  0.1387  0.2354
 9701TIP3    H150594   0.630   5.224   5.811 -2.1690 -3.5441  1.8998
 9701TIP3    H250595   0.667   5.120   5.708  1.1361 -1.0140  0.3591
 9702TIP3   OH250596   3.681   6.824  11.845 -0.0871  0.0023  0.2162
 9702TIP3    H150597   3.738   6.836  11.921  0.3802 -1.3709  0.1091
 9702TIP3    H250598   3.688   6.731  11.825 -2.3730 -0.2139  0.1818
 9703TIP3   OH250599   1.936   1.429  15.940  0.1104 -0.1470  0.3147
 9703TIP3    H150600   1.946   1.522  15.958  0.5170 -0.0546 -0.3470
 9703TIP3    H250601   1.997   1.412  15.868  0.5490 -1.0706  0.8955
 9704TIP3   OH250602   5.124   1.107   0.146  0.2001  0.3850 -0.3371
 9704TIP3    H150603   5.097   1.042   0.081  0.5531  0.4149 -0.5164
 9704TIP3    H250604   5.179   1.058   0.208  1.9991  0.8519 -1.4765
 9705TIP3   OH250605   2.272   3.598   2.581 -0.1707  0.4838 -0.3060
 9705TIP3    H150606   2.179   3.617   2.588 -0.3662 -0.2654 -0.8249
 9705TIP3    H250607   2.310   3.676   2.541 -0.4441  1.1081  0.6101
 9706TIP3   OH250608   0.238   6.839   2.924  0.5561 -0.7520 -0.6953
 9706TIP3    H150609   0.331   6.854   2.909  0.4590 -0.5134 -1.0832
 9706TIP3    H250610   0.196   6.920   2.895  0.4079  0.0716  1.6260
 9707TIP3   OH250611   1.694   3.352   1.893 -0.5141  0.3964  0.1953
 9707TIP3    H150612   1.723   3.277   1.840 -0.2746 -0.8028  1.9281
 9707TIP3    H250613   1.607   3.373   1.858 -0.4737 -0.5229 -0.5155
 9708TIP3   OH250614   6.789   5.884  16.355 -0.1247  0.0028  0.0128
 9708TIP3    H150615   6.785   5.803  16.406 -1.5879 -1.1524 -1.8054
 9708TIP3    H250616   6.858   5.867  16.290  0.1981  0.5890  0.1971
 9709TIP3   OH250617   5.153   0.481   2.940  0.0232  0.2245  0.1810
 9709TIP3    H150618   5.080   0.537   2.913 -0.7230 -1.2979 -1.0973
 9709TIP3    H250619   5.229   0.539   2.940 -0.9335  1.5301  0.2252
 9710TIP3   OH250620   6.720   4.753   0.350 -0.2800  0.3652 -0.5683
 9710TIP3    H150621   6.764   4.690   0.406  0.5242  2.2467  1.0038
 9710TIP3    H250622   6.629   4.752   0.380 -0.6196 -1.0688 -1.5516
 9711TIP3   OH250623   6.157   2.677  12.659  0.0948 -0.2405 -0.1125
 9711TIP3    H150624   6.153   2.768  12.630 -0.3103 -0.8338 -2.0956
 9711TIP3    H250625   6.221   2.676  12.730  0.7843  1.4291 -0.6846
 9712TIP3   OH250626   4.438   1.474  15.701 -0.0195 -0.2173  0.0144
 9712TIP3    H150627   4.401   1.386  15.697 -1.4545  0.3696  0.0066
 9712TIP3    H250628   4.431   1.499  15.793 -2.7385  1.1354 -0.4619
 9713TIP3   OH250629   1.801   1.115  11.082  0.4135  0.2230  0.3591
 9713TIP3    H150630   1.794   1.103  10.987  0.6051  0.6124  0.2914
 9713TIP3    H250631   1.774   1.031  11.119  1.0734 -0.1867 -0.0614
 9714TIP3   OH250632   2.351   1.056   1.686 -0.2310 -0.3336  0.1984
 9714TIP3    H150633   2.288   1.085   1.620  0.6650 -0.4337 -0.7255
 9714TIP3    H250634   2.425   1.116   1.676  1.1182 -2.0530 -0.8682
 9715TIP3   OH250635   3.934   0.712   4.843 -0.3194 -0.1973 -0.4157
 9715TIP3    H150636   3.971   0.763   4.771  1.5706 -0.9560 -0.0644
 9715TIP3    H250637   3.938   0.771   4.918 -1.2501  0.2216 -0.6843
 9716TIP3   OH250638   2.069   2.638   0.475 -0.4001 -0.1467 -0.0820
 9716TIP3    H150639   2.033   2.594   0.552 -2.6030  1.4958 -0.0530
 9716TIP3    H250640   2.030   2.593   0.401  0.9433 -1.0912 -0.2511
 9717TIP3   OH250641   3.293   0.691   6.104 -0.1497 -0.1580  0.6033
 9717TIP3    H150642   3.297   0.764   6.043 -0.5032 -0.0998  0.6477
 9717TIP3    H250643   3.215   0.708   6.156 -0.2578 -0.5941  0.5835
 9718TIP3   OH250644   3.769   2.182  15.505  0.6000 -0.2262  0.6740
 9718TIP3    H150645   3.811   2.260  15.469 -0.8993  0.1686 -0.3057
 9718TIP3    H250646   3.813   2.109  15.461  1.0530  0.1291  0.5297
 9719TIP3   OH250647   0.264   6.685   5.061 -0.0994 -0.0003  1.0630
 9719TIP3    H150648   0.292   6.702   4.971 -0.2299  0.3248  1.0859
 9719TIP3    H250649   0.346   6.683   5.111 -0.1341  1.3389  1.1976
 9720TIP3   OH250650   3.401   3.493  11.089 -0.0767 -0.3943  0.1241
 9720TIP3    H150651   3.418   3.491  11.183 -1.3453  0.7851  0.4081
 9720TIP3    H250652   3.450   3.569  11.057 -1.4726  0.6081  0.2662
 9721TIP3   OH250653   3.202   1.341   0.495  0.2290  0.2853 -0.8207
 9721TIP3    H150654   3.185   1.430   0.527  1.4478  0.7471 -1.3874
 9721TIP3    H250655   3.200   1.350   0.400  0.6230 -0.2393 -0.8799
 9722TIP3   OH250656   4.776   6.134   5.807 -1.0396  0.6278  0.0480
 9722TIP3    H150657   4.790   6.133   5.902  0.3878  0.8145 -0.1481
 9722TIP3    H250658   4.773   6.041   5.782  2.7156  0.4626 -0.2534
 9723TIP3   OH250659   1.269   1.079  14.565  0.1461 -0.1511  0.1726
 9723TIP3    H150660   1.268   1.014  14.495 -0.5428 -2.1022  1.8811
 9723TIP3    H250661   1.187   1.126  14.555 -1.0661 -1.9597  0.9240
 9724TIP3   OH250662   2.244   3.916  16.578 -0.3434  0.1116 -0.5241
 9724TIP3    H150663   2.287   3.971  16.643  0.1896 -2.9226  1.9356
 9724TIP3    H250664   2.278   3.828  16.593 -3.2927 -1.5164 -2.1642
 9725TIP3   OH250665   6.147   4.981   2.158 -0.6207 -0.4930 -0.5448
 9725TIP3    H150666   6.107   4.944   2.237 -0.4399  0.3244 -0.0592
 9725TIP3    H250667   6.226   4.929   2.144  0.1109  0.2616  0.6512
 9726TIP3   OH250668   0.883   6.478  12.203 -0.1739  0.0818 -0.0336
 9726TIP3    H150669   0.932   6.399  12.180 -0.9110 -0.0624 -1.2057
 9726TIP3    H250670   0.827   6.494  12.127 -0.5216  1.3534  0.4684
 9727TIP3   OH250671   5.976   4.158  11.841  0.4097 -0.3174 -0.2395
 9727TIP3    H150672   6.014   4.155  11.753  1.4866  0.8107  0.1653
 9727TIP3    H250673   5.949   4.067  11.858  2.5045 -1.0877 -0.7409
 9728TIP3   OH250674   5.142   3.167  15.430 -0.0005  0.5192  0.6679
 9728TIP3    H150675   5.164   3.075  15.445 -0.4680  0.2179 -0.4335
 9728TIP3    H250676   5.061   3.179  15.480  0.2501  0.4328  1.1007
 9729TIP3   OH250677   3.721   5.255  11.439  0.3356 -0.0493 -0.0458
 9729TIP3    H150678   3.814   5.251  11.414 -0.0962  0.1745 -1.7880
 9729TIP3    H250679   3.686   5.328  11.389 -1.0614 -0.9212 -0.3732
 9730TIP3   OH250680   2.059   4.717  11.788 -0.2617  0.5049 -0.6175
 9730TIP3    H150681   2.125   4.745  11.851 -1.0914  1.9104 -0.3261
 9730TIP3    H250682   2.092   4.634  11.753  1.3188  0.8480 -0.0044
 9731TIP3   OH250683   2.921   0.062   6.364  0.8094 -0.1104  0.7088
 9731TIP3    H150684   2.849   0.122   6.346  0.5138 -0.2740  1.3233
 9731TIP3    H250685   2.980   0.072   6.289 -0.4503 -0.8663 -0.4419
 9732TIP3   OH250686   5.912   2.148  11.927 -0.0204  0.1901  0.0886
 9732TIP3    H150687   5.907   2.179  12.017 -1.4414 -0.0246  0.0998
 9732TIP3    H250688   5.905   2.227  11.874  0.1891  0.2543  0.1559
 9733TIP3   OH250689   1.337   3.612   0.679  0.1435  0.1922 -0.1012
 9733TIP3    H150690   1.413   3.657   0.643  1.2897 -1.3403  0.3366
 9733TIP3    H250691   1.262   3.663   0.648  1.2369  0.6882 -2.0538
 9734TIP3   OH250692   6.375   5.259  12.746 -0.1107  0.8776  0.0978
 9734TIP3    H150693   6.281   5.263  12.731 -0.2526  0.2790  0.7767
 9734TIP3    H250694   6.408   5.345  12.719 -0.8701  1.1497  0.0271
 9735TIP3   OH250695   1.180   3.638  12.006 -0.7998  0.0149 -0.4016
 9735TIP3    H150696   1.144   3.666  11.922 -1.6309  1.6023  0.4271
 9735TIP3    H250697   1.130   3.560  12.029 -1.1076  0.0270 -1.0164
 9736TIP3   OH250698   6.469   0.707  13.161  0.0037 -0.9306  0.5980
 9736TIP3    H150699   6.490   0.712  13.068 -1.7706  0.2394  0.1967
 9736TIP3    H250700   6.553   0.717  13.205  0.6035  1.2035 -0.8637
 9737TIP3   OH250701   2.463   6.627   5.268  0.2389 -0.9439 -0.5099
 9737TIP3    H150702   2.468   6.716   5.234  0.0953 -0.5587  0.4405
 9737TIP3    H250703   2.370   6.613   5.285  0.5404 -0.1686  2.1219
 9738TIP3   OH250704   5.752   6.434   5.770  0.1261 -0.7610 -0.0365
 9738TIP3    H150705   5.709   6.403   5.690 -1.0261  0.8734 -0.0997
 9738TIP3    H250706   5.843   6.448   5.744 -0.1098 -0.7706 -0.9261
 9739TIP3   OH250707   5.395   4.821  11.422 -0.1577  0.6942  0.1528
 9739TIP3    H150708   5.418   4.871  11.343  0.9690 -0.1891 -0.1119
 9739TIP3    H250709   5.478   4.785  11.452 -0.7440  0.1100  1.1201
 9740TIP3   OH250710   0.788   6.252   2.951 -0.1468  0.1843  0.1222
 9740TIP3    H150711   0.871   6.298   2.936 -1.0733  1.6852 -0.7004
 9740TIP3    H250712   0.800   6.207   3.034  1.7346 -0.2434 -0.3261
 9741TIP3   OH250713   4.076   0.877  14.036 -0.6927  0.2755  0.5842
 9741TIP3    H150714   4.146   0.929  13.995 -0.7460 -1.5740 -2.1157
 9741TIP3    H250715   3.999   0.933  14.032 -0.2032  0.9275  0.0046
 9742TIP3   OH250716   5.926   2.486  15.255  0.2862  0.1258 -0.7206
 9742TIP3    H150717   5.831   2.482  15.246  0.2048 -1.2446  0.3989
 9742TIP3    H250718   5.959   2.459  15.169 -0.3308  0.3039 -1.0201
 9743TIP3   OH250719   5.131   1.724  14.303 -0.0144 -0.4994 -0.4813
 9743TIP3    H150720   5.109   1.779  14.377 -0.5143 -0.6421 -0.5206
 9743TIP3    H250721   5.220   1.749  14.279  0.2309 -0.6113  0.3050
 9744TIP3   OH250722   6.456   0.998   6.756 -0.0457  0.1354 -0.2525
 9744TIP3    H150723   6.459   1.057   6.681 -0.0413 -0.1002 -0.4343
 9744TIP3    H250724   6.507   0.922   6.731  1.6723  0.9023  0.7302
 9745TIP3   OH250725   0.709   4.413   4.012 -0.3927 -0.7688 -0.4073
 9745TIP3    H150726   0.631   4.411   3.957 -0.4433  0.4352 -0.4085
 9745TIP3    H250727   0.676   4.417   4.101 -0.3276 -0.9499 -0.3753
 9746TIP3   OH250728   0.484   0.895  14.628 -0.2886 -0.3199 -0.1623
 9746TIP3    H150729   0.530   0.846  14.560 -2.2239 -3.1732  0.4061
 9746TIP3    H250730   0.539   0.884  14.706 -0.3109 -0.9399 -0.2281
 9747TIP3   OH250731   0.883   6.363  13.892  0.5456 -0.0297 -0.0639
 9747TIP3    H150732   0.930   6.299  13.838  0.6342  0.9007 -1.1180
 9747TIP3    H250733   0.869   6.438  13.834  0.7718  1.0676  1.2653
 9748TIP3   OH250734   2.639   2.142   1.991 -0.1922  0.7784 -0.0450
 9748TIP3    H150735   2.592   2.096   1.921 -1.2863 -0.2932  1.3247
 9748TIP3    H250736   2.627   2.235   1.971  2.9922  0.6676 -3.4779
 9749TIP3   OH250737   6.149   6.179   4.396 -0.0345 -0.5553  0.1394
 9749TIP3    H150738   6.234   6.197   4.355 -0.3026  1.0858  0.2116
 9749TIP3    H250739   6.118   6.099   4.354  1.0900 -0.6048 -0.6346
 9750TIP3   OH250740   5.568   0.978  16.045 -0.1233 -0.0204  0.1942
 9750TIP3    H150741   5.610   0.893  16.031  0.0409  0.0149  0.4621
 9750TIP3    H250742   5.598   1.005  16.132  1.0998  1.0607 -0.5424
 9751TIP3   OH250743   3.961   0.476   1.940 -0.2151 -0.5222  0.4496
 9751TIP3    H150744   3.982   0.384   1.950 -0.1918 -0.6317 -0.5088
 9751TIP3    H250745   4.044   0.522   1.951  0.3573 -0.8557 -2.0690
 9752TIP3   OH250746   3.932   4.236   0.969  0.6240 -0.2911  0.2548
 9752TIP3    H150747   4.011   4.189   0.996  2.2433  0.2959 -2.9901
 9752TIP3    H250748   3.952   4.328   0.987  0.1749 -0.2368  0.4884
 9753TIP3   OH250749   5.818   0.419   0.007  0.1277  0.0726 -0.1717
 9753TIP3    H150750   5.745   0.480   0.001  0.4237  1.0416  3.4271
 9753TIP3    H250751   5.786   0.349   0.064  1.6100 -0.0558  0.5591
 9754TIP3   OH250752   4.246   5.075  11.554 -0.3361 -0.0354  0.2161
 9754TIP3    H150753   4.248   5.093  11.460 -0.9619 -0.9866  0.0111
 9754TIP3    H250754   4.329   5.111  11.587  0.2266 -0.3516 -0.8149
 9755TIP3   OH250755   4.993   5.448   1.243 -0.7400 -0.0833 -0.0492
 9755TIP3    H150756   5.060   5.516   1.250  0.3924 -1.2463  1.2652
 9755TIP3    H250757   4.960   5.455   1.154 -0.1062  1.6560 -0.1797
 9756TIP3   OH250758   3.774   5.446  14.904 -0.2240  0.1616  0.1244
 9756TIP3    H150759   3.802   5.533  14.931  0.3078  0.9884 -2.7882
 9756TIP3    H250760   3.709   5.420  14.970 -0.0150  2.5093  1.3513
 9757TIP3   OH250761   5.449   6.485  13.583  0.0373  0.2711 -0.3599
 9757TIP3    H150762   5.477   6.395  13.564 -2.1273 -1.2565  2.7782
 9757TIP3    H250763   5.515   6.518  13.645  0.7769  0.8786 -1.4349
 9758TIP3   OH250764   1.307   3.587   3.850 -0.0223  0.2524 -0.0523
 9758TIP3    H150765   1.395   3.604   3.816  0.3393 -0.8258  0.2929
 9758TIP3    H250766   1.265   3.534   3.783 -0.3346  0.5817 -0.1177
 9759TIP3   OH250767   5.726   4.564  11.945  0.1410  0.7247 -0.0135
 9759TIP3    H150768   5.652   4.606  11.990 -0.3476 -1.2378  1.0970
 9759TIP3    H250769   5.704   4.573  11.852 -1.3956  0.4130  0.2835
 9760TIP3   OH250770   3.470   6.295   3.527  0.0873  0.1505 -0.2317
 9760TIP3    H150771   3.420   6.214   3.525  0.4740 -0.1194  0.4655
 9760TIP3    H250772   3.421   6.351   3.587 -0.4767  0.6468 -1.1334
 9761TIP3   OH250773   0.535   1.211   4.735  0.4857 -0.0472 -0.0864
 9761TIP3    H150774   0.620   1.216   4.691  0.6984 -0.2761  0.2935
 9761TIP3    H250775   0.556   1.188   4.825  0.2492  2.9069  0.8275
 9762TIP3   OH250776   4.650   1.679  16.526  0.6416 -0.0136  0.5629
 9762TIP3    H150777   4.635   1.698  16.619 -1.2136  0.1909  0.2509
 9762TIP3    H250778   4.573   1.629  16.499  1.7953 -1.2498 -0.5557
 9763TIP3   OH250779   5.174   0.530   6.044  0.1720 -0.2982 -0.3834
 9763TIP3    H150780   5.165   0.616   6.083 -0.1308 -1.0922  1.3951
 9763TIP3    H250781   5.117   0.474   6.097 -0.2262 -1.4502 -1.9672
 9764TIP3   OH250782   5.311   2.916   1.783 -0.1655 -0.0678 -0.1745
 9764TIP3    H150783   5.337   2.843   1.839  0.4127  0.2689  0.0004
 9764TIP3    H250784   5.257   2.875   1.715  0.9132 -0.8077 -0.6240
 9765TIP3   OH250785   6.426   5.835   0.566  0.2384 -0.1730  0.0301
 9765TIP3    H150786   6.437   5.892   0.490 -1.4122 -0.0950 -0.1810
 9765TIP3    H250787   6.398   5.751   0.530  2.6639 -1.1989  0.3402
 9766TIP3   OH250788   2.932   6.838  11.664  0.2569 -0.2548  0.4807
 9766TIP3    H150789   2.983   6.918  11.652 -1.0468  0.8096  1.7380
 9766TIP3    H250790   2.931   6.798  11.577  0.3300  1.4611 -0.3517
 9767TIP3   OH250791   1.252   3.277  16.682  0.5198  0.1840  0.4856
 9767TIP3    H150792   1.292   3.362  16.664 -0.0385  0.6468  1.3004
 9767TIP3    H250793   1.312   3.234  16.743  0.5722  0.1955  0.4412
 9768TIP3   OH250794   6.424   3.540  13.059 -0.0842 -0.3769  0.2095
 9768TIP3    H150795   6.394   3.464  13.011  0.8224 -1.6967  1.6516
 9768TIP3    H250796   6.485   3.584  13.000 -1.9099  0.2881 -1.3082
 9769TIP3   OH250797   5.231   2.167  15.589 -0.4254 -0.1629 -0.4421
 9769TIP3    H150798   5.190   2.103  15.647 -0.6487  1.1513  0.9045
 9769TIP3    H250799   5.325   2.156  15.602 -0.4366 -0.7694 -0.8493
 9770TIP3   OH250800   3.025   5.324  14.742 -0.4046 -0.4219 -0.3762
 9770TIP3    H150801   2.952   5.266  14.721 -1.8404  1.1671  0.0552
 9770TIP3    H250802   3.042   5.307  14.835  0.4396 -1.4682 -0.7014
 9771TIP3   OH250803   1.968   3.885  17.073  0.0162  0.2088  0.0193
 9771TIP3    H150804   1.953   3.978  17.058  0.2344  0.3264  0.5161
 9771TIP3    H250805   1.923   3.867  17.156  2.2896  0.4967  1.3987
 9772TIP3   OH250806   2.813   6.262   1.929  0.4105 -0.2626 -0.9173
 9772TIP3    H150807   2.878   6.246   1.860  1.2638 -2.5801  0.3290
 9772TIP3    H250808   2.773   6.177   1.944  1.0844 -0.1278  2.2635
 9773TIP3   OH250809   6.083   3.247   5.361  0.5395  0.4906  0.0234
 9773TIP3    H150810   6.022   3.306   5.316  0.0151 -1.0349 -1.4051
 9773TIP3    H250811   6.049   3.159   5.342  0.4906 -0.2964  3.2250
 9774TIP3   OH250812   5.105   4.535   5.942 -0.4788 -0.2001 -0.0030
 9774TIP3    H150813   5.073   4.518   6.030  0.4869 -1.3555  0.1595
 9774TIP3    H250814   5.098   4.450   5.898 -0.4786  0.2430 -0.8803
 9775TIP3   OH250815   4.640   3.343   5.194  0.1026 -0.2654  0.2905
 9775TIP3    H150816   4.706   3.404   5.227  1.6657 -0.3341 -2.4157
 9775TIP3    H250817   4.583   3.397   5.138  0.2763 -0.9063 -0.5171
 9776TIP3   OH250818   4.800   4.930  10.650  0.1646 -0.3907  0.1731
 9776TIP3    H150819   4.753   4.962  10.573  1.6223  0.3145 -0.4573
 9776TIP3    H250820   4.815   5.008  10.704  1.0294 -0.5192  0.1293
 9777TIP3   OH250821   4.180   1.646  13.751  0.2484 -0.1873  0.4752
 9777TIP3    H150822   4.224   1.678  13.672  0.8401  1.3464  1.3839
 9777TIP3    H250823   4.229   1.685  13.823 -1.9968  0.7752  1.5706
 9778TIP3   OH250824   2.391   5.932  11.845  0.1778  0.5809  0.0007
 9778TIP3    H150825   2.433   5.990  11.782 -0.2101  0.8053 -0.0528
 9778TIP3    H250826   2.462   5.907  11.905  0.7843 -0.4265 -1.0892
 9779TIP3   OH250827   6.670   2.214  14.165  0.1354  0.0871  0.3676
 9779TIP3    H150828   6.715   2.240  14.245  1.3049  0.9752 -0.5469
 9779TIP3    H250829   6.607   2.148  14.194  2.4876 -1.7744  1.6171
 9780TIP3   OH250830   5.385   2.156   0.635 -0.3788  0.6016 -0.6697
 9780TIP3    H150831   5.358   2.065   0.626  2.0901 -0.2225 -0.6538
 9780TIP3    H250832   5.338   2.202   0.565  0.6523 -1.2990 -2.7651
 9781TIP3   OH250833   2.289   1.792  12.550  0.3077 -0.0876 -0.2755
 9781TIP3    H150834   2.305   1.771  12.642  0.8423 -1.3040 -0.6216
 9781TIP3    H250835   2.244   1.715  12.515 -0.8764  0.8095 -0.7843
 9782TIP3   OH250836   2.307   6.355  13.446 -0.5503  0.8390  0.3147
 9782TIP3    H150837   2.340   6.427  13.500  1.7087  0.5507 -0.5875
 9782TIP3    H250838   2.303   6.281  13.506 -0.6352  1.1476  0.6993
 9783TIP3   OH250839   5.858   3.501   2.384  0.1087  0.4900 -0.2138
 9783TIP3    H150840   5.929   3.441   2.406 -0.2574  0.5413  1.2208
 9783TIP3    H250841   5.900   3.571   2.335  1.0562  0.4900  0.5632
 9784TIP3   OH250842   5.147   6.136  12.754  0.0065  0.2908 -0.1349
 9784TIP3    H150843   5.109   6.161  12.669 -1.4977 -1.1918  0.0475
 9784TIP3    H250844   5.081   6.079  12.794  1.0916  0.2000  1.6422
 9785TIP3   OH250845   0.176   4.064  16.061 -0.6253 -0.1821  0.0173
 9785TIP3    H150846   0.123   4.079  16.139  0.8823  0.3135  0.9713
 9785TIP3    H250847   0.266   4.066  16.091 -0.0212 -0.7658 -1.6159
 9786TIP3   OH250848   6.375   6.268  14.741  0.0425  0.3408 -0.2614
 9786TIP3    H150849   6.350   6.351  14.700 -2.0652 -1.0124 -1.9356
 9786TIP3    H250850   6.333   6.270  14.826 -0.4923  0.7598 -0.5299
 9787TIP3   OH250851   3.549   4.810   4.520 -0.2636  0.1732 -0.3032
 9787TIP3    H150852   3.553   4.721   4.555 -1.7275 -0.3228 -1.2980
 9787TIP3    H250853   3.639   4.831   4.498  0.1925 -0.8185  0.5210
 9788TIP3   OH250854   0.022   6.402  15.789  0.3455 -0.0470  0.1728
 9788TIP3    H150855   0.048   6.315  15.759 -0.3390 -0.6106  1.1500
 9788TIP3    H250856  -0.010   6.388  15.878  0.8718  1.3276  0.6006
 9789TIP3   OH250857   4.878   5.824  13.749  1.1820 -0.7795 -0.4750
 9789TIP3    H150858   4.936   5.885  13.794  1.2851 -0.9271 -0.4074
 9789TIP3    H250859   4.934   5.785  13.681  1.5871 -2.0293  0.5476
 9790TIP3   OH250860   2.761   5.656  12.865 -0.3518 -0.1309 -0.2583
 9790TIP3    H150861   2.840   5.652  12.918 -1.3018  0.2418  1.2332
 9790TIP3    H250862   2.780   5.599  12.790  1.3086 -0.0495  0.0539
 9791TIP3   OH250863   2.294   1.650   5.860 -0.1224  0.1575  0.2624
 9791TIP3    H150864   2.385   1.623   5.859  0.3579  1.6585 -1.0029
 9791TIP3    H250865   2.249   1.585   5.805  0.2333 -0.4167  0.6482
 9792TIP3   OH250866   2.558   4.698   4.980 -0.9058  0.1746  0.5351
 9792TIP3    H150867   2.466   4.712   4.960 -0.5686  1.6068 -0.1749
 9792TIP3    H250868   2.604   4.761   4.924  0.7379 -2.7277 -1.6695
 9793TIP3   OH250869   1.577   0.864   1.746  0.5412  0.4936 -0.6589
 9793TIP3    H150870   1.503   0.827   1.794  0.9401 -0.8061 -1.0034
 9793TIP3    H250871   1.587   0.952   1.780  0.0760 -0.0002  0.8044
 9794TIP3   OH250872   2.656   2.245   2.539  0.2675  0.1353  0.5211
 9794TIP3    H150873   2.703   2.319   2.501 -2.1392  0.7736 -1.4250
 9794TIP3    H250874   2.725   2.192   2.580  2.2390  2.6360  0.6766
 9795TIP3   OH250875   0.225   1.138   1.511  0.6844  0.0171  0.4549
 9795TIP3    H150876   0.176   1.074   1.459  1.0591  0.5469 -0.5808
 9795TIP3    H250877   0.247   1.208   1.449  2.3700  0.0006  0.9713
 9796TIP3   OH250878   2.916   3.735  12.804 -0.2537 -0.2083 -0.4550
 9796TIP3    H150879   2.956   3.814  12.840  0.4847 -0.6337 -0.3095
 9796TIP3    H250880   2.954   3.727  12.717 -1.9794  0.7797 -1.3427
 9797TIP3   OH250881   4.616   6.441   2.699 -0.3383  0.5612 -0.1923
 9797TIP3    H150882   4.610   6.515   2.759 -0.0323  0.0795  0.4526
 9797TIP3    H250883   4.526   6.414   2.685 -0.3333 -0.7209  1.8696
 9798TIP3   OH250884   5.651   4.780   2.276  0.1669 -0.2181 -0.6450
 9798TIP3    H150885   5.605   4.758   2.356  0.7751  1.3716  0.1797
 9798TIP3    H250886   5.590   4.758   2.205 -0.9241 -0.3177  0.3099
 9799TIP3   OH250887   6.122   2.463  12.123  0.4693 -0.1115 -0.3539
 9799TIP3    H150888   6.178   2.529  12.085  0.7721  0.1154  0.4653
 9799TIP3    H250889   6.099   2.497  12.209  0.0732 -0.7598 -0.1920
 9800TIP3   OH250890   2.440   2.480   3.670 -0.3567 -0.0955 -0.3139
 9800TIP3    H150891   2.381   2.419   3.714  0.3930 -0.1587  0.6372
 9800TIP3    H250892   2.507   2.423   3.631  0.3610  0.0992  0.6001
 9801TIP3   OH250893   0.788   6.018  15.324 -0.1594 -0.0448  0.3005
 9801TIP3    H150894   0.743   6.099  15.349  1.0007  0.5637  0.5042
 9801TIP3    H250895   0.848   6.044  15.255 -1.2410 -1.1549 -1.1073
 9802TIP3   OH250896   0.728   4.869  13.858  0.2677  0.3886  0.2760
 9802TIP3    H150897   0.715   4.799  13.922  1.7134 -1.3336 -1.1832
 9802TIP3    H250898   0.650   4.866  13.803 -0.8480  1.6847  1.7024
 9803TIP3   OH250899   6.479   6.125  13.048  0.7982 -0.0622 -0.3804
 9803TIP3    H150900   6.442   6.175  13.121 -0.7637 -3.3505  1.3076
 9803TIP3    H250901   6.413   6.132  12.979  0.8346  0.6114 -0.3527
 9804TIP3   OH250902   3.904   3.862  16.862  0.3686  0.3190 -0.0672
 9804TIP3    H150903   3.916   3.932  16.798  2.0679  1.7220  1.6446
 9804TIP3    H250904   3.811   3.840  16.857  0.0534  1.8025 -1.5596
 9805TIP3   OH250905   2.358   1.299  12.614  0.5117 -0.7875 -0.5803
 9805TIP3    H150906   2.439   1.347  12.598  1.2282 -1.7686 -0.0289
 9805TIP3    H250907   2.295   1.365  12.643  1.2362 -0.0736 -0.6211
 9806TIP3   OH250908   0.089   1.171  13.162 -0.2227 -0.3088  1.3501
 9806TIP3    H150909   0.047   1.104  13.109 -1.5851  0.1581  1.7945
 9806TIP3    H250910   0.175   1.135  13.184 -0.5189 -1.4390  0.6967
 9807TIP3   OH250911   3.410   5.328   1.232 -0.3258  0.3232  0.0837
 9807TIP3    H150912   3.435   5.419   1.214 -1.4120  0.2104 -2.3965
 9807TIP3    H250913   3.319   5.334   1.262 -0.4586  0.0652 -0.2598
 9808TIP3   OH250914   3.457   5.654  12.190  0.2949 -0.6822  0.3107
 9808TIP3    H150915   3.419   5.568  12.208  2.4213 -1.3358  2.2230
 9808TIP3    H250916   3.491   5.683  12.274  1.5155  1.0665 -0.7185
 9809TIP3   OH250917   1.773   3.884  15.427  0.0752  0.5498  0.4695
 9809TIP3    H150918   1.808   3.963  15.386  0.5421  0.1704  0.1334
 9809TIP3    H250919   1.778   3.817  15.359 -1.5216  0.5385  0.3252
 9810TIP3   OH250920   2.097   3.725  12.321  0.2815 -0.1768  0.1946
 9810TIP3    H150921   2.074   3.683  12.404 -1.7855 -0.1437 -0.2998
 9810TIP3    H250922   2.066   3.663  12.254 -1.2250  1.3125 -0.5406
 9811TIP3   OH250923   0.290   1.260   6.320 -0.2350 -0.2350  0.2405
 9811TIP3    H150924   0.202   1.247   6.284  0.0238  0.8340 -0.8436
 9811TIP3    H250925   0.337   1.179   6.299 -1.4026 -1.5420  2.3441
 9812TIP3   OH250926   3.860   1.386  15.769 -0.0836 -0.5430  0.0845
 9812TIP3    H150927   3.852   1.331  15.691 -0.8584  0.5291 -0.6228
 9812TIP3    H250928   3.770   1.415  15.787  0.2151 -0.0583  0.8468
 9813TIP3   OH250929   4.403   1.630  10.936 -0.1252  0.0931  0.1858
 9813TIP3    H150930   4.484   1.594  10.901  0.3994  0.6934  0.7673
 9813TIP3    H250931   4.345   1.554  10.945 -0.2530 -0.1006 -1.8573
 9814TIP3   OH250932   0.907   2.649  12.687 -0.4986  0.1060  0.2331
 9814TIP3    H150933   0.986   2.595  12.686  0.7201  1.7470  1.4003
 9814TIP3    H250934   0.890   2.668  12.595 -0.1562 -1.1058 -0.1037
 9815TIP3   OH250935   5.135   6.605  15.732  0.0801  0.4659  0.2148
 9815TIP3    H150936   5.203   6.565  15.786 -0.2089 -0.8419 -0.3543
 9815TIP3    H250937   5.160   6.584  15.642 -0.3188  1.1961 -0.0732
 9816TIP3   OH250938   4.973   0.470   2.610 -0.9873  0.4442  0.1409
 9816TIP3    H150939   4.896   0.523   2.591 -1.9856 -0.8745  0.3675
 9816TIP3    H250940   4.972   0.460   2.706 -0.7300  0.1328  0.1124
 9817TIP3   OH250941   6.655   5.105  13.754 -0.0839  0.5467  0.2200
 9817TIP3    H150942   6.599   5.173  13.716  0.5144  0.2836 -1.2274
 9817TIP3    H250943   6.742   5.124  13.719  0.1723 -0.6999  0.1224
 9818TIP3   OH250944   0.885   5.577   5.097  0.5563 -0.2168  0.1839
 9818TIP3    H150945   0.886   5.588   5.192 -1.0762  0.5875  0.1303
 9818TIP3    H250946   0.836   5.496   5.082  0.6044 -0.2164  0.0144
 9819TIP3   OH250947   0.366   1.623  13.292 -0.2383 -0.0719 -0.3428
 9819TIP3    H150948   0.278   1.612  13.257 -0.6624 -0.0089  0.6680
 9819TIP3    H250949   0.419   1.651  13.217 -1.1265  0.1549 -0.8946
 9820TIP3   OH250950   1.190   0.442   4.320  0.3539 -0.2493  0.1282
 9820TIP3    H150951   1.198   0.414   4.228  0.4820  2.4069 -0.7427
 9820TIP3    H250952   1.279   0.436   4.354  0.4769 -0.3474 -0.1985
 9821TIP3   OH250953   3.207   5.798  14.691 -0.0428  0.7225 -0.0830
 9821TIP3    H150954   3.120   5.834  14.706  0.2357  0.6889  1.8904
 9821TIP3    H250955   3.196   5.704  14.703  0.4185  0.8083  1.1914
 9822TIP3   OH250956   6.240   4.355  13.905 -0.7054 -0.4297 -0.5648
 9822TIP3    H150957   6.159   4.392  13.870 -0.6869 -1.2222 -1.5079
 9822TIP3    H250958   6.215   4.269  13.939 -0.1348 -1.0320 -1.6153
 9823TIP3   OH250959   2.412   6.116  14.341  0.0203 -0.3948  0.5234
 9823TIP3    H150960   2.492   6.144  14.385 -0.0477 -1.6591  1.5162
 9823TIP3    H250961   2.343   6.169  14.379  0.2573  0.0375  0.3491
 9824TIP3   OH250962   6.454   5.970  11.108 -0.1476 -0.3163 -0.1264
 9824TIP3    H150963   6.390   6.034  11.077  1.6136  0.4556 -2.5158
 9824TIP3    H250964   6.533   6.021  11.123  1.0639 -1.7630 -1.2706
 9825TIP3   OH250965   1.833   1.445   5.150  0.2846  0.6433 -0.6559
 9825TIP3    H150966   1.842   1.515   5.084  2.8152  0.9322 -0.1386
 9825TIP3    H250967   1.922   1.436   5.185 -0.6634 -0.6712  1.5352
 9826TIP3   OH250968   1.939   4.114  14.505 -0.0462 -0.2794 -0.2489
 9826TIP3    H150969   1.911   4.036  14.458  2.7255 -1.8617  0.4861
 9826TIP3    H250970   1.979   4.169  14.437 -2.0090  0.5961 -0.7676
 9827TIP3   OH250971   3.760   4.983  14.748 -0.3342  0.6347  0.3495
 9827TIP3    H150972   3.802   5.032  14.818  0.6065  0.2739  0.0592
 9827TIP3    H250973   3.786   4.892  14.764  1.1722  0.7187 -1.2994
 9828TIP3   OH250974   0.618   1.182  15.618 -0.0989 -0.2312  0.5503
 9828TIP3    H150975   0.655   1.100  15.651 -1.7683 -0.9233  0.7775
 9828TIP3    H250976   0.641   1.183  15.525 -0.3794 -1.1554  0.4603
 9829TIP3   OH250977   6.024   1.040   4.236 -0.8025 -0.0658  0.3141
 9829TIP3    H150978   5.938   1.060   4.272 -1.1648 -1.1394  0.0976
 9829TIP3    H250979   6.033   0.945   4.248  0.1435 -0.0373 -0.1015
 9830TIP3   OH250980   1.647   2.778  17.046  0.3847 -0.7241 -0.3849
 9830TIP3    H150981   1.644   2.827  16.964  1.0248 -0.8816 -0.5070
 9830TIP3    H250982   1.732   2.734  17.044  0.0328 -1.4292 -0.0413
 9831TIP3   OH250983   3.597   0.515  13.002  0.3860  0.9519 -0.1179
 9831TIP3    H150984   3.558   0.577  12.940  0.0458  0.8004 -0.0588
 9831TIP3    H250985   3.637   0.448  12.947 -0.9420  0.1731 -0.1980
 9832TIP3   OH250986   1.643   0.125   5.134 -0.1013  0.5750 -0.4226
 9832TIP3    H150987   1.709   0.123   5.203 -1.0695 -2.0468  0.5494
 9832TIP3    H250988   1.563   0.153   5.178 -0.0890  2.0224 -1.2334
 9833TIP3   OH250989   0.677   0.689  13.301  0.2288 -0.2305  0.1090
 9833TIP3    H150990   0.709   0.717  13.215  0.2988 -1.5331 -0.3066
 9833TIP3    H250991   0.678   0.593  13.298  0.5316 -0.3114  1.6771
 9834TIP3   OH250992   4.250   3.902   1.621  0.4663 -0.0635  0.5450
 9834TIP3    H150993   4.217   3.992   1.614  0.0831 -0.2808 -0.5781
 9834TIP3    H250994   4.343   3.909   1.601  0.4266  0.0667  0.4060
 9835TIP3   OH250995   1.621   3.663  12.799  0.3667 -0.2909 -0.2383
 9835TIP3    H150996   1.654   3.595  12.858  0.4324 -0.2542 -0.2329
 9835TIP3    H250997   1.584   3.615  12.725  0.8069 -0.3196 -0.4417
 9836TIP3   OH250998   5.934   4.608  14.976 -0.7184 -0.1066  0.7598
 9836TIP3    H150999   5.910   4.574  14.890 -1.1216  1.0871  0.3779
 9836TIP3    H251000   6.001   4.548  15.008  1.7581  1.0760 -1.7107
 9837TIP3   OH251001   3.106   6.427   1.596  0.4344  0.1092  0.3814
 9837TIP3    H151002   3.188   6.475   1.608  1.7154 -1.4919 -1.2493
 9837TIP3    H251003   3.128   6.337   1.620 -0.6941 -0.4468 -0.5730
 9838TIP3   OH251004   3.920   1.468   2.548 -0.2099  0.2555 -0.2255
 9838TIP3    H151005   3.858   1.532   2.582 -0.1177  0.0156  0.4230
 9838TIP3    H251006   3.989   1.464   2.615  0.8167  0.9479 -1.2051
 9839TIP3   OH251007   5.211   3.757   1.039  0.9504 -0.0182  0.2446
 9839TIP3    H151008   5.156   3.742   1.116 -0.0664 -1.9556 -0.7925
 9839TIP3    H251009   5.171   3.833   0.996  1.9042  1.4866  1.8857
 9840TIP3   OH251010   3.057   0.884  14.377  0.0618  0.0235 -0.0657
 9840TIP3    H151011   3.068   0.846  14.290  0.3394 -1.1045  0.4465
 9840TIP3    H251012   3.018   0.970  14.360  2.5010  0.9586 -1.4583
 9841TIP3   OH251013   3.699   0.997   4.925  0.1109  0.0043  0.0146
 9841TIP3    H151014   3.692   0.924   4.864 -0.4495 -0.1482  0.2546
 9841TIP3    H251015   3.790   1.026   4.917 -0.1295  0.4362 -1.3981
 9842TIP3   OH251016   5.580   0.564   2.533 -1.0804 -0.7449 -0.3694
 9842TIP3    H151017   5.492   0.596   2.553 -0.2447  0.4510  1.7750
 9842TIP3    H251018   5.622   0.635   2.485 -1.1800 -1.2044 -1.1516
 9843TIP3   OH251019   6.474   6.091   2.146  0.6457 -0.6828  0.2205
 9843TIP3    H151020   6.536   6.036   2.097  1.0555 -1.3032  1.3935
 9843TIP3    H251021   6.496   6.180   2.120 -0.1889 -1.0470 -1.9101
 9844TIP3   OH251022   2.788   3.834  11.549  0.0931 -0.7117  0.0440
 9844TIP3    H151023   2.836   3.898  11.601  1.4328 -1.3551 -0.3573
 9844TIP3    H251024   2.823   3.749  11.575 -1.1993 -1.2554  0.0966
 9845TIP3   OH251025   5.998   4.743   1.346 -0.1578 -0.0227  0.2452
 9845TIP3    H151026   6.027   4.733   1.255 -1.2775 -0.6123 -0.0646
 9845TIP3    H251027   6.079   4.739   1.398  0.3558 -1.3264 -0.6022
 9846TIP3   OH251028   4.888   5.282   4.741  0.4951 -0.6024 -0.0734
 9846TIP3    H151029   4.957   5.345   4.722 -0.9134  0.9568 -0.1914
 9846TIP3    H251030   4.928   5.222   4.804  2.1706 -0.1893 -0.6798
 9847TIP3   OH251031   0.444   4.266  11.558 -0.1519 -0.1523 -0.0907
 9847TIP3    H151032   0.361   4.239  11.596  0.4668 -0.4054  1.1311
 9847TIP3    H251033   0.499   4.188  11.563  1.1474  0.8102  2.0151
 9848TIP3   OH251034   4.940   3.708   0.831 -0.0203  0.5648  0.1474
 9848TIP3    H151035   4.933   3.735   0.739 -2.4911 -2.6926 -0.8210
 9848TIP3    H251036   4.883   3.770   0.878 -1.3235  0.3804 -1.0951
 9849TIP3   OH251037   0.309   1.881  10.855  0.1085  0.0405 -0.0401
 9849TIP3    H151038   0.230   1.902  10.805 -0.2778  2.4116  1.4415
 9849TIP3    H251039   0.283   1.808  10.911 -1.0576  0.8273  0.4626
 9850TIP3   OH251040   2.120   4.826   5.255  0.0490  0.3786  0.0136
 9850TIP3    H151041   2.168   4.838   5.173 -0.4760 -0.5189 -0.4413
 9850TIP3    H251042   2.176   4.865   5.322  2.1951 -1.9733 -0.2514
 9851TIP3   OH251043   3.114   6.347  10.987 -0.1941  0.1876  0.0441
 9851TIP3    H151044   3.194   6.386  10.951 -1.5007  1.1850 -1.9979
 9851TIP3    H251045   3.103   6.266  10.937 -0.3034 -0.1156  0.5510
 9852TIP3   OH251046   4.365   6.046   3.834  0.4955 -0.3041  0.1675
 9852TIP3    H151047   4.446   6.087   3.864 -0.2830  0.1877  1.7264
 9852TIP3    H251048   4.393   5.965   3.792  1.7395 -0.8146  1.8418
 9853TIP3   OH251049   6.419   2.408  11.824 -0.3610 -0.0286 -0.2473
 9853TIP3    H151050   6.401   2.497  11.853 -2.7240 -0.7754  0.8328
 9853TIP3    H251051   6.345   2.387  11.767  1.4959 -0.4560 -2.6579
 9854TIP3   OH251052   3.517   6.141  15.878 -0.5651  0.2098  0.3456
 9854TIP3    H151053   3.476   6.107  15.798  0.3038  0.8580 -0.4034
 9854TIP3    H251054   3.552   6.064  15.922 -1.2592 -0.1801  0.2233
 9855TIP3   OH251055   3.603   0.511  15.723 -0.2815  0.0971  0.0746
 9855TIP3    H151056   3.605   0.576  15.793 -4.1052 -1.4306  1.8845
 9855TIP3    H251057   3.670   0.448  15.745  0.2552  0.9464  0.9292
 9856TIP3   OH251058   1.387   5.301   3.953 -0.2263  0.1533 -0.8298
 9856TIP3    H151059   1.442   5.246   3.897 -0.7240 -0.3520 -0.8250
 9856TIP3    H251060   1.445   5.326   4.025  0.3060  0.4929 -1.3683
 9857TIP3   OH251061   5.987   4.696   4.450  0.2597  0.0444 -0.1448
 9857TIP3    H151062   6.048   4.743   4.506 -0.9135  1.9204 -0.3643
 9857TIP3    H251063   6.006   4.604   4.467  0.5569  0.5249  2.6971
 9858TIP3   OH251064   3.997   1.798  16.738  0.8788 -0.1150 -0.1996
 9858TIP3    H151065   3.935   1.734  16.701  2.4543 -0.7010 -1.9718
 9858TIP3    H251066   3.944   1.877  16.750 -0.5987 -1.0727 -0.0600
 9859TIP3   OH251067   2.622   3.248  16.507  0.3349  0.5667  0.0230
 9859TIP3    H151068   2.531   3.219  16.502  0.6717 -0.4461 -0.6715
 9859TIP3    H251069   2.643   3.275  16.418  1.1030 -0.5051 -0.1410
 9860TIP3   OH251070   0.175   3.938   0.044  0.0178 -0.4317 -0.0222
 9860TIP3    H151071   0.086   3.917   0.017  0.1038  0.4827 -1.0859
 9860TIP3    H251072   0.229   3.916  -0.032  0.8228 -1.6967  0.8689
 9861TIP3   OH251073   5.159   3.029   4.617 -0.0618  0.1673  0.2203
 9861TIP3    H151074   5.133   2.967   4.684 -0.8846  0.0890 -0.1636
 9861TIP3    H251075   5.255   3.034   4.625 -0.2404  1.1727  2.2584
 9862TIP3   OH251076   2.221   6.504  11.716  0.0018  0.3100 -0.1055
 9862TIP3    H151077   2.236   6.416  11.750 -1.6836 -0.6342 -1.6184
 9862TIP3    H251078   2.287   6.558  11.759  0.8429 -1.6087  1.1512
 9863TIP3   OH251079   1.068   4.095   4.766  0.3348 -0.2278 -0.0165
 9863TIP3    H151080   1.099   4.130   4.682 -0.6803 -0.8990 -0.6824
 9863TIP3    H251081   1.123   4.018   4.781  0.5893 -0.0465 -0.0029
 9864TIP3   OH251082   0.594   6.026   5.503 -0.4279 -0.0532  0.5162
 9864TIP3    H151083   0.543   5.945   5.499  0.7024 -0.7632 -1.1178
 9864TIP3    H251084   0.529   6.095   5.512 -1.4575 -1.1060  1.4671
 9865TIP3   OH251085   2.312   2.754   5.192 -0.3169  0.1378  0.0381
 9865TIP3    H151086   2.291   2.821   5.128 -2.1695 -0.2332  0.2040
 9865TIP3    H251087   2.284   2.791   5.276 -2.1876 -1.1262  0.0236
 9866TIP3   OH251088   4.275   5.491  14.338 -0.5386 -0.1858  0.1710
 9866TIP3    H151089   4.366   5.471  14.358 -0.2303 -0.2002 -1.1727
 9866TIP3    H251090   4.225   5.426  14.388  0.2050 -0.6137  0.3761
 9867TIP3   OH251091   0.396   3.533   4.611  0.3188  0.3484 -0.4049
 9867TIP3    H151092   0.307   3.559   4.588 -0.0369  0.0237  0.5588
 9867TIP3    H251093   0.443   3.616   4.623  0.6008  0.5477 -2.4633
 9868TIP3   OH251094   1.136   5.329   1.346  0.0576 -0.3719 -0.3595
 9868TIP3    H151095   1.160   5.307   1.256 -0.4145 -0.0275 -0.5725
 9868TIP3    H251096   1.074   5.401   1.337 -0.6441 -0.8964  0.2111
 9869TIP3   OH251097   3.570   6.682   0.124 -0.2783 -0.2435 -0.3047
 9869TIP3    H151098   3.532   6.675   0.212  0.7126 -0.0368  0.1648
 9869TIP3    H251099   3.505   6.729   0.073 -0.8224 -0.2617  0.3568
 9870TIP3   OH251100   3.854   4.107   2.072 -0.2599 -0.2018 -0.4489
 9870TIP3    H151101   3.897   4.162   2.006  0.4027  0.8174  0.8055
 9870TIP3    H251102   3.884   4.018   2.052 -0.0661  0.0892 -1.5134
 9871TIP3   OH251103   2.604   0.748  16.726  0.0770 -0.4395  0.1548
 9871TIP3    H151104   2.592   0.807  16.651  2.9161  0.8384  0.5988
 9871TIP3    H251105   2.630   0.805  16.798 -1.9893 -1.7187  2.0505
 9872TIP3   OH251106   1.600   0.134  16.416  0.1248  0.0014 -0.0461
 9872TIP3    H151107   1.562   0.047  16.430  0.1985  0.1884  1.3946
 9872TIP3    H251108   1.675   0.138  16.474 -1.3675  1.9515  1.9210
 9873TIP3   OH251109   3.774   0.757   3.889  0.9044 -0.7062 -0.1564
 9873TIP3    H151110   3.772   0.662   3.873 -2.1790 -0.5739 -1.1774
 9873TIP3    H251111   3.712   0.793   3.825 -2.1208  1.3831  3.5653
 9874TIP3   OH251112   5.273   6.580   1.367  0.4730 -0.4203 -0.4016
 9874TIP3    H151113   5.350   6.632   1.391  2.0255 -1.9358 -1.8285
 9874TIP3    H251114   5.198   6.633   1.395  2.0019  1.7323 -0.1699
 9875TIP3   OH251115   5.687   0.311   3.654  0.3271  0.3745 -0.6813
 9875TIP3    H151116   5.763   0.340   3.705 -0.6887  3.5214 -0.7543
 9875TIP3    H251117   5.704   0.343   3.566 -0.4027 -0.2776 -1.0684
 9876TIP3   OH251118   1.441   5.794  15.036 -0.4564 -0.3597 -0.4483
 9876TIP3    H151119   1.474   5.808  15.125  0.9884  1.4012 -1.1944
 9876TIP3    H251120   1.490   5.718  15.003 -1.1868 -1.1814  0.3214
 9877TIP3   OH251121   1.893   1.662  12.511 -0.6935  0.3025  0.0342
 9877TIP3    H151122   1.879   1.630  12.422 -0.6615  0.9896 -0.2223
 9877TIP3    H251123   1.812   1.707  12.534 -0.9000 -0.3049  0.5557
 9878TIP3   OH251124   0.354   0.675  12.498 -0.2298 -0.3036  0.5994
 9878TIP3    H151125   0.392   0.760  12.522 -0.5638 -0.7244  2.7838
 9878TIP3    H251126   0.429   0.617  12.487 -0.0557 -0.0236  0.2820
 9879TIP3   OH251127   2.327   2.994  14.271  0.0177  0.0526 -0.0583
 9879TIP3    H151128   2.256   3.001  14.207 -1.0000  1.3257  1.1492
 9879TIP3    H251129   2.382   3.070  14.255  0.4405 -0.2734 -0.1811
 9880TIP3   OH251130   1.827   0.499  17.031 -0.1326 -0.3050 -0.4217
 9880TIP3    H151131   1.855   0.458  16.949 -1.7962 -1.8872 -0.2662
 9880TIP3    H251132   1.855   0.437  17.098 -1.7269 -0.7320 -0.0980
 9881TIP3   OH251133   5.317   1.224  11.874 -0.3467 -0.0645 -0.2706
 9881TIP3    H151134   5.332   1.218  11.779  0.3374 -2.5102 -0.0861
 9881TIP3    H251135   5.227   1.255  11.881 -0.3726  0.2950 -1.7207
 9882TIP3   OH251136   0.956   5.287  14.280  0.1816 -0.7672  0.1550
 9882TIP3    H151137   0.928   5.221  14.344 -0.0919 -0.4353  0.3784
 9882TIP3    H251138   0.876   5.331  14.254  0.1309 -1.6411 -1.2665
 9883TIP3   OH251139   0.032   4.300  16.759  0.2198  0.4908  0.1662
 9883TIP3    H151140   0.075   4.232  16.809 -1.0765  0.9436  2.0154
 9883TIP3    H251141   0.038   4.378  16.815  0.6348  1.6092 -1.3713
 9884TIP3   OH251142   2.279   6.826   3.765 -0.2696 -0.0202 -0.4112
 9884TIP3    H151143   2.356   6.772   3.782 -0.5628 -0.4276 -0.3669
 9884TIP3    H251144   2.209   6.763   3.749 -0.7797  0.3469  0.3584
 9885TIP3   OH251145   5.099   3.417   4.601 -0.3052  0.2203  0.4433
 9885TIP3    H151146   5.193   3.405   4.609 -0.4155 -0.7407  0.3938
 9885TIP3    H251147   5.067   3.418   4.692 -0.3794 -0.5931  0.4266
 9886TIP3   OH251148   4.451   3.443  12.835  0.1797  0.1441 -0.0854
 9886TIP3    H151149   4.518   3.418  12.898 -0.9368  0.0075  1.0897
 9886TIP3    H251150   4.436   3.364  12.783  0.6486  0.0668 -0.1058
 9887TIP3   OH251151   5.053   3.071  15.090  0.2176 -0.1992 -0.3884
 9887TIP3    H151152   5.003   3.151  15.071 -0.1480  0.2052  1.8908
 9887TIP3    H251153   5.136   3.103  15.126 -0.3400 -0.7601  1.5390
 9888TIP3   OH251154   3.526   3.866   3.759  0.7609 -0.1926 -0.5714
 9888TIP3    H151155   3.569   3.811   3.824 -0.7277  0.4029  0.9849
 9888TIP3    H251156   3.448   3.817   3.734  0.1793  0.5329 -0.2404
 9889TIP3   OH251157   4.858   0.581   4.369 -0.4942 -0.0482  0.0077
 9889TIP3    H151158   4.905   0.525   4.431  1.7225 -0.0196 -1.5187
 9889TIP3    H251159   4.771   0.542   4.362 -0.1483 -1.2184  1.5784
 9890TIP3   OH251160   1.739   1.611  11.786 -0.7196 -0.1674  0.2216
 9890TIP3    H151161   1.677   1.560  11.734 -0.0949 -0.0750 -0.6386
 9890TIP3    H251162   1.779   1.671  11.722 -0.9199  0.9004  1.0695
 9891TIP3   OH251163   5.930   0.486  13.819 -0.6276 -0.1524 -0.3946
 9891TIP3    H151164   6.008   0.472  13.765 -0.6978  1.0765 -0.8689
 9891TIP3    H251165   5.871   0.415  13.795  1.3918 -2.9043  2.1492
 9892TIP3   OH251166   2.837   3.434   2.138  0.3923 -0.1451  0.0796
 9892TIP3    H151167   2.757   3.487   2.134  1.1639  1.0695  0.0474
 9892TIP3    H251168   2.822   3.362   2.077 -0.6624  0.0720  0.0641
 9893TIP3   OH251169   2.947   5.696   2.123 -0.1332 -0.1216  0.0213
 9893TIP3    H151170   2.999   5.713   2.201 -0.5671  0.2592  0.2288
 9893TIP3    H251171   2.857   5.719   2.148 -0.4309 -0.8808 -0.2925
 9894TIP3   OH251172   3.855   6.101   0.702 -0.0146 -0.2052 -0.0609
 9894TIP3    H151173   3.885   6.137   0.618 -1.6921 -0.3553 -0.7744
 9894TIP3    H251174   3.910   6.144   0.768  0.2071  1.2140 -1.1199
 9895TIP3   OH251175   4.875   3.536  11.352 -0.6890 -0.1375 -0.2049
 9895TIP3    H151176   4.943   3.584  11.399  0.1765 -0.0166 -1.5008
 9895TIP3    H251177   4.899   3.546  11.259 -1.9383 -0.9103 -0.6377
 9896TIP3   OH251178   3.193   1.334  11.429 -0.1239  0.2228  0.2300
 9896TIP3    H151179   3.192   1.312  11.336  2.3517 -0.8996  0.3790
 9896TIP3    H251180   3.108   1.306  11.461 -0.3580 -1.0600 -1.3576
 9897TIP3   OH251181   4.035   0.217   1.728 -0.0922 -0.0596  0.1856
 9897TIP3    H151182   3.963   0.170   1.684 -1.0008  1.2544  0.2203
 9897TIP3    H251183   4.031   0.187   1.819  0.8818 -1.7021 -0.2627
 9898TIP3   OH251184   4.981   5.256  14.735  0.9169 -0.4642 -0.3541
 9898TIP3    H151185   4.973   5.283  14.826 -1.0043 -1.0415 -0.2943
 9898TIP3    H251186   4.988   5.161  14.739 -1.3646 -0.7101 -0.8244
 9899TIP3   OH251187   2.949   6.674  13.192  0.9508  0.4204 -0.1366
 9899TIP3    H151188   2.885   6.699  13.259  0.9762  1.1941 -0.3832
 9899TIP3    H251189   2.961   6.754  13.139  0.8745 -0.1907 -1.1080
 9900TIP3   OH251190   4.192   6.003  12.850  0.1333 -0.3765  0.5178
 9900TIP3    H151191   4.187   6.086  12.803 -0.0714  0.7814  2.5026
 9900TIP3    H251192   4.102   5.982  12.872  0.3087 -0.3581  1.2810
 9901TIP3   OH251193   4.289   4.176  16.186  0.3077 -0.4805  0.4757
 9901TIP3    H151194   4.288   4.109  16.254  0.3715  0.1369  1.0998
 9901TIP3    H251195   4.349   4.243  16.220  0.0417  0.0110 -0.0163
 9902TIP3   OH251196   1.786   6.514  14.720  0.3632  0.3906  0.1123
 9902TIP3    H151197   1.798   6.578  14.790 -0.5257  3.2727 -2.1781
 9902TIP3    H251198   1.695   6.488  14.728  0.6867 -0.5729  0.9540
 9903TIP3   OH251199   2.324   4.247  11.618  0.1684 -0.4940 -0.4362
 9903TIP3    H151200   2.264   4.177  11.642 -0.0222 -0.4846 -0.8852
 9903TIP3    H251201   2.327   4.303  11.696 -1.1934  0.0613 -0.7530
 9904TIP3   OH251202   1.208   3.511   5.444  0.2046  0.2685 -0.2221
 9904TIP3    H151203   1.222   3.437   5.504  1.0214  0.6532  0.0757
 9904TIP3    H251204   1.231   3.588   5.495  1.1646  0.5895 -1.0868
 9905TIP3   OH251205   6.769   2.957   6.932 -0.1048 -0.5569  0.3010
 9905TIP3    H151206   6.850   2.905   6.929  0.4962  0.3952 -0.6753
 9905TIP3    H251207   6.701   2.895   6.905  0.9279 -0.3405 -3.3387
 9906TIP3   OH251208   3.796   4.869  13.240 -0.2578 -0.4043  0.3268
 9906TIP3    H151209   3.876   4.853  13.290  0.0579  0.4661  0.1214
 9906TIP3    H251210   3.824   4.925  13.167 -0.9434 -0.5978 -0.0987
 9907TIP3   OH251211   5.386   2.869   3.755  0.7271  0.5572  0.2281
 9907TIP3    H151212   5.353   2.828   3.835 -0.1036  0.2399 -0.2581
 9907TIP3    H251213   5.404   2.959   3.779  2.3012  0.0151  1.2499
 9908TIP3   OH251214   0.513   5.929  14.938  0.2050 -0.0833 -0.0428
 9908TIP3    H151215   0.465   5.863  14.889  0.5912 -0.0061 -0.5403
 9908TIP3    H251216   0.574   5.879  14.993 -0.1115 -0.1647  0.2372
 9909TIP3   OH251217   4.096   2.261  14.175 -0.1783 -0.1153  0.3324
 9909TIP3    H151218   4.065   2.301  14.094  0.0289  0.9075  0.7439
 9909TIP3    H251219   4.023   2.207  14.204 -0.3414 -0.3019 -0.4062
 9910TIP3   OH251220   5.954   0.106  16.375  0.5799 -0.5906 -0.0178
 9910TIP3    H151221   6.005   0.185  16.356 -1.4948  0.7820 -0.1784
 9910TIP3    H251222   5.868   0.123  16.338 -0.6857 -1.9200  2.0946
 9911TIP3   OH251223   2.880   6.574   2.664 -0.4227 -0.5983 -1.0076
 9911TIP3    H151224   2.861   6.567   2.571 -0.3315 -0.1345 -1.0641
 9911TIP3    H251225   2.799   6.608   2.702 -0.7037 -1.4545 -0.8062
 9912TIP3   OH251226   2.249   2.438   3.385 -0.5281  0.5419 -0.6804
 9912TIP3    H151227   2.342   2.452   3.366 -0.0120  2.4995  2.4998
 9912TIP3    H251228   2.203   2.488   3.318  0.6861  0.2389 -1.7953
 9913TIP3   OH251229   6.051   6.181   2.464 -0.0655  0.1947 -0.1425
 9913TIP3    H151230   6.074   6.189   2.556 -0.4625  1.1877 -0.1121
 9913TIP3    H251231   5.999   6.101   2.459 -1.0403  0.7520  0.7144
 9914TIP3   OH251232   3.013   5.966  15.263  0.4436 -0.6596 -0.3713
 9914TIP3    H151233   2.931   5.960  15.311  0.2441 -0.5571 -0.6928
 9914TIP3    H251234   2.994   5.925  15.179  0.9076 -1.2084 -0.2083
 9915TIP3   OH251235   2.438   0.937   2.980  0.3947 -0.1062  0.0761
 9915TIP3    H151236   2.371   1.005   2.975 -0.5659 -0.9416  1.0977
 9915TIP3    H251237   2.463   0.935   3.073  1.1434 -0.4670 -0.1203
 9916TIP3   OH251238   1.776   0.723  15.222 -0.1538 -0.0231 -0.3325
 9916TIP3    H151239   1.743   0.779  15.292  0.1918  0.0351 -0.2154
 9916TIP3    H251240   1.804   0.643  15.266  1.2456  0.4993 -0.2288
 9917TIP3   OH251241   6.808   0.995  12.648 -0.8188  0.2810  0.3263
 9917TIP3    H151242   6.798   0.917  12.703 -0.8407  1.3774  1.9738
 9917TIP3    H251243   6.846   1.060  12.707 -0.7505  1.5005 -1.0223
 9918TIP3   OH251244   4.049   4.974  13.350  0.5815  0.0160  0.4689
 9918TIP3    H151245   4.058   5.016  13.436 -0.8289  0.2021  0.5465
 9918TIP3    H251246   4.100   4.894  13.357  0.7342  0.1843  1.3807
 9919TIP3   OH251247   2.737   2.836   1.389  0.6630  0.7240 -0.5898
 9919TIP3    H151248   2.693   2.875   1.313  0.1488  0.6131 -0.3566
 9919TIP3    H251249   2.695   2.877   1.464 -1.3310 -1.6740 -0.2631
 9920TIP3   OH251250   6.462   4.678  15.415 -0.0649  0.1843  0.0945
 9920TIP3    H151251   6.434   4.742  15.349 -0.0644  0.5104  0.4021
 9920TIP3    H251252   6.389   4.675  15.477  0.0481  0.0842  0.2234
 9921TIP3   OH251253   5.445   3.819   1.988  0.0412  0.2947 -0.3894
 9921TIP3    H151254   5.448   3.824   1.893 -0.0505 -1.3033 -0.5067
 9921TIP3    H251255   5.357   3.787   2.008 -0.2348  1.4375  0.2904
 9922TIP3   OH251256   4.878   4.809  17.115  0.5171  0.6079 -0.1167
 9922TIP3    H151257   4.878   4.773  17.203 -1.2632  0.0157 -0.3203
 9922TIP3    H251258   4.886   4.732  17.058  1.6192  0.9817 -0.5040
 9923TIP3   OH251259   4.654   2.604   3.283  0.2220  0.0296 -0.1933
 9923TIP3    H151260   4.633   2.563   3.366  1.6251 -0.2543  0.0543
 9923TIP3    H251261   4.746   2.582   3.268  1.3839  3.6898  0.3788
 9924TIP3   OH251262   1.539   5.760  13.562 -0.4983 -0.5326 -0.0472
 9924TIP3    H151263   1.523   5.736  13.471  0.4788 -0.4046 -0.2696
 9924TIP3    H251264   1.588   5.687  13.599  0.4169  0.0595 -0.0580
 9925TIP3   OH251265   1.096   4.418   3.625  0.0021 -0.1934 -0.0147
 9925TIP3    H151266   1.038   4.408   3.701  0.0511  0.4622  0.1125
 9925TIP3    H251267   1.039   4.401   3.549 -1.0265  2.8587 -0.0521
 9926TIP3   OH251268   4.196   3.031   2.985 -0.3369 -0.0976 -0.1211
 9926TIP3    H151269   4.114   3.078   2.968 -0.8339 -1.3932 -1.5124
 9926TIP3    H251270   4.170   2.940   2.995  0.8101 -0.3599  0.7629
 9927TIP3   OH251271   3.778   2.654   2.559 -0.7576  0.2542 -0.5745
 9927TIP3    H151272   3.744   2.587   2.500 -0.1203  0.3634 -1.0733
 9927TIP3    H251273   3.861   2.618   2.591  0.5720  1.5634 -2.3260
 9928TIP3   OH251274   4.109   6.581  14.775 -0.4629  0.5341  0.0417
 9928TIP3    H151275   4.146   6.599  14.689  2.4327 -0.5260  0.9277
 9928TIP3    H251276   4.025   6.539  14.757 -0.7688  1.9480 -2.1936
 9929TIP3   OH251277   6.770   1.598  15.195 -0.4056  0.2233 -0.3699
 9929TIP3    H151278   6.824   1.568  15.122  0.3603  1.3409 -0.2849
 9929TIP3    H251279   6.716   1.523  15.217  0.3980 -0.6006 -1.1249
 9930TIP3   OH251280   3.324   3.513   3.913  0.5021  0.6416  0.0141
 9930TIP3    H151281   3.389   3.528   3.844  1.6780 -1.2096  0.6264
 9930TIP3    H251282   3.368   3.454   3.975 -2.0592 -1.4701  0.0079
 9931TIP3   OH251283   3.080   1.205  11.684 -0.3048  0.4908 -0.1706
 9931TIP3    H151284   3.163   1.249  11.702 -1.8837  2.8831  2.0052
 9931TIP3    H251285   3.084   1.124  11.735  1.1577 -0.1356 -1.2014
 9932TIP3   OH251286   5.433   3.290  13.285  0.0550 -0.1723 -0.1492
 9932TIP3    H151287   5.344   3.316  13.261 -0.1074 -1.2636 -0.7697
 9932TIP3    H251288   5.421   3.227  13.356  0.4530  1.4840  1.4538
 9933TIP3   OH251289   5.855   4.892   5.426 -0.2202  0.8111  0.9640
 9933TIP3    H151290   5.869   4.816   5.484 -1.1735 -1.5457 -1.6490
 9933TIP3    H251291   5.767   4.879   5.392  0.6773  1.4464 -1.7899
 9934TIP3   OH251292   4.642   6.384   6.208  0.7466  0.4046 -0.0179
 9934TIP3    H151293   4.563   6.329   6.214  2.2405 -1.9275 -0.5050
 9934TIP3    H251294   4.652   6.422   6.295 -0.6634  0.3904  0.1724
 9935TIP3   OH251295   6.248   0.820  15.644 -0.8908  0.8514 -0.2560
 9935TIP3    H151296   6.243   0.733  15.684 -3.9551  1.8180  1.9009
 9935TIP3    H251297   6.327   0.858  15.681  0.4500 -0.9026 -1.1573
 9936TIP3   OH251298   1.678   0.867  14.753  0.4534  0.5127  0.0450
 9936TIP3    H151299   1.750   0.925  14.777  2.5774 -1.2741 -1.6505
 9936TIP3    H251300   1.670   0.807  14.827 -0.4732  1.7094  0.9589
 9937TIP3   OH251301   3.208   0.009  15.037  0.0741  0.5901  0.6592
 9937TIP3    H151302   3.167  -0.077  15.042  1.6686 -0.1972  0.5484
 9937TIP3    H251303   3.283   0.004  15.096  0.8202  1.5352 -0.1767
 9938TIP3   OH251304   5.740   0.789  15.486 -0.0132  0.7323 -0.2130
 9938TIP3    H151305   5.695   0.752  15.411  0.4269  1.5206 -0.8907
 9938TIP3    H251306   5.789   0.864  15.450  1.3097  0.2988  0.6029
 9939TIP3   OH251307   0.751   5.399   3.594  0.1686 -0.0919 -0.3221
 9939TIP3    H151308   0.818   5.431   3.654  0.0965 -1.0576  0.3054
 9939TIP3    H251309   0.750   5.462   3.523  0.2882  1.0650  0.6736
 9940TIP3   OH251310   5.527   6.238   0.254  0.3373  0.2055 -0.3698
 9940TIP3    H151311   5.452   6.244   0.194 -0.1631  0.1056  0.2322
 9940TIP3    H251312   5.518   6.315   0.311 -0.9241 -1.2455  1.5114
 9941TIP3   OH251313   2.247   4.279  11.181  0.5479 -0.1326  0.1339
 9941TIP3    H151314   2.321   4.295  11.240 -0.6863  1.4203  1.3369
 9941TIP3    H251315   2.170   4.278  11.238 -0.6049  0.4224 -1.3406
 9942TIP3   OH251316   0.971   5.706  17.141 -0.5577 -0.6461  0.0529
 9942TIP3    H151317   0.903   5.767  17.114 -1.7475 -1.8688  0.2380
 9942TIP3    H251318   1.008   5.673  17.059  0.3539  0.5675 -0.0535
 9943TIP3   OH251319   3.768   3.970   1.019  0.5888 -0.5406  0.0163
 9943TIP3    H151320   3.713   3.975   1.097  0.2418  2.0264 -0.2986
 9943TIP3    H251321   3.832   4.041   1.030  1.2414 -0.8584 -1.5017
 9944TIP3   OH251322   3.732   5.659  11.637  0.3715  0.1559 -0.0909
 9944TIP3    H151323   3.744   5.753  11.649 -3.1865  0.6926  0.3785
 9944TIP3    H251324   3.728   5.647  11.543  1.4064  0.3227 -0.1736
 9945TIP3   OH251325   6.626   6.664  15.729  0.4185 -0.5229 -0.0779
 9945TIP3    H151326   6.553   6.723  15.750  0.5221 -0.0355 -1.0377
 9945TIP3    H251327   6.584   6.583  15.701  0.2543 -0.4986  0.0968
 9946TIP3   OH251328   0.582   3.973   1.585 -0.2341 -0.3449  0.4017
 9946TIP3    H151329   0.617   3.987   1.497 -0.2289 -0.5280  0.3741
 9946TIP3    H251330   0.494   3.940   1.570 -0.4212  0.1106  0.4704
 9947TIP3   OH251331   0.590   4.626   0.859 -0.4053 -0.4407 -0.1970
 9947TIP3    H151332   0.541   4.591   0.784 -2.3028 -1.3829  1.3993
 9947TIP3    H251333   0.560   4.573   0.933 -0.6044  2.1873  1.7013
 9948TIP3   OH251334   6.269   5.743   3.070 -0.0770  0.0727  0.3477
 9948TIP3    H151335   6.314   5.659   3.064  1.9256  1.1057  0.2945
 9948TIP3    H251336   6.295   5.779   3.154 -0.3926  0.9280  0.0915
 9949TIP3   OH251337   3.316   6.150  13.663 -0.0669 -0.3219  0.1669
 9949TIP3    H151338   3.316   6.223  13.601 -0.3438 -1.5187 -1.3147
 9949TIP3    H251339   3.354   6.186  13.743  0.7996  1.1474 -0.8658
 9950TIP3   OH251340   2.616   4.789  15.893  0.2520 -0.5477 -0.0346
 9950TIP3    H151341   2.525   4.807  15.869  0.3743 -1.0527 -0.9201
 9950TIP3    H251342   2.634   4.848  15.966 -0.4334  0.3862 -0.6006
 9951TIP3   OH251343   4.207   3.103  14.705 -0.5730  0.3444  0.2647
 9951TIP3    H151344   4.152   3.129  14.631 -2.2057 -2.1756  0.4882
 9951TIP3    H251345   4.286   3.066  14.665 -1.1507 -0.3940 -0.2067
 9952TIP3   OH251346   5.791   5.041  13.739 -0.1129 -0.5431  0.3799
 9952TIP3    H151347   5.862   5.000  13.690  0.3913  1.4124 -0.6130
 9952TIP3    H251348   5.739   5.086  13.673  0.9398  2.7229  1.5403
 9953TIP3   OH251349   4.295   4.442  11.609  0.3838 -0.1541  0.0169
 9953TIP3    H151350   4.360   4.512  11.613  0.4378  0.0589 -2.8165
 9953TIP3    H251351   4.339   4.371  11.564 -0.4500 -1.1101  0.6717
 9954TIP3   OH251352   4.242   2.299   6.252 -0.5308  0.2145 -0.3776
 9954TIP3    H151353   4.199   2.218   6.280  1.1323 -0.6528 -0.2164
 9954TIP3    H251354   4.178   2.368   6.270 -2.5545 -1.1760 -1.8370
 9955TIP3   OH251355   2.573   2.582  13.096 -0.0483  0.1792 -0.0501
 9955TIP3    H151356   2.569   2.632  13.014 -2.3289  1.2644  0.6363
 9955TIP3    H251357   2.533   2.498  13.074  0.2552  0.0970 -0.2925
 9956TIP3   OH251358   2.859   1.862  12.510 -0.4714  0.7145 -0.0970
 9956TIP3    H151359   2.884   1.776  12.476 -0.7337  0.2279  0.9190
 9956TIP3    H251360   2.769   1.875  12.479 -1.0202 -0.1051  1.0807
 9957TIP3   OH251361   2.492   0.018  11.117 -0.1104  0.3342  1.1363
 9957TIP3    H151362   2.501   0.088  11.052 -1.1315  1.2370  1.9405
 9957TIP3    H251363   2.575  -0.030  11.111 -1.4076 -1.9325 -3.3838
 9958TIP3   OH251364   0.052   4.268   6.680  0.0900  0.6428 -0.0768
 9958TIP3    H151365   0.046   4.240   6.589 -0.8368 -0.3481  0.2643
 9958TIP3    H251366  -0.007   4.343   6.686 -0.4557  0.2231 -0.1240
 9959TIP3   OH251367   4.125   4.545  14.264 -0.0310 -0.0585 -0.0393
 9959TIP3    H151368   4.064   4.472  14.277 -0.9674  1.0407  2.2044
 9959TIP3    H251369   4.176   4.548  14.346  0.9322  0.9642 -0.6571
 9960TIP3   OH251370   4.087   1.449   2.767  0.1560 -0.7871 -0.3960
 9960TIP3    H151371   4.175   1.443   2.805 -0.5996  1.1534  1.8464
 9960TIP3    H251372   4.031   1.479   2.839 -1.6449  1.8812 -2.6914
 9961TIP3   OH251373   6.356   1.652   5.008  0.4892 -0.1050  0.1225
 9961TIP3    H151374   6.411   1.577   5.029 -1.1998 -0.9182  1.9953
 9961TIP3    H251375   6.355   1.705   5.088  1.5843  1.9564 -1.1268
 9962TIP3   OH251376   2.691   0.942  17.177 -0.0821  0.4890 -0.1484
 9962TIP3    H151377   2.632   1.017  17.171 -1.9345 -0.8882  0.0376
 9962TIP3    H251378   2.720   0.942  17.269  1.1834  1.8017 -0.4892
 9963TIP3   OH251379   5.882   5.019   5.091 -0.0969  0.3832  0.0587
 9963TIP3    H151380   5.832   5.084   5.140  0.3889  0.7423  0.0889
 9963TIP3    H251381   5.824   4.943   5.086 -0.5825  0.7366  0.2200
 9964TIP3   OH251382   4.740   6.642   3.228 -0.2717 -0.0515  0.1646
 9964TIP3    H151383   4.659   6.612   3.188 -0.0268  1.3710 -1.5613
 9964TIP3    H251384   4.789   6.680   3.155  1.2892  0.4649  1.4366
 9965TIP3   OH251385   4.074   1.896   1.853  0.0007 -0.1565  0.2885
 9965TIP3    H151386   4.117   1.811   1.845 -0.1720 -0.2689  0.5441
 9965TIP3    H251387   4.092   1.940   1.770  0.6238 -0.1989  0.3948
 9966TIP3   OH251388   5.980   4.398   1.784  0.0170  0.1463 -0.3542
 9966TIP3    H151389   6.014   4.468   1.841 -1.1414  0.8910 -0.5331
 9966TIP3    H251390   6.039   4.398   1.708  1.3158 -0.5574  0.6150
 9967TIP3   OH251391   3.505   2.792   0.857 -0.0375 -0.0959 -0.1729
 9967TIP3    H151392   3.490   2.725   0.789  0.0636  0.5537 -0.8470
 9967TIP3    H251393   3.577   2.757   0.909 -0.2552 -0.7040 -0.2702
 9968TIP3   OH251394   5.099   6.079   5.196  0.2111 -0.4740 -0.1115
 9968TIP3    H151395   5.026   6.028   5.160 -0.0053 -0.8855  0.8649
 9968TIP3    H251396   5.175   6.023   5.186 -0.5365 -2.6062  4.0047
 9969TIP3   OH251397   1.223   1.607  13.835  0.1904  0.6360  0.0563
 9969TIP3    H151398   1.257   1.552  13.905  2.8943  0.9031 -0.9522
 9969TIP3    H251399   1.191   1.546  13.769  0.1583  0.3481  0.3369
 9970TIP3   OH251400   3.409   0.033  16.047 -0.3786 -0.4565  0.3902
 9970TIP3    H151401   3.501   0.045  16.021 -1.0570  0.5423 -1.8671
 9970TIP3    H251402   3.381  -0.045  15.999 -0.7414 -0.6901  0.9796
 9971TIP3   OH251403   0.641   5.201  13.380  0.2152 -0.0149 -0.2219
 9971TIP3    H151404   0.612   5.153  13.303 -1.3109  1.0426 -0.3571
 9971TIP3    H251405   0.564   5.204  13.437  1.2230 -0.5045  1.2320
 9972TIP3   OH251406   2.965   4.272  16.840  0.4494  0.4169  0.0614
 9972TIP3    H151407   2.968   4.361  16.876 -1.3479  0.7872 -0.5893
 9972TIP3    H251408   2.916   4.221  16.905  1.6333 -0.1738  0.5197
 9973TIP3   OH251409   4.303   2.172  10.955  0.5748  0.0662 -0.6645
 9973TIP3    H151410   4.378   2.230  10.939  1.1203 -0.6275 -0.7124
 9973TIP3    H251411   4.339   2.103  11.012 -0.6618  1.0806  1.4492
 9974TIP3   OH251412   3.693   1.531   2.784  0.0008 -0.0102 -0.0902
 9974TIP3    H151413   3.635   1.502   2.714 -0.8243 -0.6092  0.8052
 9974TIP3    H251414   3.746   1.453   2.804 -0.4250 -0.1463  0.5670
 9975TIP3   OH251415   1.469   3.613  11.789  0.2492 -0.4168 -0.3448
 9975TIP3    H151416   1.429   3.692  11.827  0.2927 -1.1327  1.2963
 9975TIP3    H251417   1.521   3.576  11.861  0.2301 -1.9286 -1.0713
 9976TIP3   OH251418   4.757   5.125  16.728  0.0352  0.4622 -0.3535
 9976TIP3    H151419   4.665   5.108  16.748  0.0180  1.2115  0.2700
 9976TIP3    H251420   4.804   5.093  16.805  0.1574  1.3998 -0.0206
 9977TIP3   OH251421   6.752   1.417   1.276 -0.2403 -0.4287 -0.3367
 9977TIP3    H151422   6.696   1.485   1.313  0.0183 -0.7160  0.6236
 9977TIP3    H251423   6.813   1.463   1.219 -0.8243  0.0021 -0.6209
 9978TIP3   OH251424   5.729   1.109  14.227 -0.1101  0.0577 -0.1843
 9978TIP3    H151425   5.791   1.136  14.160 -1.3558 -0.4468 -1.5832
 9978TIP3    H251426   5.773   1.129  14.310  3.0247 -2.6904 -1.0034
 9979TIP3   OH251427   1.080   3.009   2.642 -0.1907 -0.1793  0.2844
 9979TIP3    H151428   1.134   3.015   2.721  0.5376  1.3231 -0.2836
 9979TIP3    H251429   1.142   2.985   2.572 -0.4361  0.5330 -0.1886
 9980TIP3   OH251430   6.268   2.284   3.356  0.3708  0.7310  0.0143
 9980TIP3    H151431   6.337   2.217   3.351 -1.2126 -0.8986 -1.0022
 9980TIP3    H251432   6.316   2.367   3.353  2.3465 -0.3244  0.3932
 9981TIP3   OH251433   2.873   6.360  15.381  0.2083 -0.4393 -0.3599
 9981TIP3    H151434   2.779   6.377  15.388  0.2531  0.1684 -1.2058
 9981TIP3    H251435   2.903   6.358  15.472 -0.6322 -0.7180 -0.0786
 9982TIP3   OH251436   1.453   4.537   6.146 -0.1320 -0.0606 -0.2900
 9982TIP3    H151437   1.369   4.532   6.192 -0.0521  0.1152 -0.1237
 9982TIP3    H251438   1.467   4.449   6.112  0.1097 -0.3661  0.5657
 9983TIP3   OH251439   0.941   0.298  10.659 -0.2960  0.4922 -0.3100
 9983TIP3    H151440   0.976   0.275  10.745 -0.6184  2.4775  0.4020
 9983TIP3    H251441   0.896   0.219  10.629 -0.2764 -0.1924  1.3942
 9984TIP3   OH251442   5.437   5.635  11.090  0.4089 -0.5381  0.1692
 9984TIP3    H151443   5.435   5.587  11.007 -0.9160  0.7192 -0.5795
 9984TIP3    H251444   5.514   5.691  11.084  0.2714 -0.3922 -0.2562
 9985TIP3   OH251445   5.492   3.228  15.061 -0.4647 -0.5503 -0.0163
 9985TIP3    H151446   5.419   3.290  15.057 -0.4851 -0.4730  1.1696
 9985TIP3    H251447   5.533   3.246  15.146 -1.0629 -2.8001  0.8193
 9986TIP3   OH251448   6.349   3.628  15.394  0.0876  0.5723  0.0695
 9986TIP3    H151449   6.401   3.700  15.357 -0.5648  1.6013  1.1108
 9986TIP3    H251450   6.292   3.601  15.322  1.9787 -0.5731 -1.1056
 9987TIP3   OH251451   5.041   5.101  11.595  0.1368  0.2852  0.2319
 9987TIP3    H151452   5.076   5.079  11.682 -0.3629  0.8760  0.5915
 9987TIP3    H251453   5.069   5.029  11.539  0.8119  0.0973  0.7963
 9988TIP3   OH251454   5.407   0.489  12.664 -0.0474  0.3403 -0.1982
 9988TIP3    H151455   5.313   0.477  12.657 -0.0047 -0.4559  0.4400
 9988TIP3    H251456   5.445   0.426  12.603  0.0971 -0.2131  0.4561
 9989TIP3   OH251457   5.247   6.054  11.545  0.4382 -0.1301  0.0591
 9989TIP3    H151458   5.260   6.037  11.638  0.5158 -0.5112 -0.0184
 9989TIP3    H251459   5.313   6.000  11.501  0.3185 -0.0507 -0.2210
 9990TIP3   OH251460   3.976   4.758  16.228  0.1611 -0.9890  0.5001
 9990TIP3    H151461   3.953   4.679  16.277  0.6768 -0.1494  2.1877
 9990TIP3    H251462   4.017   4.815  16.293 -1.0805  1.0777 -0.4187
 9991TIP3   OH251463   5.604   2.505   2.717  0.5217  0.1466  1.1382
 9991TIP3    H151464   5.657   2.455   2.655  1.0057 -0.0118  1.6719
 9991TIP3    H251465   5.518   2.463   2.715  0.9171 -0.7022  1.5685
 9992TIP3   OH251466   6.277   5.161  17.024 -0.0437  0.5109  0.5934
 9992TIP3    H151467   6.265   5.138  16.931  0.2435 -1.2768  0.9535
 9992TIP3    H251468   6.310   5.251  17.022 -0.5248  0.6917 -1.0156
 9993TIP3   OH251469   3.721   6.307   3.723 -0.1026  0.0535  0.4355
 9993TIP3    H151470   3.657   6.322   3.653  0.8073 -2.5288 -1.1007
 9993TIP3    H251471   3.687   6.357   3.797 -1.5129  2.3301 -1.5791
 9994TIP3   OH251472   4.793   3.360  17.197 -0.2326  0.0845 -0.0528
 9994TIP3    H151473   4.701   3.340  17.186 -0.1386 -1.1991  1.2207
 9994TIP3    H251474   4.839   3.280  17.171  0.5827  0.9221 -1.3031
 9995TIP3   OH251475   0.355   5.176  16.436  0.1621  0.5909 -0.5813
 9995TIP3    H151476   0.404   5.212  16.509  0.3805  0.2332 -0.5495
 9995TIP3    H251477   0.418   5.172  16.363  0.4182 -0.5987 -0.3231
 9996TIP3   OH251478   4.317   5.545   0.295  0.3397  0.3792 -0.7700
 9996TIP3    H151479   4.278   5.594   0.367 -0.0035  0.1049 -0.7665
 9996TIP3    H251480   4.351   5.612   0.235  0.2246  0.6118 -0.5764
 9997TIP3   OH251481   2.385   2.909   2.879 -0.1888  0.0457  0.2269
 9997TIP3    H151482   2.375   2.983   2.819 -0.0592 -1.6920 -2.0816
 9997TIP3    H251483   2.299   2.867   2.880  0.8849 -2.7205 -2.8132
 9998TIP3   OH251484   6.811   0.604  15.808 -0.2997 -0.0121  0.3086
 9998TIP3    H151485   6.740   0.631  15.751  0.6003  2.4873  0.2693
 9998TIP3    H251486   6.771   0.541  15.868 -2.1028  0.0311 -0.7910
 9999TIP3   OH251487   1.295   6.295   2.277 -0.4656  0.0657 -0.1928
 9999TIP3    H151488   1.332   6.383   2.276 -1.8681  0.6668  0.1078
 9999TIP3    H251489   1.327   6.255   2.196  2.7099 -0.2692  1.0574
10000TIP3   OH251490   4.647   5.622   5.547 -0.6498 -0.3436  0.1380
10000TIP3    H151491   4.734   5.590   5.527 -0.2685 -0.6906  2.1555
10000TIP3    H251492   4.589   5.574   5.488  0.2798 -1.9941  0.5240
10001TIP3   OH251493   3.057   5.176   3.757  0.2043  0.0783  0.6147
10001TIP3    H151494   3.125   5.214   3.702  0.3369  0.0579  0.7641
10001TIP3    H251495   2.975   5.196   3.711  0.3859 -0.9305 -0.1962
10002TIP3   OH251496   5.135   4.481  15.439 -0.1289 -0.0772  0.1319
10002TIP3    H151497   5.218   4.500  15.483 -0.0517 -0.7948  0.3114
10002TIP3    H251498   5.073   4.468  15.511 -0.3474  0.2317  0.0017
10003TIP3   OH251499   6.046   3.069  14.001 -0.3338 -0.6303 -0.0303
10003TIP3    H151500   6.009   3.157  14.003  1.6559  0.2541  0.5149
10003TIP3    H251501   5.984   3.018  13.949 -2.0383  0.8315  0.4699
10004TIP3   OH251502   2.537   4.360   6.343 -0.3373  0.1488  0.4714
10004TIP3    H151503   2.461   4.407   6.378 -0.7989 -0.3807  0.2098
10004TIP3    H251504   2.538   4.382   6.250 -0.3788 -0.1170  0.4066
10005TIP3   OH251505   0.090   3.654  14.524  0.2641  0.0531 -0.0031
10005TIP3    H151506   0.065   3.747  14.530 -1.8004 -0.5536  2.5720
10005TIP3    H251507   0.162   3.644  14.586  0.3424 -0.1243 -0.1218
10006TIP3   OH251508   4.689   6.304  10.847 -0.0424 -0.6269  0.2302
10006TIP3    H151509   4.675   6.386  10.800 -1.4994 -0.3223  1.1398
10006TIP3    H251510   4.705   6.239  10.779  2.0903  0.5424 -0.4693
10007TIP3   OH251511   1.938   1.878  13.229  0.2784 -0.3775  0.1609
10007TIP3    H151512   1.942   1.884  13.133 -0.1200  1.0478  0.2035
10007TIP3    H251513   1.871   1.813  13.246 -1.4505  1.1054 -0.5768
10008TIP3   OH251514   4.287   4.020   5.772  0.2930  0.2379 -0.1056
10008TIP3    H151515   4.211   4.076   5.758  0.4133  0.1098 -1.3627
10008TIP3    H251516   4.339   4.065   5.838 -0.7531  0.4428  0.5969
10009TIP3   OH251517   4.337   1.334   2.870 -0.2144 -0.2614  0.3681
10009TIP3    H151518   4.345   1.346   2.964  1.3665 -0.3969  0.2766
10009TIP3    H251519   4.314   1.241   2.860  0.3707 -0.4330  0.5940
10010TIP3   OH251520   4.049   1.553   4.522 -0.3438  0.0789  0.2642
10010TIP3    H151521   4.012   1.633   4.561  0.4194  1.5060 -1.7925
10010TIP3    H251522   4.143   1.565   4.528 -0.2068 -1.1114  0.7231
10011TIP3   OH251523   0.738   5.018  14.850  0.4322 -0.5483 -0.2563
10011TIP3    H151524   0.784   5.086  14.800 -0.4469 -0.1518 -0.5567
10011TIP3    H251525   0.668   4.989  14.791 -0.7777  0.0962  0.8139
10012TIP3   OH251526   5.510   3.208   1.266 -0.1871 -0.5749 -0.1571
10012TIP3    H151527   5.483   3.160   1.188  0.6701  0.1716 -0.9362
10012TIP3    H251528   5.540   3.141   1.327 -2.2078 -1.2909  0.1291
10013TIP3   OH251529   3.443   4.424  15.967 -0.3109  0.0203 -0.2158
10013TIP3    H151530   3.533   4.399  15.946 -0.3648  1.7833 -3.0492
10013TIP3    H251531   3.393   4.402  15.888 -2.6018 -1.5576  1.5235
10014TIP3   OH251532   5.998   0.156  13.128 -0.4500 -0.5123  0.5822
10014TIP3    H151533   6.071   0.217  13.134 -0.8777 -0.0747  1.5354
10014TIP3    H251534   5.940   0.181  13.199 -0.3699 -2.3918  1.3528
10015TIP3   OH251535   5.469   3.594   4.438 -0.1469 -0.5036  0.2906
10015TIP3    H151536   5.478   3.503   4.411  1.0542 -0.2102 -0.4213
10015TIP3    H251537   5.429   3.638   4.363 -1.5831 -0.5825  0.9730
10016TIP3   OH251538   2.317   0.098   0.049  0.7177 -0.4752 -0.5433
10016TIP3    H151539   2.324   0.165   0.118 -2.7741 -0.3641 -0.1231
10016TIP3    H251540   2.297   0.017   0.096  1.8732 -1.1937 -1.2503
10017TIP3   OH251541   6.668   3.546   4.304  0.6786 -0.1838  0.2826
10017TIP3    H151542   6.762   3.529   4.315  0.5988 -0.3330  0.7373
10017TIP3    H251543   6.651   3.525   4.212  1.1847  0.2789  0.0750
10018TIP3   OH251544   6.181   5.103  14.206 -0.0041 -0.1195 -0.2179
10018TIP3    H151545   6.127   5.164  14.257  1.4650  1.5835 -0.5572
10018TIP3    H251546   6.120   5.040  14.169 -1.5895  1.0236  0.3671
10019TIP3   OH251547   1.981   1.133   5.273 -0.4053 -0.2616  0.2313
10019TIP3    H151548   2.001   1.227   5.280 -1.5409 -0.0102  0.2172
10019TIP3    H251549   2.032   1.093   5.343 -1.9772  0.7032  2.0138
10020TIP3   OH251550   4.253   0.017   1.608  0.0912  0.3173  0.7047
10020TIP3    H151551   4.251   0.112   1.622 -2.4882  0.8685 -2.2726
10020TIP3    H251552   4.336   0.001   1.564  0.3129  1.3012  0.7313
10021TIP3   OH251553   4.174   1.620   3.912  0.7550 -0.1428  0.6028
10021TIP3    H151554   4.250   1.662   3.953  1.6319  0.7671 -1.7972
10021TIP3    H251555   4.141   1.685   3.850 -0.9828 -1.1621  0.3951
10022TIP3   OH251556   4.922   3.768  16.164  0.0322 -0.2173  0.3246
10022TIP3    H151557   4.846   3.740  16.215 -0.4978  1.2814  0.4048
10022TIP3    H251558   4.996   3.762  16.224 -0.1545 -0.8477  0.5011
10023TIP3   OH251559   5.817   5.550   0.624  0.0709  0.0503  0.5266
10023TIP3    H151560   5.812   5.454   0.631 -0.8083  0.1182  1.0398
10023TIP3    H251561   5.787   5.582   0.709  0.2384  0.7853  0.3137
10024TIP3   OH251562   2.659   4.929   3.559 -1.0103 -0.3096  0.4667
10024TIP3    H151563   2.672   4.844   3.518 -2.0406  0.3107 -1.2684
10024TIP3    H251564   2.704   4.991   3.501 -0.2303  0.3483  1.7222
10025TIP3   OH251565   0.436   5.714   2.598 -0.2129 -0.2514  0.2355
10025TIP3    H151566   0.484   5.797   2.589 -0.9488 -0.0094 -2.8292
10025TIP3    H251567   0.481   5.668   2.668  1.9091  1.6421  0.2543
10026TIP3   OH251568   0.929   3.600   5.934  0.2300  0.0423 -0.4157
10026TIP3    H151569   1.012   3.555   5.948 -0.9068 -2.0365  0.0698
10026TIP3    H251570   0.918   3.602   5.839  0.3343 -0.6497 -0.4427
10027TIP3   OH251571   5.338   3.049  13.390  0.3736  0.1192 -0.8079
10027TIP3    H151572   5.258   3.044  13.443  0.2057  0.2767 -1.0437
10027TIP3    H251573   5.397   2.986  13.431  0.7314  1.1693  0.3663
10028TIP3   OH251574   4.487   4.593   4.009 -0.0826  0.1188  0.2882
10028TIP3    H151575   4.438   4.598   4.091  0.0742 -1.1064  0.4761
10028TIP3    H251576   4.565   4.542   4.031  1.1169  1.7182 -0.0955
10029TIP3   OH251577   3.997   6.496   3.909  0.0751  0.1285 -0.2350
10029TIP3    H151578   3.924   6.558   3.903 -1.7107 -1.8683 -0.1568
10029TIP3    H251579   4.039   6.502   3.823 -0.8809  0.4894 -0.6978
10030TIP3   OH251580   2.929   6.620  12.518 -0.1814 -0.1595  0.1376
10030TIP3    H151581   2.906   6.700  12.565  1.2698 -0.2217  1.0241
10030TIP3    H251582   2.943   6.555  12.586  2.4529 -0.1235 -0.2471
10031TIP3   OH251583   3.461   5.257  12.620 -0.7642 -0.3398  0.2659
10031TIP3    H151584   3.471   5.200  12.544  2.4266 -0.4718  0.6641
10031TIP3    H251585   3.466   5.199  12.695  0.9803  0.2232  0.6349
10032TIP3   OH251586   2.577   4.937   5.872  0.2261  0.1447  0.3716
10032TIP3    H151587   2.599   4.857   5.918 -0.5819  0.0608  0.6240
10032TIP3    H251588   2.632   5.004   5.914 -1.3569  0.3076  2.3240
10033TIP3   OH251589   2.484   4.196   1.716 -0.3938 -0.4783  0.4348
10033TIP3    H151590   2.412   4.256   1.701 -0.9627 -1.4592 -0.9138
10033TIP3    H251591   2.493   4.192   1.811 -0.9142  1.0268  0.5707
10034TIP3   OH251592   1.047   6.419  15.035  0.2997  0.1939  0.2783
10034TIP3    H151593   0.971   6.406  14.979  0.8530 -0.3346 -0.3778
10034TIP3    H251594   1.019   6.481  15.102 -0.2706  1.1038 -0.7907
10035TIP3   OH251595   6.168   4.116  12.120  0.1872 -0.5473 -0.5992
10035TIP3    H151596   6.182   4.128  12.214 -0.4028 -0.7766 -0.4735
10035TIP3    H251597   6.073   4.123  12.110  0.2647 -0.3535 -1.2044
10036TIP3   OH251598   6.748   0.709   4.217  0.6785  0.4694  0.7936
10036TIP3    H151599   6.778   0.671   4.299 -3.0873 -1.7092  1.3848
10036TIP3    H251600   6.794   0.659   4.149  3.0477  1.6090  1.4594
10037TIP3   OH251601   1.457   1.084  12.710  0.5928 -0.4767 -0.2468
10037TIP3    H151602   1.478   1.161  12.656 -0.2397 -0.4747 -0.5822
10037TIP3    H251603   1.404   1.028  12.652 -1.7637  0.2760  1.0660
10038TIP3   OH251604   3.682   1.122   2.098 -0.3030 -0.1223  0.7509
10038TIP3    H151605   3.628   1.067   2.154 -2.0766  1.8284  1.0700
10038TIP3    H251606   3.715   1.190   2.156 -0.8292  0.9904 -0.2135
10039TIP3   OH251607   4.026   2.226  17.064 -0.3152 -0.8442  0.1458
10039TIP3    H151608   4.045   2.235  16.971  0.6183  0.6623  0.4448
10039TIP3    H251609   4.109   2.244  17.108 -0.6829 -1.7441  1.2859
10040TIP3   OH251610   4.149   0.360   0.830  0.2444 -0.2146 -0.1883
10040TIP3    H151611   4.082   0.314   0.880  0.3406 -0.2482 -0.0900
10040TIP3    H251612   4.229   0.309   0.845  0.0946 -0.7410 -1.0862
10041TIP3   OH251613   1.740   6.252   3.946 -0.9051  0.3357  0.1177
10041TIP3    H151614   1.696   6.273   4.029  2.5651  1.4931  1.8603
10041TIP3    H251615   1.764   6.160   3.955  0.4820  0.7503  1.0082
10042TIP3   OH251616   6.386   0.331   2.563  0.1456  0.0288  0.6803
10042TIP3    H151617   6.417   0.246   2.533 -0.8024  0.0475 -0.4402
10042TIP3    H251618   6.293   0.317   2.584  0.4022  0.3971  2.1707
10043TIP3   OH251619   2.421   2.799  15.470 -0.3857 -0.7023 -0.1914
10043TIP3    H151620   2.416   2.739  15.544  1.4975  0.2447  0.7776
10043TIP3    H251621   2.502   2.848  15.484 -1.5139  1.6162 -1.2899
10044TIP3   OH251622   4.246   0.620  16.129 -0.5572 -0.3047 -0.0472
10044TIP3    H151623   4.233   0.531  16.163 -0.0240 -0.1536  0.5698
10044TIP3    H251624   4.282   0.669  16.203 -1.7487  0.6809 -0.0851
10045TIP3   OH251625   6.255   6.817  13.198  0.1649 -0.0959 -0.0931
10045TIP3    H151626   6.246   6.732  13.157 -0.7610  0.6609 -1.5540
10045TIP3    H251627   6.174   6.863  13.174  0.3723  0.9776  1.1705
10046TIP3   OH251628   6.012   0.222   1.833  0.0979  1.0063  0.0206
10046TIP3    H151629   6.091   0.181   1.798 -1.9701 -0.1945 -3.7710
10046TIP3    H251630   5.971   0.154   1.887  0.2283  0.5907 -0.4009
10047TIP3   OH251631   2.796   4.373   6.475  0.1637  0.2423 -0.4640
10047TIP3    H151632   2.843   4.300   6.435 -0.6963 -0.4366 -0.2648
10047TIP3    H251633   2.712   4.375   6.429  1.1815  2.9048 -2.4733
10048TIP3   OH251634   5.466   4.211   6.121  0.0783  0.0952 -0.3766
10048TIP3    H151635   5.522   4.243   6.050 -1.5201  0.1664 -1.6623
10048TIP3    H251636   5.485   4.117   6.125 -0.7462 -0.1559 -1.8142
10049TIP3   OH251637   6.122   0.456   2.823 -0.2706  0.2273 -0.0979
10049TIP3    H151638   6.102   0.483   2.913  0.9874  2.3698 -0.3888
10049TIP3    H251639   6.047   0.487   2.771 -0.1114  0.7141 -0.0413
10050TIP3   OH251640   0.239   2.228   4.078  0.5580 -0.2149  0.2892
10050TIP3    H151641   0.246   2.141   4.040  0.1044 -0.3655  0.5506
10050TIP3    H251642   0.203   2.214   4.166 -0.0638  0.2808  0.1238
10051TIP3   OH251643   2.648   6.132  15.282  0.3491 -0.0164 -0.3073
10051TIP3    H151644   2.576   6.107  15.224  1.3584 -0.8336 -1.2517
10051TIP3    H251645   2.625   6.093  15.367 -0.1914 -0.4905 -0.6627
10052TIP3   OH251646   5.737   2.521  17.046 -0.1036 -0.2029  0.2101
10052TIP3    H151647   5.805   2.587  17.035 -0.0940 -0.1651  0.5006
10052TIP3    H251648   5.783   2.445  17.081 -0.2196 -0.1573  0.4628
10053TIP3   OH251649   1.816   0.569  13.059  0.2616  0.2484 -0.0924
10053TIP3    H151650   1.764   0.584  13.138 -0.1471 -0.1044 -0.2907
10053TIP3    H251651   1.891   0.517  13.089 -1.0249 -1.8305 -0.2761
10054TIP3   OH251652   1.113   4.843   1.318  0.1369 -0.2684  0.4595
10054TIP3    H151653   1.160   4.785   1.258 -0.8939  0.7920 -1.4605
10054TIP3    H251654   1.040   4.789   1.351  0.6406 -0.8265  0.6765
10055TIP3   OH251655   4.849   0.152  16.970 -0.0730 -0.4120  0.4197
10055TIP3    H151656   4.898   0.124  16.893  0.5303  1.4201  0.0861
10055TIP3    H251657   4.772   0.197  16.934  0.2634  0.5398  0.8563
10056TIP3   OH251658   2.856   5.705  10.340 -0.4600 -0.3787  0.1806
10056TIP3    H151659   2.804   5.686  10.262  1.3656  0.2722 -1.2562
10056TIP3    H251660   2.945   5.679  10.316  0.5777  2.0012  1.1797
10057TIP3   OH251661   1.766   1.948  16.804 -0.4349  0.3028  0.0575
10057TIP3    H151662   1.773   1.889  16.879  0.7924  0.9668  0.4830
10057TIP3    H251663   1.680   1.928  16.766 -0.6527 -0.7306  1.0479
10058TIP3   OH251664   6.444   1.018  12.603 -0.1082  0.2763  0.7417
10058TIP3    H151665   6.498   1.019  12.524 -1.1659 -1.3104 -0.0498
10058TIP3    H251666   6.354   1.009  12.570 -0.4744 -1.7367  2.1459
10059TIP3   OH251667   4.648   4.122  13.927 -0.1173  0.0638  0.5074
10059TIP3    H151668   4.646   4.028  13.910  0.2434  0.1468 -0.0125
10059TIP3    H251669   4.556   4.146  13.939 -0.1983 -0.3760  0.7777
10060TIP3   OH251670   6.804   5.996   1.709 -0.4988  0.2280  0.3590
10060TIP3    H151671   6.755   5.946   1.644 -0.6352  0.8094  0.0089
10060TIP3    H251672   6.836   5.930   1.771  1.2269 -0.5992 -1.2926
10061TIP3   OH251673   5.880   4.859  13.466 -0.7538  0.1733  0.7537
10061TIP3    H151674   5.882   4.941  13.416 -0.3108 -1.3913 -1.9875
10061TIP3    H251675   5.969   4.850  13.500 -0.2889 -0.0052 -0.4605
10062TIP3   OH251676   6.504   4.365  11.416  0.3099 -0.9111  0.2842
10062TIP3    H151677   6.562   4.379  11.491  1.2480 -3.0743  0.0217
10062TIP3    H251678   6.432   4.313  11.451 -1.6896  1.8308  0.6327
10063TIP3   OH251679   4.641   1.971   4.263 -0.6062  0.0050  0.1527
10063TIP3    H151680   4.555   1.953   4.225 -1.1203 -0.9319  1.6548
10063TIP3    H251681   4.703   1.951   4.193 -1.5116 -1.5930 -0.2409
10064TIP3   OH251682   1.929   1.111   4.625 -0.6767 -0.1205 -0.0896
10064TIP3    H151683   1.849   1.088   4.673 -0.3475 -0.5112  0.2828
10064TIP3    H251684   1.950   1.031   4.576 -0.8453  0.1796 -0.6494
10065TIP3   OH251685   2.521   0.666   2.621  0.2012 -0.5360  0.4664
10065TIP3    H151686   2.448   0.612   2.590  0.3940 -1.0408  0.8790
10065TIP3    H251687   2.533   0.640   2.712 -0.9693  1.6083  1.2814
10066TIP3   OH251688   1.345   1.687   4.783 -0.3832 -0.1063 -0.8062
10066TIP3    H151689   1.362   1.774   4.748 -0.2697  0.8085  1.3797
10066TIP3    H251690   1.250   1.679   4.782 -0.4961  0.7926  0.6030
10067TIP3   OH251691   3.873   0.068   3.015  0.4035  0.5041  0.5074
10067TIP3    H151692   3.967   0.082   3.001  0.6531  1.0821  2.4837
10067TIP3    H251693   3.868  -0.014   3.065 -0.0205  1.1664  1.5793
10068TIP3   OH251694   2.241   0.812   4.617 -0.8584 -0.1113 -0.1386
10068TIP3    H151695   2.155   0.851   4.601 -0.5234  1.7760  2.2123
10068TIP3    H251696   2.301   0.861   4.559 -1.1430 -0.5637 -0.8321
10069TIP3   OH251697   5.314   0.120   2.756 -0.2242 -0.0166  0.9126
10069TIP3    H151698   5.331   0.049   2.694  0.6950  1.3630 -0.4786
10069TIP3    H251699   5.254   0.178   2.709  0.3022  0.9354  1.3986
10070TIP3   OH251700   4.167   4.209   3.140 -0.8509 -0.3749 -0.4714
10070TIP3    H151701   4.078   4.232   3.117 -0.5763  0.5083 -0.6769
10070TIP3    H251702   4.192   4.271   3.208  0.1602  0.4931 -1.5717
10071TIP3   OH251703   6.109   2.676  16.239  0.1114  0.1979  0.3181
10071TIP3    H151704   6.019   2.647  16.246 -0.1722  0.9661 -0.0332
10071TIP3    H251705   6.127   2.676  16.145  0.9198 -1.2267  0.4397
10072TIP3   OH251706   6.193   4.486   1.209 -0.2612  0.3343  0.1649
10072TIP3    H151707   6.158   4.575   1.205  0.0856  0.4244 -2.2761
10072TIP3    H251708   6.134   4.435   1.153  1.8041 -0.0885 -1.7620
10073TIP3   OH251709   1.295   6.770   0.669 -0.0549 -0.4106 -0.2564
10073TIP3    H151710   1.364   6.835   0.682 -0.1237 -0.1996 -0.9117
10073TIP3    H251711   1.283   6.731   0.755 -0.3833  0.8204  0.2868
10074TIP3   OH251712   4.301   6.322  17.119  0.0150 -0.6424 -0.5778
10074TIP3    H151713   4.210   6.307  17.093 -0.3173  2.3495 -1.5088
10074TIP3    H251714   4.296   6.385  17.191  1.3275  0.1740 -1.1541
10075TIP3   OH251715   4.931   5.286  12.410  0.0976  0.1808  0.8646
10075TIP3    H151716   4.875   5.214  12.384  0.1877  0.4823 -0.2163
10075TIP3    H251717   4.873   5.362  12.414  0.4149  0.5170 -0.3681
10076TIP3   OH251718   1.509   4.072   3.514  0.8712 -0.0085  0.2580
10076TIP3    H151719   1.443   4.129   3.475  0.1853 -2.1381 -1.8807
10076TIP3    H251720   1.590   4.095   3.469  0.7660 -0.1441 -0.0026
10077TIP3   OH251721   5.566   2.381  16.159 -0.2882  0.4516  0.3934
10077TIP3    H151722   5.559   2.476  16.151  0.5307  0.4859  0.0358
10077TIP3    H251723   5.619   2.367  16.237  2.3144  0.3933 -1.2568
10078TIP3   OH251724   6.514   4.431  15.309 -0.2393 -1.0324  0.0013
10078TIP3    H151725   6.507   4.440  15.215  0.2742 -0.4960  0.0076
10078TIP3    H251726   6.513   4.521  15.343  0.6654 -1.1595  0.4112
10079TIP3   OH251727   1.168   2.055  15.310 -0.0687  0.7537  0.4461
10079TIP3    H151728   1.254   2.092  15.287  0.4340 -1.2354 -1.2621
10079TIP3    H251729   1.106   2.104  15.257  0.0910  1.7279  1.1464
10080TIP3   OH251730   4.299   1.710   6.075 -0.7785  0.4273 -0.2924
10080TIP3    H151731   4.391   1.692   6.093 -0.8253  0.7494  0.2851
10080TIP3    H251732   4.270   1.766   6.147 -1.5670 -0.1040 -0.1695
10081TIP3   OH251733   3.639   5.149  16.810  0.2847  0.3173  0.2868
10081TIP3    H151734   3.624   5.099  16.729  1.2005 -0.5781  0.6575
10081TIP3    H251735   3.552   5.154  16.851 -0.2731  1.1085 -0.9057
10082TIP3   OH251736   5.094   0.283  12.296  0.1497 -0.9104 -0.8452
10082TIP3    H151737   5.123   0.220  12.362 -0.0871 -1.3378 -1.1441
10082TIP3    H251738   5.134   0.366  12.323 -0.0449 -1.0495 -0.0960
10083TIP3   OH251739   4.712   3.574  11.678  0.4408 -0.2953 -0.4299
10083TIP3    H151740   4.795   3.621  11.674 -0.0140  0.5192 -0.3729
10083TIP3    H251741   4.672   3.602  11.761 -0.0072 -0.4748 -0.5801
10084TIP3   OH251742   5.749   3.310  14.988  0.7835  0.6196  0.0163
10084TIP3    H151743   5.678   3.246  14.990  0.3970  1.0358 -0.1246
10084TIP3    H251744   5.822   3.266  15.031  0.3546  0.2917  0.4218
10085TIP3   OH251745   0.727   4.342   5.800  0.4861  0.1268  1.5115
10085TIP3    H151746   0.662   4.285   5.842 -0.5255 -0.0600 -0.2392
10085TIP3    H251747   0.715   4.427   5.843 -2.7873  0.8303 -0.4490
10086TIP3   OH251748   0.520   2.952  16.960  0.6327  0.0515  0.0413
10086TIP3    H151749   0.529   2.944  17.055  1.7292  1.6546  0.1326
10086TIP3    H251750   0.551   2.869  16.925 -0.7049 -0.9199  1.1038
10087TIP3   OH251751   6.634   0.396  11.753  0.0118  0.4682 -0.6666
10087TIP3    H151752   6.569   0.457  11.787  1.5418  1.1851  1.1376
10087TIP3    H251753   6.629   0.405  11.658 -1.8137  1.2144 -0.5246
10088TIP3   OH251754   6.035   4.397   3.680 -0.4424 -0.3253 -0.0043
10088TIP3    H151755   6.078   4.323   3.724  0.2392  0.8878  1.4716
10088TIP3    H251756   6.073   4.398   3.592  2.8373  0.8007  1.2770
10089TIP3   OH251757   0.684   6.252  15.414 -0.1713  0.3278  0.3642
10089TIP3    H151758   0.700   6.323  15.475 -0.3067  0.3593  0.3610
10089TIP3    H251759   0.600   6.215  15.440  0.1513 -0.1724  0.6973
10090TIP3   OH251760   5.649   2.495  15.259  0.2394  0.3158 -0.1155
10090TIP3    H151761   5.638   2.588  15.238 -0.9756 -0.2349 -2.1645
10090TIP3    H251762   5.575   2.474  15.316  1.3513  0.9045  1.6173
10091TIP3   OH251763   4.766   2.107   5.885 -0.2860 -0.1314  0.8112
10091TIP3    H151764   4.716   2.025   5.892  1.1698 -1.2139 -0.5900
10091TIP3    H251765   4.714   2.171   5.932 -3.3085 -1.0347 -1.0017
10092TIP3   OH251766   3.818   4.441  12.362  0.2703 -0.4152  0.1473
10092TIP3    H151767   3.827   4.457  12.456  0.0179 -2.5542  0.5987
10092TIP3    H251768   3.881   4.372  12.343 -2.4017 -2.9197 -0.3380
10093TIP3   OH251769   1.607   1.299  16.040  0.2770  0.0845 -0.2558
10093TIP3    H151770   1.549   1.231  16.074  0.7214 -0.0408  0.2544
10093TIP3    H251771   1.694   1.274  16.070  0.4582  0.8338 -0.1352
10094TIP3   OH251772   4.582   3.826  14.554  0.2572 -0.2988  0.1238
10094TIP3    H151773   4.496   3.848  14.518 -0.8008 -1.9686  1.4445
10094TIP3    H251774   4.600   3.896  14.616 -0.3933 -0.1517  0.1608
10095TIP3   OH251775   0.695   5.399  13.922  0.1074 -0.3775  0.7793
10095TIP3    H151776   0.661   5.309  13.920  1.1742 -0.8000  1.2517
10095TIP3    H251777   0.618   5.454  13.908 -0.7718 -1.3102  1.8226
10096TIP3   OH251778   5.798   0.239  14.627 -0.1982 -0.6859 -0.5254
10096TIP3    H151779   5.744   0.233  14.548 -1.9917  0.0994  0.5786
10096TIP3    H251780   5.739   0.216  14.699  1.3850 -1.3995  0.6196
10097TIP3   OH251781   4.894   2.111   2.717  0.1699  0.0221 -0.0872
10097TIP3    H151782   4.837   2.174   2.672 -1.5726 -1.3082  0.1613
10097TIP3    H251783   4.927   2.054   2.647  1.1486  0.7298 -0.2177
10098TIP3   OH251784   4.871   3.395   2.796  0.7253 -0.0295  0.0236
10098TIP3    H151785   4.798   3.398   2.857  0.7454 -0.3518  0.0634
10098TIP3    H251786   4.865   3.478   2.748  1.4357  0.7933  1.2956
10099TIP3   OH251787   4.576   3.325  11.683 -0.2419 -0.1469  0.3970
10099TIP3    H151788   4.636   3.399  11.691 -0.9444  0.6897 -1.4520
10099TIP3    H251789   4.630   3.254  11.648 -0.4132  0.9109 -2.3067
10100TIP3   OH251790   0.293   3.640  15.828 -0.1926  0.0518  0.3914
10100TIP3    H151791   0.223   3.693  15.790 -0.4639 -0.1967  0.5531
10100TIP3    H251792   0.298   3.562  15.772 -0.6643 -0.3671  0.9249
10101TIP3   OH251793   0.063   6.785   0.371  0.1318  0.0215  0.9137
10101TIP3    H151794   0.011   6.777   0.291  1.3841  0.0383  0.0726
10101TIP3    H251795   0.086   6.694   0.394  1.1829  0.1085  0.2757
10102TIP3   OH251796   1.955   3.234  11.368 -0.7802  0.2497  0.0007
10102TIP3    H151797   1.904   3.273  11.298 -0.4914 -0.1051 -0.4131
10102TIP3    H251798   2.041   3.275  11.362  0.4446 -2.3067 -2.2015
10103TIP3   OH251799   3.427   4.714   2.052  0.3592  0.1974  0.2243
10103TIP3    H151800   3.355   4.772   2.074 -0.6538 -0.4735 -1.1508
10103TIP3    H251801   3.396   4.627   2.077  1.0430  0.0080  0.4255
10104TIP3   OH251802   0.790   4.361  16.443  0.1609 -0.2761 -0.1959
10104TIP3    H151803   0.878   4.329  16.461 -0.1476 -0.8093  0.4231
10104TIP3    H251804   0.803   4.444  16.398  0.9804 -0.1926  0.1738
10105TIP3   OH251805   0.189   5.220   1.234  0.1429 -0.2493  0.2155
10105TIP3    H151806   0.203   5.308   1.200 -1.2964  0.3807  1.1694
10105TIP3    H251807   0.149   5.172   1.162 -0.9737  0.4853  0.3239
10106TIP3   OH251808   0.076   2.569  16.386  0.2907  0.0422 -0.4091
10106TIP3    H151809   0.129   2.593  16.310 -0.1303  0.4183 -0.5872
10106TIP3    H251810   0.008   2.512  16.350 -0.0088  0.3558 -0.3440
10107TIP3   OH251811   2.702   1.730   5.623 -0.1477  0.0791 -0.7210
10107TIP3    H151812   2.748   1.799   5.671 -0.4590  0.0302 -0.3456
10107TIP3    H251813   2.616   1.725   5.664  0.4612 -1.7496  0.4430
10108TIP3   OH251814   6.025   6.367   5.684  0.3041 -0.3665  0.5741
10108TIP3    H151815   6.039   6.451   5.641  1.9117 -0.7031  0.3698
10108TIP3    H251816   5.990   6.390   5.770  2.1175  0.6409  1.1111
10109TIP3   OH251817   1.956   2.398   1.466 -0.0967  0.6612 -0.2725
10109TIP3    H151818   1.915   2.399   1.552 -0.9132 -1.3863 -0.5793
10109TIP3    H251819   2.048   2.419   1.482 -0.6415  2.3690  0.7996
10110TIP3   OH251820   3.628   4.614   5.754  0.2718 -0.0767  0.1817
10110TIP3    H151821   3.685   4.605   5.830  0.6433 -0.5813 -0.1479
10110TIP3    H251822   3.601   4.706   5.755  2.0475  0.4914 -0.3119
10111TIP3   OH251823   0.385   0.597   1.279  0.3818 -0.5867  0.1045
10111TIP3    H151824   0.449   0.666   1.298 -1.3384  1.3430 -0.8627
10111TIP3    H251825   0.335   0.588   1.360 -0.2617  0.2732 -0.1928
10112TIP3   OH251826   0.138   4.530   1.951  0.6098 -0.1589 -0.3168
10112TIP3    H151827   0.168   4.611   1.993 -0.2642  0.1381 -0.2441
10112TIP3    H251828   0.154   4.544   1.858  0.8338 -0.0704 -0.2667
10113TIP3   OH251829   1.198   3.605   0.934 -0.4709 -0.7747 -0.6849
10113TIP3    H151830   1.204   3.601   0.839 -2.2238 -1.2909 -0.8096
10113TIP3    H251831   1.106   3.587   0.953 -0.2032 -0.4524  1.1003
10114TIP3   OH251832   2.308   4.750   1.125 -0.2724 -0.1045  0.4648
10114TIP3    H151833   2.224   4.743   1.079 -0.6224  1.9421  0.6947
10114TIP3    H251834   2.339   4.838   1.106  2.6056 -1.2705 -0.8078
10115TIP3   OH251835   3.579   6.193  16.307 -0.4177 -0.0814 -0.0115
10115TIP3    H151836   3.599   6.272  16.357 -0.2191 -0.3375  0.3147
10115TIP3    H251837   3.496   6.212  16.263 -0.2524  0.3966 -0.1211
10116TIP3   OH251838   2.854   5.259   5.491  0.3013 -0.0670  0.5324
10116TIP3    H151839   2.914   5.303   5.430 -1.1075 -0.6818 -1.3920
10116TIP3    H251840   2.779   5.317   5.497 -1.4215 -1.8695 -1.7510
10117TIP3   OH251841   0.118   2.982  13.675  0.5124  0.2044 -0.7870
10117TIP3    H151842   0.085   3.011  13.589 -1.1052 -1.2604 -0.7208
10117TIP3    H251843   0.130   2.888  13.666  1.2644  0.1755  0.3190
10118TIP3   OH251844   1.772   0.024   1.336 -0.4781  0.5330 -0.1027
10118TIP3    H151845   1.793  -0.065   1.306  0.4599  0.7446 -0.1120
10118TIP3    H251846   1.742   0.012   1.426  1.9772  0.3926  0.7763
10119TIP3   OH251847   5.998   0.001   4.763 -0.0270  0.1189 -0.2892
10119TIP3    H151848   5.919   0.037   4.723 -0.8534 -0.9589  0.3184
10119TIP3    H251849   5.976  -0.008   4.855  1.0093  0.3202 -0.0159
10120TIP3   OH251850   6.841   3.090  16.765  1.0038  0.1164 -0.2492
10120TIP3    H151851   6.778   3.146  16.719 -0.4083 -0.3692  1.0176
10120TIP3    H251852   6.857   3.135  16.848  0.0419 -1.1817  0.6780
10121TIP3   OH251853   2.242   0.577   0.812 -0.0575 -0.4815  0.3255
10121TIP3    H151854   2.192   0.496   0.822  0.7640 -0.8691  1.4341
10121TIP3    H251855   2.287   0.567   0.728 -2.2436  0.1327 -0.9948
10122TIP3   OH251856   5.824   2.646  16.267 -0.8248 -0.1895 -0.2920
10122TIP3    H151857   5.742   2.642  16.317 -0.9415  0.9121 -0.3829
10122TIP3    H251858   5.809   2.713  16.201  0.3478  0.4317  0.0509
10123TIP3   OH251859   2.741   5.665  11.134  0.2335 -0.1760 -0.0377
10123TIP3    H151860   2.795   5.687  11.059 -0.8141 -1.8205 -1.3350
10123TIP3    H251861   2.732   5.570  11.131 -0.5658 -0.2069  1.6618
10124TIP3   OH251862   1.109   4.203   3.031 -0.6246 -0.1348  0.1905
10124TIP3    H151863   1.141   4.149   3.103 -2.8741 -1.2146  0.4626
10124TIP3    H251864   1.093   4.289   3.071  2.1600  0.5938 -0.0568
10125TIP3   OH251865   3.396   1.608   5.440  0.5717 -0.3509 -0.2348
10125TIP3    H151866   3.467   1.648   5.490  1.2553 -1.4066 -0.3359
10125TIP3    H251867   3.339   1.568   5.506 -0.8441  1.8293 -0.0238
10126TIP3   OH251868   6.660   2.212  16.516  0.2660  0.5566  0.2309
10126TIP3    H151869   6.754   2.208  16.536  0.8475 -0.1885 -2.2912
10126TIP3    H251870   6.629   2.122  16.530  0.5032  0.2229 -1.1953
10127TIP3   OH251871   4.431   5.610   0.927  0.4243 -0.5957  0.5152
10127TIP3    H151872   4.342   5.643   0.937  0.4072 -0.6508  0.5457
10127TIP3    H251873   4.442   5.598   0.833  0.8640  0.7076  0.3792
10128TIP3   OH251874   4.465   6.799   5.864 -0.0075 -0.1340  0.3311
10128TIP3    H151875   4.532   6.780   5.930  0.2521  3.0613  1.1642
10128TIP3    H251876   4.514   6.817   5.784 -0.0767 -0.4436  0.2167
10129TIP3   OH251877   4.500   2.569   6.077  0.2713  0.6010 -0.0480
10129TIP3    H151878   4.483   2.637   6.011  0.0291 -0.3095 -0.9415
10129TIP3    H251879   4.439   2.589   6.148  0.7293  1.7635  0.0585
10130TIP3   OH251880   1.136   0.297  14.512  0.5205 -0.1149  0.0085
10130TIP3    H151881   1.152   0.316  14.604  0.4519  0.2073 -0.0420
10130TIP3    H251882   1.204   0.347  14.466  0.7589 -0.5345 -0.1020
10131TIP3   OH251883   5.418   3.476  13.976  0.6747  0.1580 -0.1669
10131TIP3    H151884   5.458   3.470  14.063  2.4999  1.4574 -0.8413
10131TIP3    H251885   5.474   3.421  13.921 -0.0165 -0.0521 -0.6627
10132TIP3   OH251886   5.044   4.546  11.879 -0.1374  0.3891  0.0813
10132TIP3    H151887   5.001   4.631  11.888  1.2213  0.9609  1.6744
10132TIP3    H251888   5.049   4.513  11.969  2.5734  0.2761 -0.0497
10133TIP3   OH251889   4.534   1.129   0.138 -0.3066  0.0200  0.0436
10133TIP3    H151890   4.498   1.078   0.065  0.8226 -2.1528  0.9083
10133TIP3    H251891   4.629   1.118   0.130 -0.0896  1.1419  0.8890
10134TIP3   OH251892   1.765   1.908   2.525 -0.3810 -0.2723  0.1517
10134TIP3    H151893   1.766   1.840   2.592 -0.7734  0.1433  0.5928
10134TIP3    H251894   1.697   1.880   2.463 -0.0872 -0.6057 -0.0228
10135TIP3   OH251895   4.462   3.250   0.260  0.3709  0.2004  0.1732
10135TIP3    H151896   4.382   3.232   0.310  0.1736  1.1952  0.2473
10135TIP3    H251897   4.440   3.327   0.207  1.6207  1.1986  1.0408
10136TIP3   OH251898   1.985   0.290   3.807 -0.0248  0.4697  0.1835
10136TIP3    H151899   1.966   0.219   3.746 -1.5109 -0.1608  1.3188
10136TIP3    H251900   2.073   0.319   3.783 -1.3006  1.8406 -3.7914
10137TIP3   OH251901   2.507   3.283   1.193  0.6441  0.1571 -0.1851
10137TIP3    H151902   2.484   3.372   1.220 -0.4301 -0.0306 -0.4248
10137TIP3    H251903   2.556   3.294   1.112 -0.5218  0.4860 -0.8598
10138TIP3   OH251904   5.171   0.324   3.601  0.1210  0.4398 -0.3797
10138TIP3    H151905   5.161   0.416   3.575  0.6049 -0.0002 -2.2484
10138TIP3    H251906   5.248   0.294   3.552 -0.1197 -1.0058  0.1056
10139TIP3   OH251907   0.193   0.834  17.132 -0.2493  0.5690 -0.2292
10139TIP3    H151908   0.171   0.926  17.143  1.3289  0.8141  1.2862
10139TIP3    H251909   0.213   0.825  17.039 -1.1578  1.5632 -0.5390
10140TIP3   OH251910   4.950   4.092   2.191 -0.4901 -0.3101 -0.2548
10140TIP3    H151911   5.034   4.116   2.230 -1.8066  0.7194  2.1989
10140TIP3    H251912   4.937   4.001   2.217 -0.6227 -0.1232  0.3587
10141TIP3   OH251913   4.825   1.996  17.080  0.3146  0.0090  0.4039
10141TIP3    H151914   4.882   1.949  17.019 -0.1997  0.5357 -0.5087
10141TIP3    H251915   4.750   2.024  17.026 -0.8066 -0.6509  1.5761
10142TIP3   OH251916   3.056   5.704   2.386  0.0642 -0.7384 -0.6218
10142TIP3    H151917   3.098   5.651   2.453  0.6164  0.1334 -0.2677
10142TIP3    H251918   3.039   5.788   2.428 -0.4317 -0.4890 -1.2952
10143TIP3   OH251919   6.211   5.588   5.364 -0.4574 -0.3961 -0.7581
10143TIP3    H151920   6.226   5.516   5.302  0.7257  0.0770 -1.0399
10143TIP3    H251921   6.115   5.596   5.368 -0.6144 -1.9617 -0.7338
10144TIP3   OH251922   4.430   5.228  11.838  0.0521  0.4929  0.0392
10144TIP3    H151923   4.479   5.153  11.805 -0.8050 -0.8858  1.7035
10144TIP3    H251924   4.341   5.194  11.852 -0.9801  2.4479 -1.2773
10145TIP3   OH251925   3.288   0.289   0.065 -0.2968  0.1500 -0.0269
10145TIP3    H151926   3.377   0.320   0.048  0.0499  0.3653  1.9162
10145TIP3    H251927   3.260   0.338   0.143 -1.9426 -0.2647 -0.3127
10146TIP3   OH251928   3.552   4.046   0.632 -0.0807 -0.3482 -0.2831
10146TIP3    H151929   3.569   4.091   0.550  2.0583  0.0615  0.3276
10146TIP3    H251930   3.590   4.103   0.700 -0.8883 -1.1540  0.8947
10147TIP3   OH251931   1.096   3.406   5.099 -0.2849  0.0714 -0.2046
10147TIP3    H151932   1.165   3.348   5.068 -1.0030 -0.9372  0.0416
10147TIP3    H251933   1.017   3.375   5.055 -0.5749  1.2811 -0.5648
10148TIP3   OH251934   4.490   5.807  13.368 -0.0099  0.1659  0.6025
10148TIP3    H151935   4.423   5.774  13.308  1.3154 -0.0441 -0.8366
10148TIP3    H251936   4.441   5.856  13.434 -1.7093 -1.4751  0.6378
10149TIP3   OH251937   4.266   4.940   2.079  0.1217 -0.0583 -0.2527
10149TIP3    H151938   4.222   4.855   2.083 -1.0154  0.5617  1.4549
10149TIP3    H251939   4.354   4.923   2.115 -0.0170 -0.5503 -0.1378
10150TIP3   OH251940   5.963   1.086   0.890 -0.5330  0.1494  0.0053
10150TIP3    H151941   5.973   1.086   0.794 -1.3359 -1.6096 -0.1116
10150TIP3    H251942   6.032   1.145   0.921  0.0196  0.4202 -1.6281
10151TIP3   OH251943   2.951   1.092   1.379  0.7530 -0.3620  0.2496
10151TIP3    H151944   3.038   1.102   1.340  0.9385 -2.1729  0.1128
10151TIP3    H251945   2.901   1.166   1.346  1.7020 -0.3346 -1.1901
10152TIP3   OH251946   6.317   6.021  12.243 -0.3574 -0.3638 -0.1885
10152TIP3    H151947   6.225   6.034  12.266 -0.1193 -1.6827  1.6902
10152TIP3    H251948   6.315   5.993  12.152 -1.9975 -2.1663  0.3445
10153TIP3   OH251949   0.548   2.448   2.685  0.0298  0.2533  0.5289
10153TIP3    H151950   0.558   2.466   2.778  1.8667  0.1469  0.3933
10153TIP3    H251951   0.477   2.383   2.681 -2.4921  2.7291  1.4957
10154TIP3   OH251952   5.945   2.510   2.853 -0.1952  0.0707  0.3202
10154TIP3    H151953   5.905   2.568   2.917 -1.2421 -0.8835  0.5571
10154TIP3    H251954   6.001   2.451   2.904 -1.1929 -0.8280  0.4205
10155TIP3   OH251955   2.875   0.669   3.638  0.0468  0.4021  0.1883
10155TIP3    H151956   2.962   0.709   3.632 -0.5280  1.5368 -1.2702
10155TIP3    H251957   2.820   0.738   3.675 -0.2508 -0.3059  1.0828
10156TIP3   OH251958   4.289   2.205   0.841  0.6067  0.0382  0.4565
10156TIP3    H151959   4.356   2.145   0.807  0.9698 -0.8824  2.6073
10156TIP3    H251960   4.259   2.164   0.922 -1.2254  1.3850  0.5375
10157TIP3   OH251961   6.214   2.048  12.355  0.5702 -0.3265 -0.1552
10157TIP3    H151962   6.205   2.143  12.362  0.3682 -0.3628  0.1208
10157TIP3    H251963   6.132   2.014  12.390  0.9689 -0.6214  0.5179
10158TIP3   OH251964   4.325   1.453  16.055  0.2128  0.3681 -0.5258
10158TIP3    H151965   4.402   1.477  16.105  0.5416  1.2590 -1.4019
10158TIP3    H251966   4.266   1.412  16.118  1.4470 -0.4567  0.1252
10159TIP3   OH251967   4.878   3.719   5.468 -0.1081 -0.1470 -0.1966
10159TIP3    H151968   4.958   3.699   5.420  0.4889  2.2167 -0.2902
10159TIP3    H251969   4.877   3.814   5.476 -2.7760 -0.1119  0.0555
10160TIP3   OH251970   2.181   2.783  13.916 -0.6533 -0.6185  0.5748
10160TIP3    H151971   2.098   2.760  13.959 -2.3190 -1.5100 -2.7396
10160TIP3    H251972   2.237   2.707  13.931 -1.0939 -0.7910  1.3787
10161TIP3   OH251973   2.664   1.569   3.721  0.2909 -0.1694 -0.0916
10161TIP3    H151974   2.666   1.561   3.816  1.5342 -0.2382 -0.1067
10161TIP3    H251975   2.573   1.592   3.701  0.0782  0.1319  1.1293
10162TIP3   OH251976   2.267   4.975   0.396  0.5494 -0.1730 -0.2084
10162TIP3    H151977   2.174   4.976   0.376  0.5530 -1.5939 -0.3910
10162TIP3    H251978   2.309   4.946   0.315  1.1293  0.2189 -0.0569
10163TIP3   OH251979   1.833   2.735   0.999 -0.1150 -0.0101 -0.0607
10163TIP3    H151980   1.764   2.675   0.972  0.4044  0.6971 -3.3468
10163TIP3    H251981   1.913   2.684   0.992  0.0357  0.1704  0.3025
10164TIP3   OH251982   4.241   6.412   2.377  0.0462 -0.2853 -0.2365
10164TIP3    H151983   4.237   6.427   2.471  0.7362  0.1542 -0.2699
10164TIP3    H251984   4.249   6.499   2.339 -0.8438 -0.4124 -0.7525
10165TIP3   OH251985   4.286   6.352  14.431  0.8873 -0.1230 -0.0733
10165TIP3    H151986   4.306   6.330  14.340  0.2799 -1.1715  0.0236
10165TIP3    H251987   4.265   6.268  14.472 -2.3226  0.6766  0.1619
10166TIP3   OH251988   0.094   3.760   1.673 -0.1308  0.0927  0.3011
10166TIP3    H151989   0.117   3.669   1.653  0.2409  0.5972 -1.8425
10166TIP3    H251990   0.013   3.775   1.625  1.0726  1.5595 -1.4051
10167TIP3   OH251991   4.176   1.939  13.884  0.0521 -0.7827  0.0017
10167TIP3    H151992   4.220   2.022  13.866  0.0023 -0.6861  0.3127
10167TIP3    H251993   4.243   1.884  13.925  0.1259 -0.9480 -0.3425
10168TIP3   OH251994   5.952   0.259  11.344  0.3386 -0.1849 -1.0345
10168TIP3    H151995   5.965   0.169  11.373 -0.5648  0.1629  0.5331
10168TIP3    H251996   6.036   0.302  11.361 -0.0334 -0.1027  0.7020
10169TIP3   OH251997   2.941   5.289  16.919 -0.0792  0.0285 -0.3487
10169TIP3    H151998   2.991   5.227  16.973 -1.2000 -0.3925  0.2459
10169TIP3    H251999   2.959   5.374  16.958 -0.5170 -0.2218  0.4277
10170TIP3   OH252000   0.652   5.441   2.473  0.1335  0.0231  0.1316
10170TIP3    H152001   0.587   5.377   2.446  0.7253 -0.4634 -0.1537
10170TIP3    H252002   0.624   5.523   2.432  0.0071 -0.3042 -0.4329
10171TIP3   OH252003   5.228   6.091  14.606  0.0887  0.9231 -0.4197
10171TIP3    H152004   5.178   6.051  14.678  1.3443  1.4199  0.7655
10171TIP3    H252005   5.260   6.017  14.555  0.2277  0.4970  0.2625
10172TIP3   OH252006   6.447   4.688  13.484 -0.6101  0.4607 -0.4141
10172TIP3    H152007   6.508   4.758  13.507 -2.0880  1.4255  0.7880
10172TIP3    H252008   6.487   4.645  13.408  1.8115  0.6902  0.6118
10173TIP3   OH252009   3.741   6.511   5.338 -0.0477  0.0777 -0.3642
10173TIP3    H152010   3.824   6.505   5.386 -0.1880 -0.4915 -0.1948
10173TIP3    H252011   3.736   6.603   5.312 -1.6792  1.3548  3.7282
10174TIP3   OH252012   0.440   3.989   1.248 -0.5000  0.2244 -0.1778
10174TIP3    H152013   0.492   3.917   1.213 -0.6192 -0.4513  0.9675
10174TIP3    H252014   0.414   3.959   1.335 -0.1202  1.8595  0.5369
10175TIP3   OH252015   1.688   1.289  14.235  0.1360 -0.4572  0.2087
10175TIP3    H152016   1.739   1.216  14.200  0.3360  0.0781 -0.6488
10175TIP3    H252017   1.742   1.366  14.219 -0.8512  0.1050 -0.5645
10176TIP3   OH252018   2.867   4.709   4.212  0.3672 -0.3306 -0.3468
10176TIP3    H152019   2.804   4.709   4.140  0.2933  1.5078 -0.3316
10176TIP3    H252020   2.943   4.755   4.177  0.4197  0.3833  0.6610
10177TIP3   OH252021   3.264   4.999  16.982  0.1621 -0.1134  0.5399
10177TIP3    H152022   3.293   5.079  16.938 -1.1127  0.9256  1.5270
10177TIP3    H252023   3.200   5.028  17.047  1.3934 -1.6483  2.5905
10178TIP3   OH252024   4.183   4.016   0.690  0.3628 -0.8759  0.0111
10178TIP3    H152025   4.252   4.039   0.628  0.5917 -1.1571  0.1624
10178TIP3    H252026   4.226   3.960   0.754  1.2538  2.7287  2.8828
10179TIP3   OH252027   0.418   2.155   0.698  0.3089  0.3701  0.2809
10179TIP3    H152028   0.362   2.125   0.626  1.3011  0.4867 -0.5753
10179TIP3    H252029   0.425   2.080   0.757 -0.8309  0.3966  0.4616
10180TIP3   OH252030   5.998   4.198  13.310 -0.5441  0.2593  0.1092
10180TIP3    H152031   6.087   4.187  13.277 -0.7487 -1.3701  0.0088
10180TIP3    H252032   5.952   4.248  13.243  0.6813  2.5413  0.8844
10181TIP3   OH252033   3.250   1.833   1.528  0.1673 -0.1315 -0.5743
10181TIP3    H152034   3.218   1.781   1.602  2.1643  0.2594  0.6317
10181TIP3    H252035   3.248   1.923   1.561  1.4887  0.0019 -0.8032
10182TIP3   OH252036   5.872   1.947  12.947  0.3582  0.1169 -0.0025
10182TIP3    H152037   5.911   1.880  13.002  1.4039  1.4045  0.8887
10182TIP3    H252038   5.930   1.952  12.871  0.4702  0.2408  0.0915
10183TIP3   OH252039   1.264   0.269   2.996  0.0085  0.0075 -0.3078
10183TIP3    H152040   1.302   0.342   2.947 -1.1829 -0.2489 -1.7127
10183TIP3    H252041   1.339   0.221   3.030  0.9244  0.1040 -2.0721
10184TIP3   OH252042   5.428   5.645  15.070 -0.4784 -0.1117  0.0042
10184TIP3    H152043   5.459   5.694  15.147  0.3188 -0.7371  0.0991
10184TIP3    H252044   5.361   5.586  15.105 -0.3847 -0.1292  0.1592
10185TIP3   OH252045   0.607   0.712   0.894  0.3065  0.1356  0.0011
10185TIP3    H152046   0.648   0.634   0.933 -1.4245 -0.3402  0.9714
10185TIP3    H252047   0.537   0.677   0.840  1.0970  0.9347 -1.5979
10186TIP3   OH252048   1.474   3.160   0.423 -0.2530  0.0313  0.1054
10186TIP3    H152049   1.478   3.255   0.438  2.7216  0.0739 -0.4038
10186TIP3    H252050   1.457   3.151   0.329  1.4801  0.1643 -0.2593
10187TIP3   OH252051   0.003   0.908  13.757 -0.3860  0.1437  0.6192
10187TIP3    H152052   0.044   0.833  13.715  0.2044  0.5599  0.4299
10187TIP3    H252053  -0.061   0.871  13.817 -1.4433 -0.4617 -0.8433
10188TIP3   OH252054   2.608   2.896   6.357 -0.2037  0.0867 -0.0659
10188TIP3    H152055   2.574   2.930   6.440  0.7063 -1.4827  1.0040
10188TIP3    H252056   2.553   2.819   6.339  1.2298 -1.0990  0.4693
10189TIP3   OH252057   1.311   6.643  17.006  0.6184 -0.5611  0.1517
10189TIP3    H152058   1.224   6.681  17.021  1.3373  1.2580 -0.0261
10189TIP3    H252059   1.317   6.636  16.911  0.3099 -1.6489  0.1928
10190TIP3   OH252060   3.817   5.654  14.545  0.3923 -0.5152  0.2553
10190TIP3    H152061   3.789   5.744  14.563 -1.8537 -0.9210 -0.9246
10190TIP3    H252062   3.912   5.660  14.536  0.3468  1.6340  0.6833
10191TIP3   OH252063   4.752   5.425  16.883  0.4594 -0.1265  0.4509
10191TIP3    H152064   4.718   5.500  16.932  1.0449 -1.0224  2.3150
10191TIP3    H252065   4.723   5.349  16.932  0.1402 -1.1499 -1.2422
10192TIP3   OH252066   2.846   5.330   1.362  0.0210 -0.2922  0.5409
10192TIP3    H152067   2.801   5.301   1.282  0.1805 -2.1844  1.0745
10192TIP3    H252068   2.776   5.361   1.419 -0.4288 -1.4813  0.6666
10193TIP3   OH252069   3.169   4.279   3.303  0.5291  0.5019  0.2888
10193TIP3    H152070   3.238   4.261   3.239 -0.2647 -1.2641 -0.1245
10193TIP3    H252071   3.214   4.280   3.387  1.3550  1.3851 -0.1415
10194TIP3   OH252072   2.592   4.294  13.415 -0.4259  0.2795  0.2089
10194TIP3    H152073   2.588   4.219  13.473  2.1206  0.6354  0.9559
10194TIP3    H252074   2.537   4.360  13.457 -0.0222 -0.0605  1.3060
10195TIP3   OH252075   4.262   4.363  11.092 -0.1910  0.5160 -0.0844
10195TIP3    H152076   4.344   4.367  11.043 -0.6833 -1.5702 -1.1959
10195TIP3    H252077   4.195   4.388  11.029 -0.4793  1.9803  0.7547
10196TIP3   OH252078   6.079   3.659   5.778  0.1629  0.0123 -0.3963
10196TIP3    H152079   6.080   3.601   5.854 -1.1333 -1.0109 -1.1294
10196TIP3    H252080   6.035   3.609   5.709  1.3281  0.8973 -1.8540
10197TIP3   OH252081   5.472   2.288  11.562  0.1116  0.2226  0.2839
10197TIP3    H152082   5.402   2.224  11.553  0.0285  0.5286 -1.8242
10197TIP3    H252083   5.552   2.236  11.574  0.1826 -0.4137 -2.3064
10198TIP3   OH252084   3.520   5.236  13.343  0.0336  0.1131 -0.0522
10198TIP3    H152085   3.441   5.234  13.398 -0.4038  0.5094 -0.6618
10198TIP3    H252086   3.592   5.236  13.406 -0.4688  1.5610  0.5552
10199TIP3   OH252087   5.612   5.871  12.601 -0.0304 -0.3130  0.7007
10199TIP3    H152088   5.660   5.789  12.593  2.5192  1.2306 -1.2680
10199TIP3    H252089   5.609   5.889  12.695  3.1687 -0.6409  0.9701
10200TIP3   OH252090   1.653   0.795   5.351 -0.2510 -0.3023 -0.2516
10200TIP3    H152091   1.658   0.846   5.432 -0.5747 -0.5117 -0.0958
10200TIP3    H252092   1.679   0.706   5.377 -0.6694 -0.4443 -0.3043
10201TIP3   OH252093   5.328   0.330  12.142 -0.0198 -0.1715 -0.2320
10201TIP3    H152094   5.355   0.243  12.115  1.1842  0.0583  0.1798
10201TIP3    H252095   5.239   0.318  12.176 -0.2659 -1.0398 -1.1304
10202TIP3   OH252096   3.238   5.986   0.211  0.0772 -0.0189  0.1192
10202TIP3    H152097   3.229   6.009   0.119  0.5295  0.5096  0.1994
10202TIP3    H252098   3.224   5.891   0.214  0.1714 -0.0578 -0.5042
10203TIP3   OH252099   4.905   1.301   2.332  0.3254 -0.6246 -0.0329
10203TIP3    H152100   4.885   1.359   2.406  0.7671  0.9335 -1.0867
10203TIP3    H252101   4.873   1.215   2.360  1.0408 -0.2337  2.2307
10204TIP3   OH252102   3.143   0.968   0.854 -0.3232 -0.0833  0.1387
10204TIP3    H152103   3.122   1.000   0.766  0.4658 -0.8583 -0.3434
10204TIP3    H252104   3.183   1.043   0.898 -0.1894  0.1340 -0.3543
10205TIP3   OH252105   6.568   6.779  13.110 -0.0261  0.3751  0.2828
10205TIP3    H152106   6.492   6.827  13.077  1.7452  3.6383  0.4750
10205TIP3    H252107   6.591   6.719  13.039 -1.3955  1.0025 -0.7508
10206TIP3   OH252108   5.374   3.151  13.704 -0.0601 -0.4150  0.0507
10206TIP3    H152109   5.394   3.152  13.798 -1.4364 -1.7298  0.3964
10206TIP3    H252110   5.444   3.098  13.666  0.0656 -0.5597  0.4715
10207TIP3   OH252111   5.837   3.118  14.734  0.1591  0.2150 -0.6642
10207TIP3    H152112   5.773   3.047  14.729 -0.6012  0.3924  3.4168
10207TIP3    H252113   5.921   3.074  14.741  0.2111 -0.0902 -2.6515
10208TIP3   OH252114   1.791   0.120   4.094 -0.2561  0.3165  0.4499
10208TIP3    H152115   1.881   0.121   4.128  0.0888 -0.5783 -0.4041
10208TIP3    H252116   1.779   0.209   4.059  0.7074  0.1126 -0.4545
10209TIP3   OH252117   2.365   1.005  14.923 -0.1660 -0.4253  0.1971
10209TIP3    H152118   2.325   0.967  15.001 -0.0759 -1.0465 -0.0571
10209TIP3    H252119   2.454   1.027  14.951  0.4467 -2.2410 -0.1843
10210TIP3   OH252120   3.056   1.105   1.062  0.2909 -0.3039 -0.4956
10210TIP3    H152121   2.968   1.072   1.043  0.6556 -2.6259  1.3473
10210TIP3    H252122   3.058   1.193   1.025 -3.1366  0.2297  0.2975
10211TIP3   OH252123   4.922   0.819   1.643  0.2998  0.8689 -0.1750
10211TIP3    H152124   4.997   0.878   1.640  1.1785 -0.2411 -0.2893
10211TIP3    H252125   4.949   0.748   1.700 -1.3336  1.3343  1.2700
10212TIP3   OH252126   1.568   6.258   5.502  0.0092 -0.1071  0.2860
10212TIP3    H152127   1.475   6.271   5.488 -0.3845 -2.4296  0.3059
10212TIP3    H252128   1.574   6.175   5.549  2.0881  0.0736  0.4599
10213TIP3   OH252129   6.551   0.257  15.625 -0.1548  0.0354 -0.2098
10213TIP3    H152130   6.640   0.276  15.656 -0.1734 -1.2349  0.7304
10213TIP3    H252131   6.556   0.167  15.593 -1.0845 -0.0266 -0.2040
10214TIP3   OH252132   2.405   2.596  15.636  0.2558  0.3599 -0.4252
10214TIP3    H152133   2.410   2.503  15.616 -3.4789  0.5327 -3.1996
10214TIP3    H252134   2.403   2.600  15.732  0.6858 -2.3484 -0.2223
10215TIP3   OH252135   2.520   3.685  15.677 -0.0732  0.4849 -0.2200
10215TIP3    H152136   2.606   3.643  15.679  0.0503  0.7696  0.5378
10215TIP3    H252137   2.461   3.622  15.719 -0.0400  0.7246  0.1872
10216TIP3   OH252138   4.026   4.556  10.328 -0.0841 -0.1881 -0.8254
10216TIP3    H152139   4.104   4.510  10.297 -0.1758 -0.7865 -0.1909
10216TIP3    H252140   3.980   4.491  10.382 -1.6692 -0.2677 -2.1899
10217TIP3   OH252141   1.037   6.690  12.867  0.1891  0.0559  0.1002
10217TIP3    H152142   1.015   6.597  12.853 -4.0977  0.7000  1.1876
10217TIP3    H252143   0.999   6.735  12.792 -1.0912  1.2158  1.3969
10218TIP3   OH252144   4.530   6.290  11.336 -0.2197  0.4446 -0.1214
10218TIP3    H152145   4.538   6.278  11.242 -1.9763  2.4964 -0.6008
10218TIP3    H252146   4.542   6.384  11.350  0.6233  0.1134  1.8143
10219TIP3   OH252147   1.562   2.196  15.624 -0.1087 -0.0255 -0.1908
10219TIP3    H152148   1.506   2.161  15.555 -0.7550  0.5921 -0.0020
10219TIP3    H252149   1.651   2.174  15.597 -0.3923 -0.3020 -0.9248
10220TIP3   OH252150   0.407   6.109  13.596 -0.2977  0.1929  0.0743
10220TIP3    H152151   0.427   6.165  13.521  0.1087 -0.4861 -0.3438
10220TIP3    H252152   0.373   6.168  13.663  2.7091  1.4214  0.6676
10221TIP3   OH252153   0.241   6.114   0.879 -0.3582 -0.6089 -0.7661
10221TIP3    H152154   0.303   6.051   0.914 -1.1100 -1.4695 -0.9472
10221TIP3    H252155   0.294   6.190   0.856  0.0315  1.0262  4.1947
10222TIP3   OH252156   4.007   3.853  13.690 -0.4208  0.8581 -0.8183
10222TIP3    H152157   3.931   3.824  13.741  0.2486 -0.1468 -0.3481
10222TIP3    H252158   4.053   3.772  13.667  1.5301  1.4950  0.5484
10223TIP3   OH252159   2.492   3.532  15.908 -0.0750 -0.2635 -0.0243
10223TIP3    H152160   2.550   3.581  15.966 -1.1628 -1.5155  2.2232
10223TIP3    H252161   2.551   3.495  15.842  1.2865  0.7350  0.5732
10224TIP3   OH252162   0.577   2.908   3.611 -0.1729  0.2410 -0.7895
10224TIP3    H152163   0.656   2.881   3.565 -0.5242 -1.6510 -0.3592
10224TIP3    H252164   0.517   2.934   3.541 -0.1148 -0.9807 -1.3144
10225TIP3   OH252165   1.741   0.624  13.324 -0.5806 -0.3026  0.3375
10225TIP3    H152166   1.816   0.618  13.384  0.3462 -0.5768 -0.8086
10225TIP3    H252167   1.724   0.718  13.316 -0.0953 -0.2104  0.3101
10226TIP3   OH252168   3.959   0.903   3.379 -0.0301 -0.9237  0.1789
10226TIP3    H152169   3.898   0.977   3.387  0.2803 -0.5249 -0.8876
10226TIP3    H252170   4.045   0.945   3.374  0.0683 -1.2374 -1.6255
10227TIP3   OH252171   4.262   0.410  13.746 -0.4969 -0.0882 -0.0972
10227TIP3    H152172   4.298   0.498  13.758 -1.5787  0.2156  1.1673
10227TIP3    H252173   4.322   0.352  13.793  1.7709 -0.4722 -3.1835
10228TIP3   OH252174   2.322   5.235   2.509 -0.1192  0.2950  0.3589
10228TIP3    H152175   2.244   5.255   2.458  0.3375  0.3915 -0.3290
10228TIP3    H252176   2.371   5.173   2.454  1.1859  1.6666 -0.1009
10229TIP3   OH252177   5.259   2.618   5.114 -0.0578  0.0859  0.5719
10229TIP3    H152178   5.347   2.656   5.112  0.1165 -0.3317 -0.3955
10229TIP3    H252179   5.261   2.559   5.189  0.0908  0.9764  1.2850
10230TIP3   OH252180   2.261   2.314  16.491 -0.4954  0.3455  0.3145
10230TIP3    H152181   2.205   2.323  16.568  0.5434  0.1290  1.1178
10230TIP3    H252182   2.266   2.402  16.454 -1.6153  0.3081  0.0343
10231TIP3   OH252183   4.870   0.962   0.780 -0.0070 -0.1433 -0.1977
10231TIP3    H152184   4.826   1.022   0.720 -1.4302  0.4112  1.3251
10231TIP3    H252185   4.817   0.882   0.777 -0.7875  0.2961  1.1477
10232TIP3   OH252186   2.447   0.702  15.324 -0.1971  0.1799  0.1317
10232TIP3    H152187   2.369   0.663  15.283 -1.8868  3.4727 -0.1461
10232TIP3    H252188   2.498   0.734  15.250  0.5194 -0.3188  0.3995
10233TIP3   OH252189   0.662   4.699   2.060 -0.7826  0.8719  0.0011
10233TIP3    H152190   0.688   4.669   2.147  1.0327 -0.8598 -1.0541
10233TIP3    H252191   0.716   4.776   2.044  1.4404 -0.7214 -0.8033
10234TIP3   OH252192   2.624   6.272  13.364 -0.1987  0.0087  0.4129
10234TIP3    H152193   2.561   6.241  13.298 -1.1040 -1.3978  1.8547
10234TIP3    H252194   2.659   6.192  13.402  0.0235  0.7716  1.8840
10235TIP3   OH252195   5.289   5.011   1.295 -0.3294  0.0505  0.2578
10235TIP3    H152196   5.359   5.021   1.360 -0.1769 -4.0997  0.9917
10235TIP3    H252197   5.214   5.056   1.333  0.3843 -0.3903  2.3034
10236TIP3   OH252198   2.557   5.790  13.288 -0.1309  0.2383 -0.5067
10236TIP3    H152199   2.569   5.738  13.367 -1.0935  0.4846 -0.1839
10236TIP3    H252200   2.577   5.731  13.216  0.2257 -0.1446 -0.0945
10237TIP3   OH252201   2.757   2.378  16.427 -0.9819  0.7273  0.1646
10237TIP3    H152202   2.782   2.417  16.511  1.4002 -0.6497  0.1825
10237TIP3    H252203   2.673   2.334  16.445  0.5364 -1.4866  2.5482
10238TIP3   OH252204   4.345   0.561  12.247  0.1708  0.0681  0.0992
10238TIP3    H152205   4.331   0.574  12.341  0.9572 -1.0744  0.3945
10238TIP3    H252206   4.310   0.640  12.206  1.2806  1.3106  1.4827
10239TIP3   OH252207   4.690   1.216   3.253  0.0553  0.4527 -0.9427
10239TIP3    H152208   4.654   1.202   3.165  0.8282 -2.5329 -0.8956
10239TIP3    H252209   4.773   1.168   3.252 -0.0363  0.1669  1.5005
10240TIP3   OH252210   0.167   0.074  15.655 -0.5294 -0.2011  0.1399
10240TIP3    H152211   0.248   0.029  15.680 -0.4810 -0.7172 -0.9266
10240TIP3    H252212   0.097   0.020  15.692 -0.4427 -0.6711 -0.3813
10241TIP3   OH252213   0.757   0.847   6.088 -0.0531  0.1866  0.3199
10241TIP3    H152214   0.670   0.818   6.060 -0.1082  0.0348  0.6445
10241TIP3    H252215   0.740   0.909   6.159  0.1402 -0.9710  1.4111
10242TIP3   OH252216   2.881   2.525  14.782 -0.0353  0.0672  0.1391
10242TIP3    H152217   2.886   2.551  14.874  0.2566 -1.3646  0.5612
10242TIP3    H252218   2.971   2.531  14.750 -0.1954  0.9154 -0.1646
10243TIP3   OH252219   5.733   3.854  15.499 -0.0368  0.2792  0.3787
10243TIP3    H152220   5.689   3.811  15.426 -0.5585  2.1282 -0.4656
10243TIP3    H252221   5.822   3.871  15.466  0.2150 -0.2526  0.7642
10244TIP3   OH252222   1.852   6.415   0.554 -0.0010  0.7411  0.3131
10244TIP3    H152223   1.904   6.378   0.482 -2.5557 -0.4452 -1.0720
10244TIP3    H252224   1.855   6.509   0.540 -0.2691  0.5406 -1.2559
10245TIP3   OH252225   0.538   2.908   6.012 -0.0778  0.3909 -0.6140
10245TIP3    H152226   0.464   2.851   5.990 -0.1114 -0.7345  2.0405
10245TIP3    H252227   0.614   2.864   5.975 -0.4635  0.2900 -1.2934
10246TIP3   OH252228   4.525   5.746   4.086 -0.6257 -0.0177  0.5098
10246TIP3    H152229   4.616   5.764   4.106 -1.1421  3.0478  0.5447
10246TIP3    H252230   4.514   5.776   3.996 -0.9996 -3.0619 -0.5611
10247TIP3   OH252231   3.384   0.720   1.364 -0.2268 -0.1763 -0.0705
10247TIP3    H152232   3.308   0.776   1.348 -1.7608 -1.6092  1.7646
10247TIP3    H252233   3.452   0.779   1.396 -1.9878  0.6570  2.3944
10248TIP3   OH252234   2.870   3.882  14.777 -0.2315  0.3065 -0.0859
10248TIP3    H152235   2.839   3.910  14.863  0.6047 -3.1258  1.5124
10248TIP3    H252236   2.793   3.848  14.733  0.0115 -2.4901  1.4131
10249TIP3   OH252237   5.346   4.604  14.496  0.2251  0.1279  0.5219
10249TIP3    H152238   5.297   4.611  14.414 -0.1283 -0.7185  0.6558
10249TIP3    H252239   5.413   4.672  14.489  0.3358 -0.0775 -0.5599
10250TIP3   OH252240   3.101   5.425   1.346 -0.2265  0.1183 -0.1755
10250TIP3    H152241   3.064   5.506   1.310  1.8686  1.6796  0.9377
10250TIP3    H252242   3.025   5.379   1.382 -1.5052  1.5752 -0.8521
10251TIP3   OH252243   1.606   5.228   3.812  0.1484  0.3793  0.2869
10251TIP3    H152244   1.650   5.242   3.729 -0.4651  0.8196  0.0328
10251TIP3    H252245   1.661   5.165   3.858  1.2406  1.1996  0.1283
10252TIP3   OH252246   1.271   6.602  11.319  0.0755  0.1760  0.5726
10252TIP3    H152247   1.326   6.596  11.241 -1.1815  2.4544 -0.5804
10252TIP3    H252248   1.205   6.534  11.306  0.4295 -0.0942  0.1362
10253TIP3   OH252249   1.922   4.159  11.814 -0.3199 -0.3988  0.4927
10253TIP3    H152250   1.899   4.179  11.723 -3.0317  0.7526  1.3352
10253TIP3    H252251   1.861   4.090  11.840  0.1985 -0.4886  1.5381
10254TIP3   OH252252   1.744   3.076   6.752 -0.0442 -0.0836 -0.1962
10254TIP3    H152253   1.779   2.988   6.738 -2.6821 -1.2447 -0.0788
10254TIP3    H252254   1.763   3.123   6.671  1.3750 -0.7201 -0.2714
10255TIP3   OH252255   2.259   5.591   3.539 -0.4882  0.1818 -0.0611
10255TIP3    H152256   2.182   5.644   3.518  1.0088  2.9464  1.0400
10255TIP3    H252257   2.241   5.558   3.627 -1.1854 -0.7792 -0.5393
10256TIP3   OH252258   5.165   5.594   3.887 -0.2344 -0.2448 -0.2142
10256TIP3    H152259   5.136   5.503   3.880 -1.6234  0.0520  1.2259
10256TIP3    H252260   5.093   5.639   3.930  0.9541  1.2815  0.2638
10257TIP3   OH252261   1.352   2.076  11.090  0.0867 -0.5184 -0.4355
10257TIP3    H152262   1.338   2.168  11.067  2.8882  0.1243  0.0698
10257TIP3    H252263   1.415   2.044  11.025  1.4322 -1.1738  1.1326
10258TIP3   OH252264   3.848   5.762  11.327  0.2621 -0.2209  0.0145
10258TIP3    H152265   3.843   5.847  11.371 -2.0268  0.8043 -2.0437
10258TIP3    H252266   3.920   5.772  11.264  0.6018 -0.1379  0.4117
10259TIP3   OH252267   1.458   6.696  13.826  0.4260  0.0676  0.1250
10259TIP3    H152268   1.488   6.733  13.909  0.1212 -1.7369  1.0802
10259TIP3    H252269   1.368   6.726  13.818  0.5691  0.5478  0.2389
10260TIP3   OH252270   0.949   1.725   0.466 -0.2504  0.2329  0.4446
10260TIP3    H152271   0.901   1.722   0.548  0.7184  1.5078  1.0921
10260TIP3    H252272   0.917   1.804   0.422 -1.0655 -0.6577 -0.6216
10261TIP3   OH252273   2.940   5.740   0.396 -0.1170  0.5834  0.1020
10261TIP3    H152274   2.904   5.682   0.463 -2.6890  1.0950 -0.7358
10261TIP3    H252275   2.924   5.829   0.429 -1.2052  0.8388 -1.0105
10262TIP3   OH252276   4.246   6.399   4.845 -0.1653 -0.2531  0.2053
10262TIP3    H152277   4.272   6.382   4.754  0.2908 -0.0493  0.2971
10262TIP3    H252278   4.154   6.425   4.838 -0.2086 -0.4888 -0.1726
10263TIP3   OH252279   4.288   5.476   0.010 -0.4772 -0.4549 -0.2638
10263TIP3    H152280   4.195   5.456   0.023 -0.4810 -0.4201 -0.2367
10263TIP3    H252281   4.292   5.571   0.005 -0.4845 -0.4705 -0.5837
10264TIP3   OH252282   3.308   4.417  15.715  0.0385 -0.5855 -0.3007
10264TIP3    H152283   3.229   4.368  15.737 -0.4997  0.0367 -0.8008
10264TIP3    H252284   3.276   4.501  15.682  0.9295  0.0488  0.3855
10265TIP3   OH252285   6.490   2.223  13.953  0.3187  0.6279 -1.1539
10265TIP3    H152286   6.569   2.218  14.008  0.8030  2.1430 -1.6692
10265TIP3    H252287   6.424   2.261  14.011 -0.8064 -2.7670  0.0250
10266TIP3   OH252288   1.860   4.742  14.040 -0.2252 -0.2369 -0.0824
10266TIP3    H152289   1.914   4.668  14.012 -1.8701 -0.8490 -1.8899
10266TIP3    H252290   1.771   4.706  14.042 -0.7273  0.9804  1.8329
10267TIP3   OH252291   2.731   4.739  15.645 -0.7344 -0.4436  0.4395
10267TIP3    H152292   2.651   4.697  15.615 -0.0077 -1.5211 -0.0495
10267TIP3    H252293   2.710   4.772  15.732 -1.9392  0.0023  0.0067
10268TIP3   OH252294   2.398   2.797  12.388 -0.3953 -0.4048  0.3566
10268TIP3    H152295   2.492   2.779  12.400 -0.4211 -0.6522  0.1896
10268TIP3    H252296   2.355   2.733  12.444 -0.4361  0.7644  1.7336
10269TIP3   OH252297   1.738   0.679  14.949  0.3240  0.3645 -0.0472
10269TIP3    H152298   1.657   0.630  14.938 -0.4099  1.4672  0.2566
10269TIP3    H252299   1.752   0.682  15.043  0.1855  0.9977 -0.0418
10270TIP3   OH252300   4.419   5.206  15.330  0.1480 -0.5434  0.0829
10270TIP3    H152301   4.380   5.130  15.287  1.3837  0.3736 -2.8734
10270TIP3    H252302   4.512   5.184  15.339  0.6081  0.7399 -1.2246
10271TIP3   OH252303   4.708   4.330   0.868 -0.0562  0.4191  0.3824
10271TIP3    H152304   4.700   4.422   0.846 -1.1583  0.2710  0.1078
10271TIP3    H252305   4.679   4.324   0.959 -2.8131 -0.0386 -0.4458
10272TIP3   OH252306   6.662   0.793   2.048  0.5000  0.8562  0.2802
10272TIP3    H152307   6.578   0.796   2.094  0.2467 -0.1620 -0.0997
10272TIP3    H252308   6.697   0.706   2.066  2.2796  1.8048  1.7874
10273TIP3   OH252309   4.041   4.731   5.969 -0.3123 -0.1159 -0.5929
10273TIP3    H152310   3.982   4.802   5.945  0.9529  1.3196  0.3354
10273TIP3    H252311   4.073   4.755   6.056 -0.9576 -2.6052  0.3924
10274TIP3   OH252312   4.841   6.037  16.232 -0.1150 -0.8978  0.3338
10274TIP3    H152313   4.748   6.045  16.252 -0.0717 -1.6372  0.8704
10274TIP3    H252314   4.865   6.122  16.195 -0.7287 -0.2650  1.3333
10275TIP3   OH252315   0.634   1.352  10.088 -0.2627 -0.0750  0.5657
10275TIP3    H152316   0.651   1.345  10.181  0.4273  0.1616  0.4586
10275TIP3    H252317   0.700   1.295  10.047 -0.8014 -0.4798  0.2396
10276TIP3   OH252318   0.797   4.696   0.073  0.1430 -0.5620 -0.2543
10276TIP3    H152319   0.769   4.607   0.052  0.3543 -0.3105 -1.6691
10276TIP3    H252320   0.851   4.722  -0.001 -0.1932  0.8755 -0.0149
10277TIP3   OH252321   3.430   1.972  16.653 -0.0191 -0.1542  0.2960
10277TIP3    H152322   3.485   1.901  16.687  0.1040 -0.7708 -1.1264
10277TIP3    H252323   3.377   1.999  16.728  1.1391 -0.5865  1.2913
10278TIP3   OH252324   1.399   1.331   0.061 -0.1146  0.2978  0.0486
10278TIP3    H152325   1.482   1.286   0.077 -0.7790 -0.3120  2.1494
10278TIP3    H252326   1.414   1.421   0.093 -0.3591  0.0866  0.7685
10279TIP3   OH252327   3.438   6.666   0.373 -1.0576 -0.0041 -0.0127
10279TIP3    H152328   3.381   6.724   0.323 -1.2629  0.2069  0.4645
10279TIP3    H252329   3.378   6.614   0.427 -0.7880  0.4197  0.7078
10280TIP3   OH252330   1.838   5.391  13.175  0.2844 -0.6637 -0.0694
10280TIP3    H152331   1.933   5.379  13.168  0.4169  0.2791  0.0413
10280TIP3    H252332   1.825   5.431  13.261  0.0634  1.6885 -1.1243
10281TIP3   OH252333   1.028   2.928   1.376  0.2597  0.6910  0.0257
10281TIP3    H152334   0.933   2.938   1.375  0.2721  0.7791 -1.1454
10281TIP3    H252335   1.055   2.964   1.461 -0.5671  2.4513 -0.4176
10282TIP3   OH252336   1.735   1.645   4.610  0.1952 -0.4025  0.1009
10282TIP3    H152337   1.698   1.732   4.626  1.2411  0.1405 -0.3553
10282TIP3    H252338   1.774   1.651   4.523 -0.4540 -1.5990 -0.2934
10283TIP3   OH252339   0.270   4.946   5.397 -0.1311  0.0862 -0.0789
10283TIP3    H152340   0.275   4.926   5.490 -0.0474  0.2465 -0.0487
10283TIP3    H252341   0.356   4.923   5.363 -0.3080 -0.4061 -0.2040
10284TIP3   OH252342   5.164   5.804   6.210  0.6346  0.3673 -0.1208
10284TIP3    H152343   5.202   5.767   6.289  1.3185  3.0060  0.8768
10284TIP3    H252344   5.206   5.755   6.138  0.8482 -1.2883  1.0683
10285TIP3   OH252345   2.023   3.710   2.626  0.5135  0.3249 -0.0564
10285TIP3    H152346   1.952   3.742   2.681  1.3311  1.4833  0.3558
10285TIP3    H252347   1.985   3.704   2.538 -0.8342 -1.6291  0.5931
10286TIP3   OH252348   5.538   2.410  14.111  0.1765 -0.4517  0.3338
10286TIP3    H152349   5.485   2.467  14.055  1.3205 -0.4672 -0.8296
10286TIP3    H252350   5.592   2.471  14.163 -0.7127 -0.4420  1.2686
10287TIP3   OH252351   6.027   6.657  14.602  0.5262  0.3794 -0.3753
10287TIP3    H152352   6.037   6.749  14.578  0.5361  0.4071 -0.2638
10287TIP3    H252353   5.947   6.654  14.655  1.2023  0.5204  0.6801
10288TIP3   OH252354   2.104   0.630  13.356  0.0446  0.0467 -0.6661
10288TIP3    H152355   2.058   0.713  13.342 -0.1630  0.0980  0.2274
10288TIP3    H252356   2.194   0.647  13.328  0.2311  0.8624  0.3588
10289TIP3   OH252357   4.238   2.685   2.757  0.2866 -0.1969  0.4008
10289TIP3    H152358   4.281   2.625   2.817  0.3038  0.2871  0.8756
10289TIP3    H252359   4.169   2.726   2.809 -2.5787 -2.8335 -0.9345
10290TIP3   OH252360   5.517   5.561  16.284 -0.4685 -0.9463  0.1157
10290TIP3    H152361   5.429   5.591  16.261 -0.7339 -2.3468 -0.8216
10290TIP3    H252362   5.520   5.565  16.380 -1.0981  0.3094  0.0940
10291TIP3   OH252363   1.121   5.610   5.788  0.4236  0.2357 -0.4290
10291TIP3    H152364   1.031   5.630   5.765 -0.0065 -1.8681 -0.7575
10291TIP3    H252365   1.171   5.687   5.760 -0.8021  0.0867 -3.3731
10292TIP3   OH252366   4.428   4.627  13.477  0.7630 -0.1588  0.0281
10292TIP3    H152367   4.445   4.625  13.572  0.6000  0.5399  0.0753
10292TIP3    H252368   4.511   4.656  13.439  1.1763 -1.5076 -0.1406
10293TIP3   OH252369   5.335   4.403  12.494  0.0824  0.3276 -0.7514
10293TIP3    H152370   5.420   4.382  12.455  0.1485 -1.6233  0.3305
10293TIP3    H252371   5.327   4.498  12.484  1.7321  0.3695 -2.1517
10294TIP3   OH252372   0.595   5.874   4.920 -0.6677 -0.1530 -0.7007
10294TIP3    H152373   0.563   5.916   4.840 -0.8619 -0.6500 -0.8901
10294TIP3    H252374   0.659   5.810   4.890 -0.1312  0.2360 -0.3888
10295TIP3   OH252375   1.451   6.204  12.952  0.5056  0.5297 -0.1677
10295TIP3    H152376   1.532   6.253  12.937  0.9843  0.1745  1.0848
10295TIP3    H252377   1.466   6.158  13.035 -2.4193  3.5500  2.3643
10296TIP3   OH252378   1.455   3.164  16.842  0.6954 -0.0326 -0.3744
10296TIP3    H152379   1.466   3.092  16.904 -0.7939 -2.0428 -2.2504
10296TIP3    H252380   1.468   3.243  16.893  1.2212 -1.6078  2.0747
10297TIP3   OH252381   5.033   1.231  11.893 -0.6311 -0.1699  0.3973
10297TIP3    H152382   4.982   1.312  11.897 -0.7769 -0.1875 -0.8011
10297TIP3    H252383   4.991   1.174  11.957 -2.4385 -0.3426 -0.8626
10298TIP3   OH252384   2.255   2.716   0.060 -0.0992  0.2810  0.5320
10298TIP3    H152385   2.204   2.762  -0.007  0.6708  0.5801  0.1454
10298TIP3    H252386   2.288   2.785   0.117 -2.2947 -0.0599  2.3933
10299TIP3   OH252387   5.415   1.651   1.152  0.2090  0.1991  0.2831
10299TIP3    H152388   5.495   1.653   1.100  1.2290 -1.0245  1.7345
10299TIP3    H252389   5.380   1.740   1.145  0.4085  0.1482 -2.2569
10300TIP3   OH252390   6.241   5.477   4.038  0.0186  0.6076  0.0078
10300TIP3    H152391   6.290   5.436   4.109 -1.1478 -1.4768 -0.3125
10300TIP3    H252392   6.276   5.438   3.958 -0.4282  1.0172 -0.3971
10301TIP3   OH252393   0.442   0.373  12.312  0.5519  0.0644  0.2062
10301TIP3    H152394   0.428   0.363  12.406  0.4315 -0.6373  0.1188
10301TIP3    H252395   0.534   0.349  12.299  0.1335 -1.5528 -0.0715
10302TIP3   OH252396   6.430   5.101   1.114 -0.1108 -0.3713  0.3677
10302TIP3    H152397   6.373   5.081   1.039 -1.1773  1.7699  0.5329
10302TIP3    H252398   6.511   5.134   1.074 -0.5230  0.3771  0.1319
10303TIP3   OH252399   1.618   3.235   1.414 -0.0455 -0.6197  0.0288
10303TIP3    H152400   1.600   3.326   1.390 -0.7809 -0.3604  1.4663
10303TIP3    H252401   1.577   3.183   1.344  1.3245  0.1415 -1.3879
10304TIP3   OH252402   5.924   2.300   3.768 -0.4107  0.0873 -0.3253
10304TIP3    H152403   5.992   2.286   3.702 -0.0895  0.8442 -0.1715
10304TIP3    H252404   5.852   2.243   3.741 -0.0931  0.0167 -1.0515
10305TIP3   OH252405   0.981   3.917  14.775 -0.0376  0.4095 -0.3085
10305TIP3    H152406   1.043   3.990  14.774  0.6264 -0.1417 -0.6780
10305TIP3    H252407   0.961   3.902  14.683  0.4831 -0.4067 -0.2977
10306TIP3   OH252408   2.347   6.795  13.017 -0.4402 -0.2583  0.1797
10306TIP3    H152409   2.348   6.706  12.982 -0.2002  0.5814 -2.0573
10306TIP3    H252410   2.278   6.840  12.969  1.2241  1.4904 -0.7098
10307TIP3   OH252411   0.185   1.081  13.668  0.4459 -0.3034  0.3658
10307TIP3    H152412   0.134   1.009  13.706 -0.7292  1.1731  1.7810
10307TIP3    H252413   0.144   1.097  13.583  1.0845 -1.6228 -0.2238
10308TIP3   OH252414   6.609   4.734   2.392 -0.1445 -0.1476 -0.2891
10308TIP3    H152415   6.594   4.804   2.328 -0.0306 -0.8188 -1.0713
10308TIP3    H252416   6.620   4.780   2.475 -1.4935  0.6754 -0.5313
10309TIP3   OH252417   2.705   5.317  11.806  0.5244 -0.1580 -0.2093
10309TIP3    H152418   2.658   5.234  11.822  0.0948 -0.1130 -1.1572
10309TIP3    H252419   2.637   5.384  11.808  0.8875  0.1908  0.6571
10310TIP3   OH252420   6.135   5.938   2.942  0.3602  0.2914  0.6529
10310TIP3    H152421   6.183   5.873   2.993  1.0110 -0.5117 -0.9036
10310TIP3    H252422   6.058   5.958   2.995  1.0169 -0.4752  1.9448
10311TIP3   OH252423   0.808   1.362  14.100 -0.1029  0.1636  0.1292
10311TIP3    H152424   0.871   1.310  14.050  0.1346  0.5263  0.0531
10311TIP3    H252425   0.757   1.408  14.034  0.8852  1.4475  0.2243
10312TIP3   OH252426   3.286   6.537  13.792 -0.2481 -0.2220  0.2903
10312TIP3    H152427   3.317   6.610  13.845 -0.2421 -0.0296  0.0245
10312TIP3    H252428   3.269   6.576  13.706  2.8529 -1.1044 -0.8709
10313TIP3   OH252429   6.527   5.654  17.212 -0.3732  1.0691  0.5246
10313TIP3    H152430   6.589   5.704  17.266 -0.7563  3.0749 -0.7724
10313TIP3    H252431   6.576   5.631  17.134 -1.1341  2.4587 -0.4037
10314TIP3   OH252432   2.869   3.574  13.839  0.2532  0.7280  0.2732
10314TIP3    H152433   2.821   3.628  13.903 -1.1601 -0.1867  0.0274
10314TIP3    H252434   2.961   3.591  13.859 -0.1352  0.5467  2.5080
10315TIP3   OH252435   3.438   1.017   1.234 -0.3721 -0.2028  0.0955
10315TIP3    H152436   3.482   1.046   1.314 -1.0001  0.8330  0.0674
10315TIP3    H252437   3.510   0.988   1.177  0.1709  0.1868  0.5743
10316TIP3   OH252438   0.606   5.046  17.162  0.0659  0.0420  0.0244
10316TIP3    H152439   0.579   5.120  17.217  0.2280  1.2754 -1.4706
10316TIP3    H252440   0.697   5.030  17.186 -0.3395 -0.5652  1.2694
10317TIP3   OH252441   5.714   6.002  16.290 -0.2208 -0.3564  0.4831
10317TIP3    H152442   5.642   6.039  16.239  0.5099  0.3208 -0.0830
10317TIP3    H252443   5.704   5.907  16.281 -0.2511 -0.2538 -0.7136
10318TIP3   OH252444   0.683   5.346   2.123 -0.2477 -0.3262 -0.1934
10318TIP3    H152445   0.667   5.440   2.127  1.3121 -0.0219  3.7053
10318TIP3    H252446   0.755   5.336   2.061  2.0076  1.6474  1.8751
10319TIP3   OH252447   0.228   3.945  12.969  0.3157 -0.7002 -0.0733
10319TIP3    H152448   0.222   4.040  12.955 -1.2889 -0.3998  2.1286
10319TIP3    H252449   0.322   3.928  12.975  0.7440  0.3479 -2.5544
10320TIP3   OH252450   3.441   3.367  14.398  0.2889  0.4221  0.2097
10320TIP3    H152451   3.347   3.378  14.412  0.4109  2.1197 -0.1920
10320TIP3    H252452   3.478   3.454  14.408  2.0948 -0.4689  2.1470
10321TIP3   OH252453   5.904   5.659   4.428  0.2426  0.1948 -0.2345
10321TIP3    H152454   5.835   5.650   4.363  0.1643  1.3184 -0.3251
10321TIP3    H252455   5.973   5.600   4.398 -0.6337 -0.8924 -0.1766
10322TIP3   OH252456   4.156   1.182   2.661 -0.0738  0.1062  0.4112
10322TIP3    H152457   4.173   1.137   2.744  0.4985  1.0627  0.8349
10322TIP3    H252458   4.157   1.275   2.684 -1.2578  0.3395 -0.4360
10323TIP3   OH252459   4.261   1.866   3.274  0.0507  1.0112 -0.6120
10323TIP3    H152460   4.348   1.829   3.257 -0.3940 -0.8067  0.7877
10323TIP3    H252461   4.276   1.932   3.342  0.3521  0.7957 -0.4665
10324TIP3   OH252462   6.592   0.303  13.863 -0.2177 -0.0033  0.3097
10324TIP3    H152463   6.517   0.327  13.918  1.6673  1.5592  2.3938
10324TIP3    H252464   6.630   0.227  13.906  0.5093  0.4206  0.4305
10325TIP3   OH252465   2.930   6.144   0.809 -0.1336 -0.1997  0.2928
10325TIP3    H152466   3.025   6.151   0.816 -0.0396 -1.6149  0.9604
10325TIP3    H252467   2.902   6.226   0.770  1.2068  0.8975  1.5206
10326TIP3   OH252468   5.342   0.447   5.351 -0.3586  0.4353 -0.3285
10326TIP3    H152469   5.387   0.369   5.320  0.0170  0.3599  0.3741
10326TIP3    H252470   5.331   0.501   5.273 -1.0136 -0.5030 -0.8966
10327TIP3   OH252471   1.996   2.890   3.959  0.2351 -0.3775 -0.1364
10327TIP3    H152472   2.090   2.892   3.977  0.2051  0.0769 -0.0094
10327TIP3    H252473   1.971   2.798   3.972  0.6684 -0.5081 -0.2152
10328TIP3   OH252474   1.725   5.798   2.878  0.1238  0.1718  0.1275
10328TIP3    H152475   1.784   5.783   2.804  0.8309 -1.5708  0.9942
10328TIP3    H252476   1.714   5.893   2.881  0.2559  0.3143 -2.0516
10329TIP3   OH252477   5.743   4.124  15.964 -0.4376 -0.0371  0.1562
10329TIP3    H152478   5.833   4.097  15.983 -1.1792 -2.6996  0.3117
10329TIP3    H252479   5.752   4.211  15.926  2.3626 -0.8336 -1.3367
10330TIP3   OH252480   3.195   3.312  11.370 -0.2963  1.0548  0.6281
10330TIP3    H152481   3.193   3.233  11.316  1.2307  1.8381 -0.6393
10330TIP3    H252482   3.201   3.278  11.460 -0.7189 -0.2631  0.1874
10331TIP3   OH252483   1.718   4.304  12.031 -0.2271  0.1858  0.1541
10331TIP3    H152484   1.653   4.337  12.093 -1.8169  0.6643 -1.6512
10331TIP3    H252485   1.697   4.211  12.022 -0.1650  0.1704  0.1746
10332TIP3   OH252486   4.996   3.378  11.128 -0.5617 -0.1199 -0.1486
10332TIP3    H152487   5.062   3.314  11.099 -2.4007 -0.7791 -3.3980
10332TIP3    H252488   4.912   3.337  11.107 -1.9036  2.3354  0.0612
10333TIP3   OH252489   2.982   5.474   5.346  0.3057  0.2674  0.0263
10333TIP3    H152490   3.071   5.509   5.341 -0.4249  2.0351 -1.9359
10333TIP3    H252491   2.948   5.506   5.429  0.8692  1.2285 -0.0974
10334TIP3   OH252492   0.270   3.413   0.144 -0.4880  0.1039  0.2791
10334TIP3    H152493   0.252   3.443   0.234  0.5131  0.1705  0.4722
10334TIP3    H252494   0.339   3.473   0.113  0.3399 -0.9397  0.0610
10335TIP3   OH252495   4.024   2.607  12.928 -0.3277 -0.0434  0.7525
10335TIP3    H152496   4.051   2.552  12.855 -1.6635  0.8786 -0.4924
10335TIP3    H252497   4.005   2.692  12.889  0.6246  1.0188  2.4596
10336TIP3   OH252498   5.968   4.592  12.854  0.0969 -0.0580  0.2214
10336TIP3    H152499   6.043   4.537  12.833  1.0372  0.2782  2.4679
10336TIP3    H252500   5.987   4.676  12.813 -0.3458 -0.7016 -1.4109
10337TIP3   OH252501   6.427   3.842   3.545 -0.5005  0.0681  0.3660
10337TIP3    H152502   6.449   3.829   3.453  1.8892  1.2334  0.7129
10337TIP3    H252503   6.355   3.781   3.561  0.3355 -1.5908 -1.7556
10338TIP3   OH252504   2.755   4.010  15.850  0.0596 -0.0432 -0.5924
10338TIP3    H152505   2.712   4.017  15.765  1.7229 -2.3657 -1.7270
10338TIP3    H252506   2.847   4.029  15.833  0.3262  0.0314  0.8209
10339TIP3   OH252507   6.811   4.860   2.056  0.1970 -0.0498 -0.5054
10339TIP3    H152508   6.739   4.907   2.099  0.6320  1.2928 -1.1742
10339TIP3    H252509   6.846   4.923   1.994  1.8547 -0.7366 -0.3086
10340TIP3   OH252510   2.547   1.750   2.726  0.0952 -0.7147 -0.1308
10340TIP3    H152511   2.568   1.823   2.784  0.8993 -0.0474 -1.2267
10340TIP3    H252512   2.472   1.707   2.768  0.3290  0.0489  1.1215
10341TIP3   OH252513   2.038   3.704  14.503 -0.6362 -0.2983  0.3510
10341TIP3    H152514   1.979   3.735  14.435 -0.1823  2.7414  1.1645
10341TIP3    H252515   1.981   3.677  14.575 -1.0721 -1.3787 -0.3885
10342TIP3   OH252516   6.400   3.226  14.967  0.2012 -0.0193 -0.5682
10342TIP3    H152517   6.486   3.238  15.008 -1.0364  1.3928  1.8009
10342TIP3    H252518   6.402   3.282  14.889  0.8522  1.4033  0.4285
10343TIP3   OH252519   0.822   3.212  11.251  0.1104  0.6752  0.2320
10343TIP3    H152520   0.838   3.302  11.225  1.9412  0.3072 -0.0098
10343TIP3    H252521   0.909   3.173  11.260 -0.5608 -1.8166 -2.3021
10344TIP3   OH252522   0.199   1.985  16.829 -0.0794  0.6232 -0.4999
10344TIP3    H152523   0.146   2.064  16.817 -0.2479  0.4154 -1.1778
10344TIP3    H252524   0.289   2.014  16.818 -0.0354  0.9939  0.7350
10345TIP3   OH252525   6.115   5.800  11.858 -0.1121  1.1143 -0.0345
10345TIP3    H152526   6.096   5.711  11.887 -0.5652  2.0374  2.7389
10345TIP3    H252527   6.068   5.808  11.775  0.7419 -1.4919 -0.8889
10346TIP3   OH252528   1.856   3.334  11.641 -0.2787 -0.5924 -0.0865
10346TIP3    H152529   1.819   3.422  11.642  0.1111 -0.4258 -0.0752
10346TIP3    H252530   1.883   3.321  11.550 -0.7208 -0.8680 -0.1837
10347TIP3   OH252531   6.827   3.455  14.217 -0.9870 -0.8727  0.1260
10347TIP3    H152532   6.758   3.512  14.183  1.3856  0.8917 -2.1920
10347TIP3    H252533   6.848   3.397  14.144  0.4072 -0.9116  0.5317
10348TIP3   OH252534   2.215   5.277   4.929 -0.2239  0.1361 -0.0795
10348TIP3    H152535   2.229   5.309   5.018 -1.0405  1.2014 -0.3025
10348TIP3    H252536   2.237   5.352   4.873 -0.5858 -0.2294 -0.7225
10349TIP3   OH252537   5.545   1.430   5.683 -0.0052  0.0121  0.9222
10349TIP3    H152538   5.552   1.343   5.724  0.3056  0.0693  1.0006
10349TIP3    H252539   5.556   1.491   5.756  0.4524  0.1161  0.7691
10350TIP3   OH252540   4.300   0.748  15.892 -0.1747 -0.6153 -0.1535
10350TIP3    H152541   4.305   0.680  15.824  1.1688 -1.9531  1.1820
10350TIP3    H252542   4.269   0.702  15.970  1.7029  0.0229  1.0484
10351TIP3   OH252543   3.583   4.302  11.536  0.1649  0.6528  0.1085
10351TIP3    H152544   3.491   4.281  11.550  0.3837 -0.6362 -0.2722
10351TIP3    H252545   3.593   4.307  11.441  0.2764  1.8464  0.1696
10352TIP3   OH252546   5.705   3.402  12.822  0.4667  0.3805  0.3644
10352TIP3    H152547   5.610   3.395  12.832  0.2969  1.2546 -0.4498
10352TIP3    H252548   5.717   3.449  12.739  1.5857  1.4594  1.1001
10353TIP3   OH252549   4.755   3.245  16.367 -0.6209 -0.1701  0.0364
10353TIP3    H152550   4.849   3.252  16.385 -0.7558 -0.4723  0.9153
10353TIP3    H252551   4.748   3.183  16.295 -0.0109  1.5297 -1.5844
10354TIP3   OH252552   2.248   1.247   4.799 -0.0173  0.1901  0.3969
10354TIP3    H152553   2.172   1.194   4.773  0.4741 -0.4679  0.2999
10354TIP3    H252554   2.221   1.337   4.780 -1.2630  0.0900  1.5455
10355TIP3   OH252555   5.363   5.228   4.982 -0.2031 -0.0778 -0.4874
10355TIP3    H152556   5.422   5.265   4.916 -1.9108  1.3931 -1.2704
10355TIP3    H252557   5.312   5.163   4.933 -0.8287  0.3394 -0.3867
10356TIP3   OH252558   3.243   3.059  14.610  0.1290 -0.3848  0.4178
10356TIP3    H152559   3.152   3.029  14.603  0.1154 -0.7516  1.8275
10356TIP3    H252560   3.236   3.150  14.637  0.1854 -0.3529  0.3254
10357TIP3   OH252561   0.172   0.036  12.487 -0.5976  0.6483  0.2623
10357TIP3    H152562   0.258   0.011  12.452 -0.7711 -2.6452  1.8111
10357TIP3    H252563   0.109  -0.006  12.428 -1.0842  0.8044  0.6633
10358TIP3   OH252564   0.532   5.201   1.547  0.0663  0.6333  0.3712
10358TIP3    H152565   0.438   5.186   1.539 -0.3448  3.4769 -1.1788
10358TIP3    H252566   0.571   5.123   1.507 -1.7029  0.4441 -1.1627
10359TIP3   OH252567   6.815   0.581   4.469 -0.2753  0.4587  0.4194
10359TIP3    H152568   6.847   0.493   4.452 -0.8330  0.4525 -0.6794
10359TIP3    H252569   6.808   0.586   4.565 -0.5040 -0.7870  0.4846
10360TIP3   OH252570   1.545   2.505  11.070 -0.6272 -0.1495  0.3025
10360TIP3    H152571   1.453   2.512  11.044 -0.3823  0.9081 -0.3327
10360TIP3    H252572   1.546   2.529  11.162 -1.0016 -0.2881  0.3479
10361TIP3   OH252573   2.044   5.663   4.675  0.1386 -0.2450  0.7748
10361TIP3    H152574   2.091   5.648   4.593 -2.5258 -1.5640 -0.6488
10361TIP3    H252575   2.034   5.758   4.680 -0.9162 -0.2003 -1.2433
10362TIP3   OH252576   5.338   0.955   0.293  0.4073 -0.1805  0.2130
10362TIP3    H152577   5.302   0.875   0.332  1.6083 -1.1814 -0.6343
10362TIP3    H252578   5.431   0.953   0.316  0.4939  0.8498 -0.0204
10363TIP3   OH252579   1.237   1.875  10.288 -0.1800  0.0895 -0.3052
10363TIP3    H152580   1.253   1.857  10.381  0.9256  1.2596 -0.2400
10363TIP3    H252581   1.142   1.883  10.281 -0.4012 -1.4491  0.4243
10364TIP3   OH252582   6.369   6.683  14.399  0.3566  0.1426 -0.1307
10364TIP3    H152583   6.338   6.736  14.472  1.4292  0.0988  0.3741
10364TIP3    H252584   6.306   6.611  14.393  0.1725  0.2326  0.6539
10365TIP3   OH252585   2.206   0.560   4.442  0.0898  0.4184 -0.7409
10365TIP3    H152586   2.159   0.532   4.521 -2.1737 -1.0871 -2.4952
10365TIP3    H252587   2.244   0.644   4.466 -0.4550  0.0059  1.9549
10366TIP3   OH252588   0.666   3.194  11.507  0.3218 -0.1704  0.2547
10366TIP3    H152589   0.687   3.219  11.417 -2.7257 -1.1773 -0.8425
10366TIP3    H252590   0.679   3.273  11.558 -2.8885  2.0587 -2.0036
10367TIP3   OH252591   6.298   0.482   0.999  0.3272  0.1276 -0.1231
10367TIP3    H152592   6.343   0.564   0.980  0.3963 -0.1045 -1.0101
10367TIP3    H252593   6.207   0.507   1.013  0.1297  0.2537 -1.4739
10368TIP3   OH252594   3.930   4.709  14.059 -0.1442  0.5354 -0.0654
10368TIP3    H152595   4.013   4.661  14.059 -0.7198 -0.4934 -0.0385
10368TIP3    H252596   3.931   4.758  14.141  0.3637  0.3995  0.0150
10369TIP3   OH252597   4.747   4.047   4.351  0.0093  0.3944  0.1779
10369TIP3    H152598   4.728   4.072   4.261  0.5583 -0.3165 -0.1390
10369TIP3    H252599   4.664   4.061   4.398 -0.4535  0.1616 -0.5599
10370TIP3   OH252600   2.291   0.290  13.998 -0.5990 -0.8715  0.2390
10370TIP3    H152601   2.293   0.355  13.928 -1.9552 -3.1179 -2.0576
10370TIP3    H252602   2.259   0.338  14.074 -0.4890  1.3611 -1.0126
10371TIP3   OH252603   3.345   1.833   3.864  0.0255 -0.2640 -0.5393
10371TIP3    H152604   3.415   1.792   3.914 -1.3230 -2.0084  0.0129
10371TIP3    H252605   3.340   1.782   3.783 -0.3483  0.0979 -0.7493
10372TIP3   OH252606   2.637   5.755   5.164  0.3973 -0.1733  0.5906
10372TIP3    H152607   2.562   5.798   5.124  1.4463  0.8747 -0.2961
10372TIP3    H252608   2.640   5.668   5.123  1.2012  0.7223 -1.3402
10373TIP3   OH252609   4.222   3.007  16.762  0.3622  0.0860 -0.1779
10373TIP3    H152610   4.154   2.954  16.803 -0.0633  0.5449 -0.2746
10373TIP3    H252611   4.295   2.947  16.749  0.5111 -0.0831  1.2488
10374TIP3   OH252612   6.343   6.042  11.369  0.1720  0.4523 -0.4990
10374TIP3    H152613   6.300   6.079  11.292  0.5379 -0.2458 -1.0519
10374TIP3    H252614   6.429   6.082  11.369 -0.4816  1.9315  0.6685
10375TIP3   OH252615   5.658   3.689  14.453 -0.0968 -0.0593 -0.0984
10375TIP3    H152616   5.719   3.618  14.472 -0.1910 -0.3130 -0.7195
10375TIP3    H252617   5.606   3.698  14.533 -0.1271 -0.7337 -0.0352
10376TIP3   OH252618   2.607   4.850   3.124  0.1983  0.3635  0.5224
10376TIP3    H152619   2.676   4.849   3.057  1.0457  0.3733  1.3689
10376TIP3    H252620   2.543   4.914   3.092 -0.8713 -1.6739 -1.6653
10377TIP3   OH252621   1.327   3.736  16.881 -0.4245  0.6437 -0.1025
10377TIP3    H152622   1.382   3.770  16.951 -0.7220 -2.2372  1.6801
10377TIP3    H252623   1.237   3.746  16.912 -0.5208 -2.0873  0.8310
10378TIP3   OH252624   5.617   0.593  15.325 -0.1698  0.0191  0.2881
10378TIP3    H152625   5.542   0.533  15.323 -0.9237  0.9303 -0.8513
10378TIP3    H252626   5.688   0.543  15.364 -0.5043 -1.9525 -1.4560
10379TIP3   OH252627   0.722   5.469   3.975 -0.0483 -0.4610 -0.6671
10379TIP3    H152628   0.746   5.496   4.064 -0.1595  0.6347 -0.9553
10379TIP3    H252629   0.688   5.548   3.935 -1.1726 -1.2395 -1.2934
10380TIP3   OH252630   3.829   0.279  16.674  0.4744  0.6266  0.4411
10380TIP3    H152631   3.885   0.355  16.656 -0.2367  1.0586 -0.0108
10380TIP3    H252632   3.869   0.237  16.750  2.0334  0.2951 -0.5296
10381TIP3   OH252633   6.621   0.127  16.340  0.4131  0.4286 -0.0984
10381TIP3    H152634   6.706   0.168  16.326  2.7039 -3.0283  2.0867
10381TIP3    H252635   6.595   0.096  16.254  1.5135  1.2991 -0.7768
10382TIP3   OH252636   2.873   5.993   0.528  0.2048 -0.8806 -1.1846
10382TIP3    H152637   2.947   5.999   0.589 -0.8555  0.7550  0.0329
10382TIP3    H252638   2.887   6.066   0.468 -1.3201  0.6139  0.1818
10383TIP3   OH252639   1.404   2.607   1.790  0.4987  0.0359 -0.4523
10383TIP3    H152640   1.316   2.573   1.777  0.1730  0.3488  0.7873
10383TIP3    H252641   1.432   2.570   1.874  0.6312  1.7374  0.3033
10384TIP3   OH252642   5.768   1.786  12.589 -0.6212  0.6335 -0.3537
10384TIP3    H152643   5.793   1.696  12.570  0.7367  1.1690 -1.3549
10384TIP3    H252644   5.678   1.794  12.557 -0.7468 -0.3576 -0.2610
10385TIP3   OH252645   2.785   3.642   1.508 -0.0926  0.2569 -0.0915
10385TIP3    H152646   2.846   3.573   1.482 -0.0131  0.7708 -1.3370
10385TIP3    H252647   2.701   3.615   1.472 -0.4281 -0.0267  0.8864
10386TIP3   OH252648   2.290   0.540   3.118 -0.1919 -0.6229 -0.0598
10386TIP3    H152649   2.354   0.510   3.183  0.5928 -0.4916 -0.7504
10386TIP3    H252650   2.294   0.475   3.048 -0.1494 -0.1489 -0.5116
10387TIP3   OH252651   0.020   5.804  15.575  0.3283 -0.3797  0.4288
10387TIP3    H152652   0.003   5.722  15.623  0.1744  0.5177  1.9911
10387TIP3    H252653  -0.037   5.868  15.618 -0.5865  0.2859 -1.6701
10388TIP3   OH252654   6.667   6.332  12.562  0.4703 -0.4720  0.1642
10388TIP3    H152655   6.753   6.360  12.530  0.8286 -1.2840  0.3958
10388TIP3    H252656   6.614   6.324  12.482  0.3458  0.8383  0.0866
10389TIP3   OH252657   5.632   2.323  13.870  0.6025 -0.3079 -0.2860
10389TIP3    H152658   5.618   2.357  13.958 -2.3554 -1.5367 -0.2037
10389TIP3    H252659   5.633   2.402  13.814  0.0349  0.3107  0.5554
10390TIP3   OH252660   5.054   4.964  14.799  0.3958 -0.1273 -0.0928
10390TIP3    H152661   5.012   4.893  14.750 -0.7371 -0.1012  0.8180
10390TIP3    H252662   5.045   4.939  14.891  1.3891  0.4406  0.1792
10391TIP3   OH252663   4.357   4.499  16.482 -0.2849 -0.4202  0.0869
10391TIP3    H152664   4.443   4.456  16.480 -1.0339 -2.5526  3.5643
10391TIP3    H252665   4.330   4.503  16.391  2.9374 -0.8486 -1.0223
10392TIP3   OH252666   6.788   4.595   4.204  0.5378 -0.6093 -0.4838
10392TIP3    H152667   6.877   4.560   4.190  1.0249 -0.2687  1.4704
10392TIP3    H252668   6.738   4.519   4.234  0.7876 -0.3470  0.6577
10393TIP3   OH252669   6.193   2.700  15.469  0.0281  0.3999  0.2018
10393TIP3    H152670   6.245   2.747  15.535 -1.0337 -0.0531  1.3889
10393TIP3    H252671   6.147   2.769  15.422 -0.0372  0.6628  0.6486
10394TIP3   OH252672   3.125   2.994  11.992  0.0664  0.2694  0.2442
10394TIP3    H152673   3.192   3.001  11.925 -1.5161  2.2357 -1.2783
10394TIP3    H252674   3.173   2.988  12.074  2.0739  0.7979 -0.8324
10395TIP3   OH252675   3.523   4.430   2.239 -0.1553  1.3233 -0.1314
10395TIP3    H152676   3.558   4.362   2.182 -0.6259  0.4733  0.5764
10395TIP3    H252677   3.429   4.432   2.220 -0.2843  1.1675  0.4698
10396TIP3   OH252678   4.885   4.879  13.962 -0.0441  0.5690 -0.0094
10396TIP3    H152679   4.793   4.859  13.975 -0.0125  0.3806 -0.0697
10396TIP3    H252680   4.920   4.803  13.914 -0.1817  1.2641 -1.2550
10397TIP3   OH252681   6.448   1.401  11.271  0.2303  0.0356  0.1951
10397TIP3    H152682   6.490   1.483  11.245  2.4486 -0.7990  0.9304
10397TIP3    H252683   6.452   1.346  11.194  0.8644 -0.1820  0.3818
10398TIP3   OH252684   6.560   4.122   5.179  0.1589 -0.5555 -0.4033
10398TIP3    H152685   6.641   4.128   5.229 -0.5475  2.1802  0.6079
10398TIP3    H252686   6.576   4.175   5.101 -0.7070  0.2059 -0.0815
10399TIP3   OH252687   2.781   0.156   0.216 -0.2759  0.0427  0.2017
10399TIP3    H152688   2.704   0.111   0.251  0.2853 -1.4143 -0.3653
10399TIP3    H252689   2.753   0.187   0.130 -0.1807 -0.6606 -0.0882
10400TIP3   OH252690   6.713   5.995  11.860 -0.6405  0.2406  0.1720
10400TIP3    H152691   6.694   5.930  11.793 -0.6182 -0.9528  1.3003
10400TIP3    H252692   6.786   5.958  11.909  0.2950  1.7555 -0.0074
10401TIP3   OH252693   0.850   6.588   3.002 -0.0599  0.0673  0.0600
10401TIP3    H152694   0.772   6.536   3.022 -0.9487  1.7221  1.1811
10401TIP3    H252695   0.816   6.667   2.959  1.2502 -0.2826 -1.7419
10402TIP3   OH252696   3.771   6.086  13.508 -0.0967 -0.1924  0.3892
10402TIP3    H152697   3.677   6.097  13.489 -0.1239  0.7284  0.9886
10402TIP3    H252698   3.785   5.991  13.507 -1.4883 -0.4803  2.3077
10403TIP3   OH252699   5.204   3.924   0.104  0.4716 -0.0441 -0.2644
10403TIP3    H152700   5.180   3.971   0.025  3.7171 -1.3986 -2.2823
10403TIP3    H252701   5.184   3.832   0.085  0.7606 -0.3155  0.6844
10404TIP3   OH252702   5.362   3.159   3.719 -0.3794 -0.1281 -0.2139
10404TIP3    H152703   5.300   3.147   3.646 -1.2713  1.6151  0.1976
10404TIP3    H252704   5.339   3.244   3.756  2.1895  0.5153  0.0719
10405TIP3   OH252705   6.456   3.857   5.691 -0.3835  0.1448 -0.7591
10405TIP3    H152706   6.499   3.939   5.667 -1.7252  1.6202  1.4404
10405TIP3    H252707   6.497   3.831   5.773 -1.7573  0.0969 -0.0582
10406TIP3   OH252708   3.131   0.511   4.101  0.5225 -0.0988  0.0775
10406TIP3    H152709   3.112   0.501   4.194  0.3125  3.4742  0.5592
10406TIP3    H252710   3.048   0.541   4.063  1.1997  0.7289 -0.7889
10407TIP3   OH252711   1.726   0.209   2.729  0.3822 -0.5977 -0.1735
10407TIP3    H152712   1.729   0.123   2.688  0.4340  0.5371 -2.7547
10407TIP3    H252713   1.636   0.239   2.714  0.5751  0.0964  0.0379
10408TIP3   OH252714   2.628   3.416  16.747 -0.3436 -0.2230  0.6004
10408TIP3    H152715   2.643   3.333  16.791  0.3676  0.3038  1.3826
10408TIP3    H252716   2.649   3.399  16.655  0.4913 -0.7265  0.8812
10409TIP3   OH252717   2.616   2.814   2.956  0.5298 -0.0059 -0.0188
10409TIP3    H152718   2.531   2.857   2.953  1.3991  1.8762  0.6851
10409TIP3    H252719   2.652   2.827   2.868 -0.8852 -3.1234 -1.2139
10410TIP3   OH252720   3.528   4.851  16.711 -0.3644 -0.1861 -0.2753
10410TIP3    H152721   3.605   4.876  16.662  0.1703  0.2941  0.7704
10410TIP3    H252722   3.480   4.793  16.653  1.2334 -1.2205 -0.6327
10411TIP3   OH252723   0.914   2.634  16.050 -0.0748  0.4392 -0.0785
10411TIP3    H152724   0.968   2.647  15.973  1.1336 -1.1343  0.4469
10411TIP3    H252725   0.962   2.675  16.122 -0.5657  0.7798  0.0667
10412TIP3   OH252726   5.243   0.200   4.053 -0.4035 -0.2100 -0.1985
10412TIP3    H152727   5.276   0.254   4.125 -0.9388 -1.8372  1.3219
10412TIP3    H252728   5.319   0.148   4.025 -0.1640  0.5086 -0.9295
10413TIP3   OH252729   0.340   1.901   3.353 -0.1585  0.4626 -0.1962
10413TIP3    H152730   0.333   1.979   3.409  0.0783  0.4773 -0.1842
10413TIP3    H252731   0.418   1.855   3.386  0.2781  0.7295 -0.8284
10414TIP3   OH252732   2.969   5.206  12.061 -0.2342 -0.6449  0.2536
10414TIP3    H152733   3.011   5.290  12.075  1.2432 -0.9569 -1.8866
10414TIP3    H252734   2.989   5.155  12.139  0.1465  0.4657  0.8923
10415TIP3   OH252735   5.806   4.983  11.556 -0.0347  0.3520  0.6294
10415TIP3    H152736   5.856   4.939  11.488 -0.8880 -2.3447  1.6025
10415TIP3    H252737   5.866   4.989  11.631  0.3882  1.8251  0.2014
10416TIP3   OH252738   0.802   4.394  14.054 -0.0115 -0.0192 -0.2665
10416TIP3    H152739   0.804   4.352  13.968  2.4275 -0.5232 -0.0331
10416TIP3    H252740   0.856   4.338  14.110 -0.7646  0.8087  1.3649
10417TIP3   OH252741   3.636   4.614   0.193  0.2252  0.1510  0.3038
10417TIP3    H152742   3.700   4.585   0.258  2.7059  1.8294 -1.1912
10417TIP3    H252743   3.596   4.692   0.232  0.9204  0.5300  0.2796
10418TIP3   OH252744   2.131   3.360  16.646 -0.4224  0.1987  0.1000
10418TIP3    H152745   2.190   3.407  16.587  1.5564 -1.1372  0.8854
10418TIP3    H252746   2.158   3.268  16.639 -1.6676 -0.3074  1.3725
10419TIP3   OH252747   2.554   2.414  12.619  0.9352 -0.7328  0.2710
10419TIP3    H152748   2.558   2.362  12.699 -0.8777 -1.0326  0.2095
10419TIP3    H252749   2.470   2.391  12.579  1.4806 -0.0648 -1.3606
10420TIP3   OH252750   0.619   5.893   3.082  0.0518  0.2229  0.7605
10420TIP3    H152751   0.565   5.947   3.139  1.0114  2.9036 -0.7149
10420TIP3    H252752   0.646   5.820   3.137 -1.4633  1.1197  2.8097
10421TIP3   OH252753   1.415   0.225  11.811  0.0897  0.6158  0.1103
10421TIP3    H152754   1.391   0.310  11.775 -0.5444  0.6523  0.5989
10421TIP3    H252755   1.432   0.170  11.734 -1.9321  0.4908 -0.2961
10422TIP3   OH252756   3.942   6.366  12.927  0.0159 -0.4380  0.5170
10422TIP3    H152757   3.861   6.417  12.923  0.9642  1.0783 -0.4171
10422TIP3    H252758   3.965   6.365  13.020  0.9297  2.5314  0.4217
10423TIP3   OH252759   1.984   4.085   1.642  0.6165 -0.0431 -0.1539
10423TIP3    H152760   1.919   4.035   1.592  0.6912 -0.7822  0.4692
10423TIP3    H252761   1.935   4.119   1.717  0.5116  1.0390 -0.6831
10424TIP3   OH252762   2.525   0.097  17.057  0.0353  0.0486  0.1225
10424TIP3    H152763   2.439   0.081  17.097  0.0639 -0.5197 -0.0344
10424TIP3    H252764   2.577   0.137  17.127  0.5352 -2.2580  1.1628
10425TIP3   OH252765   2.954   0.663  13.851  0.1232 -0.3498 -0.5201
10425TIP3    H152766   2.872   0.617  13.831  1.2442 -1.3265 -3.5280
10425TIP3    H252767   2.992   0.681  13.765  2.6564  0.9027  0.7549
10426TIP3   OH252768   1.811   2.108   4.111  0.1428 -0.4078 -0.2359
10426TIP3    H152769   1.858   2.191   4.105 -1.2423  0.3774 -0.7525
10426TIP3    H252770   1.724   2.132   4.144  0.2351 -1.8728  1.2420
10427TIP3   OH252771   3.628   3.852  11.156  0.1695  0.4765 -0.3117
10427TIP3    H152772   3.644   3.806  11.074 -2.2380  0.5533 -0.8931
10427TIP3    H252773   3.563   3.918  11.135 -0.0011  0.9645  1.5249
10428TIP3   OH252774   3.879   1.758   1.072  0.0040 -0.3199 -0.2620
10428TIP3    H152775   3.956   1.711   1.105 -0.6037 -1.4721 -0.4145
10428TIP3    H252776   3.826   1.774   1.151  0.3742  0.4639 -0.1584
10429TIP3   OH252777   1.635   3.828   3.357 -0.3421  0.3503 -0.0465
10429TIP3    H152778   1.661   3.887   3.286 -1.6636  1.0290 -0.0133
10429TIP3    H252779   1.539   3.836   3.359 -0.5950 -2.0516 -0.2500
10430TIP3   OH252780   2.990   1.407  11.944 -0.3211 -0.2468  0.3526
10430TIP3    H152781   2.975   1.502  11.950  0.8550  0.0918 -1.2913
10430TIP3    H252782   3.000   1.378  12.035  0.8003  1.4678  0.8182
10431TIP3   OH252783   2.327   1.579  16.728  0.3294  0.4197  0.3640
10431TIP3    H152784   2.345   1.640  16.656  1.0294  0.2143  0.3564
10431TIP3    H252785   2.412   1.539  16.747 -0.2819 -1.2619 -0.2790
10432TIP3   OH252786   0.847   0.381  14.884  0.2119  0.1349  0.0233
10432TIP3    H152787   0.812   0.450  14.828 -0.4026 -0.2420 -0.0777
10432TIP3    H252788   0.769   0.330  14.909  0.8062 -1.4756 -1.2022
10433TIP3   OH252789   5.786   6.052  13.299 -0.2102 -0.1006 -0.0981
10433TIP3    H152790   5.842   6.099  13.362  0.3398 -0.8740  0.0031
10433TIP3    H252791   5.745   5.983  13.350 -1.5790  0.6733 -0.0892
10434TIP3   OH252792   5.796   0.242  12.123 -0.2565 -0.5308  0.4349
10434TIP3    H152793   5.736   0.219  12.194  0.5235 -3.0893  0.3424
10434TIP3    H252794   5.753   0.316  12.079 -1.6358 -0.0756  2.4173
10435TIP3   OH252795   3.080   6.588  15.027  0.1729  0.3617 -0.2525
10435TIP3    H152796   3.168   6.564  15.054 -0.5467 -1.9345  0.2946
10435TIP3    H252797   3.071   6.555  14.938 -0.4114 -0.2364  0.0199
10436TIP3   OH252798   6.442   6.572   3.053  0.0857  0.1326 -0.4488
10436TIP3    H152799   6.422   6.541   3.142 -0.5913  0.2460 -0.5579
10436TIP3    H252800   6.387   6.650   3.043  0.4370  0.3313 -0.8370
10437TIP3   OH252801   1.224   5.760   2.526 -0.0675 -0.0903 -0.1837
10437TIP3    H152802   1.180   5.842   2.549 -0.2559 -0.0568 -0.6568
10437TIP3    H252803   1.203   5.746   2.434 -1.7366 -1.7110  0.3851
10438TIP3   OH252804   4.252   6.682  15.704 -0.5071 -0.4702  0.2718
10438TIP3    H152805   4.302   6.762  15.720 -0.0275 -1.0902  2.1289
10438TIP3    H252806   4.317   6.612  15.704 -0.7961 -0.8351 -2.3075
10439TIP3   OH252807   3.264   0.124   5.730  0.1154 -0.1382 -0.1211
10439TIP3    H152808   3.293   0.067   5.802 -1.5395  0.4944  1.0999
10439TIP3    H252809   3.327   0.107   5.660  0.4343 -2.5145  0.6346
10440TIP3   OH252810   6.008   2.126   2.008  0.4797 -0.5863  0.2656
10440TIP3    H152811   6.023   2.057   1.944  0.6298  0.0233 -0.3675
10440TIP3    H252812   5.969   2.081   2.083 -1.2808 -1.0652 -0.8886
10441TIP3   OH252813   1.688   6.188   0.621 -0.6535 -0.1886  0.4905
10441TIP3    H152814   1.743   6.265   0.609  0.7182 -1.0933  0.7988
10441TIP3    H252815   1.708   6.132   0.546 -1.4610 -0.3676  0.3934
10442TIP3   OH252816   2.968   4.384   3.541  0.1734 -0.7191 -0.1053
10442TIP3    H152817   2.975   4.438   3.620  1.6372 -1.5199  0.3439
10442TIP3    H252818   2.929   4.442   3.476  0.2586  0.3992  0.8120
10443TIP3   OH252819   2.566   0.718   1.021  0.3429  0.9165 -0.3826
10443TIP3    H152820   2.519   0.693   1.101  0.6812  1.1170 -0.1170
10443TIP3    H252821   2.505   0.775   0.975  0.0114  0.5226 -0.4375
10444TIP3   OH252822   0.382   2.941   2.663 -0.8188 -0.1421 -0.4244
10444TIP3    H152823   0.412   2.964   2.751 -0.1748 -0.5088 -0.5432
10444TIP3    H252824   0.442   2.872   2.635  0.4752  1.5557 -2.0826
10445TIP3   OH252825   5.272   0.719   1.532  0.2499  0.0452 -0.5147
10445TIP3    H152826   5.217   0.681   1.600  1.4659 -0.8077  0.0267
10445TIP3    H252827   5.303   0.802   1.568  0.3289 -0.0724 -0.3128
10446TIP3   OH252828   2.325   0.551   2.410 -0.2482  0.2168 -0.5436
10446TIP3    H152829   2.376   0.488   2.360 -1.9256 -0.6490 -1.2709
10446TIP3    H252830   2.295   0.615   2.345  0.6115  1.2100  0.0199
10447TIP3   OH252831   2.438   5.550   6.238 -0.3172 -0.4403 -0.2371
10447TIP3    H152832   2.500   5.522   6.306 -0.5308 -2.4624 -0.8252
10447TIP3    H252833   2.353   5.523   6.271 -0.5426 -0.4420 -0.8261
10448TIP3   OH252834   3.047   1.636   3.341  0.4892  0.4165 -0.5444
10448TIP3    H152835   3.081   1.725   3.338  0.6576  0.4174  0.9883
10448TIP3    H252836   2.987   1.635   3.415  0.1629 -0.6446 -0.8007
10449TIP3   OH252837   6.230   1.860  16.694  0.5739  0.0298  0.6994
10449TIP3    H152838   6.222   1.863  16.599  0.1083  0.5319  0.7529
10449TIP3    H252839   6.140   1.865  16.726  0.7579  0.3075  1.1799
10450TIP3   OH252840   0.543   3.463   2.580  0.5694  0.1729 -0.1773
10450TIP3    H152841   0.460   3.500   2.550  0.1701 -0.7796 -0.2849
10450TIP3    H252842   0.560   3.391   2.520  2.5744  1.6416 -1.4862
10451TIP3   OH252843   1.251   3.792  15.661  0.0960  0.3399  0.0386
10451TIP3    H152844   1.317   3.846  15.704  0.3996 -0.0536  0.0768
10451TIP3    H252845   1.170   3.807  15.711  0.9997 -2.1535  2.5336
10452TIP3   OH252846   3.582   0.018   4.307  0.1035 -0.3430 -0.0785
10452TIP3    H152847   3.553  -0.015   4.392 -1.2380 -0.6784 -0.6520
10452TIP3    H252848   3.678   0.012   4.311  0.0879  0.2155  1.6225
10453TIP3   OH252849   0.558   2.575   5.830  0.4262  0.1908  0.0309
10453TIP3    H152850   0.614   2.575   5.908  0.8902 -0.5444 -0.2945
10453TIP3    H252851   0.560   2.665   5.799  1.4466  0.1603  0.0082
10454TIP3   OH252852   4.968   1.765  12.020  0.5038  0.0153  0.3726
10454TIP3    H152853   4.901   1.799  12.079 -2.3133 -3.0642 -0.8099
10454TIP3    H252854   4.953   1.810  11.938 -1.2396 -1.6729 -0.3147
10455TIP3   OH252855   2.022   5.082   5.048  0.0277  0.3139 -0.7101
10455TIP3    H152856   2.061   5.156   5.002 -1.2079  0.3003 -1.8140
10455TIP3    H252857   2.047   5.096   5.140 -0.9134  2.6206 -0.7185
10456TIP3   OH252858   0.529   4.354   0.340  0.2876  0.1003 -0.0590
10456TIP3    H152859   0.526   4.435   0.390  1.4092 -0.2453  0.6021
10456TIP3    H252860   0.471   4.370   0.265  0.5645  1.5359  0.0104
10457TIP3   OH252861   1.154   5.303   3.279 -0.0819 -0.2873 -0.4306
10457TIP3    H152862   1.236   5.344   3.250  0.0107 -1.2982 -1.6648
10457TIP3    H252863   1.182   5.242   3.348  0.1252 -0.2289 -0.4603
10458TIP3   OH252864   2.894   3.842  13.535  0.2844  0.7154 -0.1008
10458TIP3    H152865   2.962   3.799  13.483  0.7690  1.9424 -0.5193
10458TIP3    H252866   2.934   3.856  13.621  0.2166  0.5922 -0.0474
10459TIP3   OH252867   4.235   1.015   3.631  0.4669 -0.5243 -0.2596
10459TIP3    H152868   4.197   0.929   3.653  0.9607 -0.2007  2.1444
10459TIP3    H252869   4.304   1.028   3.696  0.6630  1.5370 -0.8144
10460TIP3   OH252870   4.552   6.173  11.028  0.4582  0.1042  0.2238
10460TIP3    H152871   4.509   6.102  10.980 -0.6352  0.0571  1.2235
10460TIP3    H252872   4.609   6.215  10.963 -0.4247 -0.3993 -0.9110
10461TIP3   OH252873   5.288   4.877   2.138  0.1823 -0.2786 -0.7214
10461TIP3    H152874   5.335   4.795   2.152  0.0359 -0.2533 -0.0424
10461TIP3    H252875   5.199   4.850   2.114 -1.0925 -0.4250  3.4239
10462TIP3   OH252876   2.936   3.331  15.723 -0.3831  0.1851 -0.2045
10462TIP3    H152877   2.939   3.274  15.800 -0.6802 -0.2948 -0.5420
10462TIP3    H252878   2.984   3.410  15.750 -1.8850  0.7267  1.0319
10463TIP3   OH252879   6.320   6.260  14.997  0.1909 -0.0664 -0.0233
10463TIP3    H152880   6.367   6.316  15.059  2.3120 -0.4170 -1.2217
10463TIP3    H252881   6.335   6.171  15.028  2.8072 -0.3926 -1.8796
10464TIP3   OH252882   1.861   3.668   0.869  0.2256 -0.3912 -0.5304
10464TIP3    H152883   1.832   3.605   0.802  0.2368 -0.1746 -0.7383
10464TIP3    H252884   1.954   3.678   0.853 -0.0407  0.7797 -1.4175
10465TIP3   OH252885   1.360   6.739  12.510 -0.0786 -0.4950 -0.0801
10465TIP3    H152886   1.394   6.721  12.422 -3.1588 -3.1592 -0.9287
10465TIP3    H252887   1.301   6.814  12.498  1.4749  0.8322  0.3286
10466TIP3   OH252888   6.567   6.026  16.437  0.0964 -0.2352  0.0904
10466TIP3    H152889   6.531   5.987  16.516 -0.3351 -2.4423 -1.1119
10466TIP3    H252890   6.655   5.991  16.430  0.8820  1.5182  0.5846
10467TIP3   OH252891   0.900   6.486  10.767  0.7462 -0.5505  0.2208
10467TIP3    H152892   0.959   6.531  10.707  1.6358  0.8937  2.0576
10467TIP3    H252893   0.958   6.444  10.831 -0.0996 -3.4826 -0.7762
10468TIP3   OH252894   4.303   2.310   2.086 -0.2811  0.0729 -0.2171
10468TIP3    H152895   4.234   2.348   2.032  0.0154 -1.5956 -1.8548
10468TIP3    H252896   4.257   2.272   2.161 -0.8008  1.5694  0.2547
10469TIP3   OH252897   3.673   1.368  12.167 -0.1982  0.1130 -0.4698
10469TIP3    H152898   3.670   1.316  12.086  0.1147 -0.7179  0.0476
10469TIP3    H252899   3.763   1.361  12.197 -0.4001  0.1372  0.1431
10470TIP3   OH252900   1.114   4.728   1.741  0.0751 -0.2033  0.1718
10470TIP3    H152901   1.073   4.663   1.684  1.0415  0.1598 -0.9952
10470TIP3    H252902   1.057   4.805   1.734 -1.1784 -0.9317  1.7091
10471TIP3   OH252903   3.565   5.156  11.659 -0.1245 -0.2469 -0.8299
10471TIP3    H152904   3.620   5.185  11.587  0.2502  0.2028 -0.3736
10471TIP3    H252905   3.607   5.192  11.737 -1.1085  0.1664 -0.4771
10472TIP3   OH252906   0.812   0.095   3.509  0.2693  0.3581 -0.2050
10472TIP3    H152907   0.904   0.118   3.496  1.0055 -1.0915  1.9276
10472TIP3    H252908   0.814   0.018   3.566 -2.2830  0.8635  0.7022
10473TIP3   OH252909   3.455   0.495  15.094 -0.2423 -0.0857 -0.3203
10473TIP3    H152910   3.389   0.484  15.163 -0.2569  0.3675 -0.2580
10473TIP3    H252911   3.405   0.526  15.018  0.1337  2.2495  0.3004
10474TIP3   OH252912   1.120   0.843  12.134 -0.0933  0.1360 -0.3868
10474TIP3    H152913   1.162   0.910  12.188 -0.3651 -0.5517  0.7244
10474TIP3    H252914   1.098   0.887  12.053  0.4286  1.1877  0.0282
10475TIP3   OH252915   1.533   2.363  14.081 -0.1569  0.1567  0.4702
10475TIP3    H152916   1.465   2.295  14.086 -0.8655  0.7456 -0.6181
10475TIP3    H252917   1.509   2.427  14.147 -0.7769  0.4448 -0.0246
10476TIP3   OH252918   5.162   0.433  14.075  0.3022 -0.0053 -0.3397
10476TIP3    H152919   5.165   0.495  14.003 -1.1473  1.1150  0.5159
10476TIP3    H252920   5.228   0.464  14.137 -1.5134  1.7553  0.8443
10477TIP3   OH252921   2.982   3.217  14.587 -0.2969 -0.1784 -0.7904
10477TIP3    H152922   2.976   3.277  14.512 -2.5654  0.7433  0.0542
10477TIP3    H252923   2.932   3.260  14.656 -1.0451 -2.5316  0.2213
10478TIP3   OH252924   0.417   0.219   4.265 -0.7041 -0.8680 -0.0642
10478TIP3    H152925   0.495   0.273   4.253  0.4484 -1.6542  2.8644
10478TIP3    H252926   0.403   0.178   4.181  1.9167 -0.4978 -0.7781
10479TIP3   OH252927   0.743   3.786  15.958 -0.4000 -0.1413  0.1200
10479TIP3    H152928   0.833   3.795  15.926 -0.8710  0.7780 -1.0109
10479TIP3    H252929   0.732   3.693  15.974  0.3734 -0.4234 -0.9040
10480TIP3   OH252930   4.123   0.045   4.052 -0.3016  0.1956 -0.1038
10480TIP3    H152931   4.144  -0.047   4.039  1.3386  0.5112  0.0902
10480TIP3    H252932   4.154   0.065   4.140 -0.7077  0.9221 -0.1141
10481TIP3   OH252933   6.142   0.378  13.193 -0.4473  0.1429  0.0708
10481TIP3    H152934   6.173   0.436  13.123  0.0833 -0.0176  0.1709
10481TIP3    H252935   6.072   0.428  13.236  1.6593  1.8469  1.7894
10482TIP3   OH252936   0.639   5.343  11.646 -0.1463  0.0560  0.3162
10482TIP3    H152937   0.618   5.299  11.564 -2.2109 -0.4178  1.0593
10482TIP3    H252938   0.710   5.291  11.684  0.2217 -0.2286 -0.7417
10483TIP3   OH252939   2.550   1.436  12.272  0.0729  0.1501  0.1700
10483TIP3    H152940   2.481   1.497  12.248 -0.1281  0.0574  0.5128
10483TIP3    H252941   2.611   1.438  12.197  0.9295  1.9968  0.8728
10484TIP3   OH252942   4.089   0.852  11.757  0.8791 -0.4109 -0.2089
10484TIP3    H152943   4.136   0.880  11.835  0.9969 -0.7825 -0.1420
10484TIP3    H252944   4.087   0.756  11.763  0.0234 -0.4020 -0.1545
10485TIP3   OH252945   5.035   5.969   3.490 -0.4311 -0.3243  0.2360
10485TIP3    H152946   4.977   5.912   3.440 -0.0563  0.0305 -0.6230
10485TIP3    H252947   5.062   5.917   3.566 -1.2217 -0.7710  0.2202
10486TIP3   OH252948   4.630   5.204  11.253  0.3850  0.3642  0.4095
10486TIP3    H152949   4.626   5.148  11.330  2.9756 -0.1538  0.2367
10486TIP3    H252950   4.553   5.261  11.261 -1.7096 -2.3778  1.1645
10487TIP3   OH252951   4.481   6.773  12.889  0.3151 -0.2777  0.3246
10487TIP3    H152952   4.428   6.710  12.839 -1.4260 -0.0556  1.8142
10487TIP3    H252953   4.478   6.853  12.837 -1.2482 -0.1294  0.6050
10488TIP3   OH252954   3.044   6.108  10.829 -0.0097 -0.5283 -0.0417
10488TIP3    H152955   3.043   6.112  10.733  0.9508 -0.4467 -0.0559
10488TIP3    H252956   3.101   6.033  10.849 -0.9355 -1.1202  0.4624
10489TIP3   OH252957   5.517   5.658   2.297 -0.6007  0.2377 -0.4100
10489TIP3    H152958   5.544   5.736   2.345  0.5915  1.3318 -2.6757
10489TIP3    H252959   5.430   5.638   2.330 -0.0810  1.2310  1.7183
10490TIP3   OH252960   1.959   3.708  14.008 -0.0286 -0.7774 -0.4897
10490TIP3    H152961   2.018   3.646  13.965  0.1747 -0.9123 -0.0321
10490TIP3    H252962   2.017   3.764  14.060 -0.3584 -1.5482  0.7636
10491TIP3   OH252963   0.379   3.691  12.172 -0.3497  0.3037 -0.3512
10491TIP3    H152964   0.427   3.723  12.096  0.7903  0.5549  0.4544
10491TIP3    H252965   0.389   3.596  12.170 -0.7362  0.2682 -0.7725
10492TIP3   OH252966   2.634   0.229  11.538  0.6177 -0.8245 -0.5442
10492TIP3    H152967   2.576   0.289  11.492  0.9054  0.6583  0.9146
10492TIP3    H252968   2.706   0.285  11.569  0.7698 -1.8584  1.0748
10493TIP3   OH252969   5.527   5.492  17.029  0.0468 -0.1842 -0.0682
10493TIP3    H152970   5.523   5.430  17.102 -1.5872  0.0652  0.1040
10493TIP3    H252971   5.535   5.578  17.070  2.0917 -0.2090 -0.3043
10494TIP3   OH252972   2.616   3.706   0.134 -0.6055  0.5116 -0.8166
10494TIP3    H152973   2.596   3.625   0.087 -1.5014 -0.9516  1.8639
10494TIP3    H252974   2.531   3.734   0.169  0.0334  1.5132 -0.0470
10495TIP3   OH252975   1.796   3.542   0.476 -0.2229  0.4867  0.1276
10495TIP3    H152976   1.869   3.489   0.446 -0.4487  0.1900  0.1013
10495TIP3    H252977   1.775   3.508   0.562 -0.7715  0.1144 -0.1444
10496TIP3   OH252978   6.216   0.411   1.876  0.9322 -0.3471 -0.4153
10496TIP3    H152979   6.135   0.360   1.871  0.3522  0.1592  2.2299
10496TIP3    H252980   6.207   0.476   1.807  0.1713 -1.7229 -1.6831
10497TIP3   OH252981   0.849   3.039  13.842  0.1286 -0.5242  0.4868
10497TIP3    H152982   0.936   3.000  13.854  1.4969  2.4411  1.2099
10497TIP3    H252983   0.801   3.015  13.921  2.0491  1.7755  2.5194
10498TIP3   OH252984   1.834   1.923   3.540  0.3705 -0.1380  0.1179
10498TIP3    H152985   1.741   1.945   3.534  0.1772 -0.9809 -0.0549
10498TIP3    H252986   1.873   1.959   3.461  0.2433  0.4454  0.3148
10499TIP3   OH252987   1.331   2.503   2.858  0.1050 -0.3840 -0.0952
10499TIP3    H152988   1.325   2.595   2.835  0.8830 -0.1897  0.4539
10499TIP3    H252989   1.241   2.470   2.851 -0.4347  0.7532  1.1392
10500TIP3   OH252990   4.729   2.105  15.909  0.2947  0.2833  0.0132
10500TIP3    H152991   4.707   2.095  15.816  0.4663 -1.4588  0.1333
10500TIP3    H252992   4.685   2.032  15.952 -0.7513  1.7146  1.5075
10501TIP3   OH252993   4.075   2.656  11.810 -0.3813 -0.3392  0.3315
10501TIP3    H152994   4.083   2.613  11.895  1.6786 -1.0536 -0.1503
10501TIP3    H252995   4.124   2.738  11.819  1.0476 -1.0486 -0.4931
10502TIP3   OH252996   3.932   1.990   2.402 -0.8756 -0.4552  0.1538
10502TIP3    H152997   3.975   1.918   2.447  0.1814 -0.6088 -1.0568
10502TIP3    H252998   3.936   2.063   2.464 -2.1784 -1.4610  1.4850
10503TIP3   OH252999   1.188   0.744   4.001  0.4321 -0.3462 -0.4394
10503TIP3    H153000   1.123   0.753   4.071  0.6802  2.9156 -0.4828
10503TIP3    H253001   1.138   0.759   3.921  0.6899 -1.0023 -0.7251
10504TIP3   OH253002   0.824   5.322   4.656 -0.0979  0.0689  0.4353
10504TIP3    H153003   0.738   5.283   4.671 -0.9078  1.7559  0.2937
10504TIP3    H253004   0.863   5.327   4.744 -0.6114  0.3574  0.6495
10505TIP3   OH253005   1.122   0.578  14.070  0.6542  0.0433 -0.1314
10505TIP3    H153006   1.047   0.636  14.057  0.4813  0.2274  1.4533
10505TIP3    H253007   1.097   0.497  14.026 -0.8774 -0.1941  1.0806
10506TIP3   OH253008   4.708   3.505   0.982  0.6036 -0.1664 -0.0913
10506TIP3    H153009   4.641   3.441   1.008 -0.3748  0.6542 -0.5409
10506TIP3    H253010   4.659   3.582   0.955  1.6975  0.1697 -1.2517
10507TIP3   OH253011   0.301   2.372   1.716 -0.1171 -0.7742  0.0289
10507TIP3    H153012   0.241   2.299   1.699  0.2783 -0.5418 -2.7353
10507TIP3    H253013   0.262   2.416   1.792 -3.3525 -0.7943 -1.4311
10508TIP3   OH253014   6.320   0.199  12.434 -0.3015  0.1668  0.0201
10508TIP3    H153015   6.365   0.189  12.351 -1.7187  0.3394 -0.8009
10508TIP3    H253016   6.274   0.117  12.448  1.6539 -0.7338  1.7784
10509TIP3   OH253017   6.240   3.312   3.695  0.2487  0.1792 -0.2130
10509TIP3    H153018   6.232   3.391   3.641 -0.9447 -0.0871 -0.4493
10509TIP3    H253019   6.186   3.247   3.651 -1.1654  0.0884  1.5208
10510TIP3   OH253020   3.089   4.730  16.291  0.0406 -0.4661 -0.1277
10510TIP3    H153021   3.091   4.669  16.365 -0.2994 -0.1338  0.1613
10510TIP3    H253022   3.005   4.714  16.248 -0.5874  0.5926  0.6427
10511TIP3   OH253023   3.918   0.212  11.327 -0.0533 -0.4526  0.2061
10511TIP3    H153024   3.905   0.302  11.358 -3.4083  0.1229 -2.3142
10511TIP3    H253025   3.971   0.221  11.248  0.1284 -0.7595  0.2935
10512TIP3   OH253026   5.512   1.279  12.521 -0.2734 -0.3125  0.2735
10512TIP3    H153027   5.509   1.197  12.471 -0.2372 -0.0130 -0.2204
10512TIP3    H253028   5.587   1.327  12.485  1.0581 -0.9833  2.0234
10513TIP3   OH253029   1.659   4.166   1.558  0.1847 -0.6490 -0.0785
10513TIP3    H153030   1.699   4.136   1.639 -1.5692 -3.2203 -0.0409
10513TIP3    H253031   1.724   4.145   1.490  2.1973  2.6134  0.5698
10514TIP3   OH253032   0.725   1.946   0.849  0.6604  0.1468 -0.3165
10514TIP3    H153033   0.667   1.899   0.910  0.9408 -1.5991 -1.3338
10514TIP3    H253034   0.758   2.020   0.900 -2.5638  1.3698  0.2780
10515TIP3   OH253035   4.126   1.751   4.977  0.0811  0.1166  0.0747
10515TIP3    H153036   4.186   1.810   4.931 -0.3834  0.7370  0.2612
10515TIP3    H253037   4.052   1.740   4.917  0.7785 -1.3999 -0.5626
10516TIP3   OH253038   0.298   4.189  13.755  0.1719  0.0533 -0.4125
10516TIP3    H153039   0.245   4.141  13.691  0.4333 -1.4732  0.4505
10516TIP3    H253040   0.387   4.157  13.740  0.4641  0.7869 -0.2560
10517TIP3   OH253041   0.202   0.123  13.950 -0.2177 -0.0495 -0.8668
10517TIP3    H153042   0.203   0.068  14.028 -0.5179 -1.6905 -1.9569
10517TIP3    H253043   0.273   0.088  13.896 -0.6682  0.3820 -1.7577
10518TIP3   OH253044   4.981   4.025  10.894  0.4607  0.0656  0.2988
10518TIP3    H153045   5.076   4.014  10.886  0.7708  2.4815  0.1910
10518TIP3    H253046   4.954   4.066  10.812 -0.2556  1.6898  1.2974
10519TIP3   OH253047   4.347   3.129  11.300 -0.1707 -0.2850  0.4374
10519TIP3    H153048   4.399   3.210  11.304  0.7751 -0.9086  1.9527
10519TIP3    H253049   4.397   3.071  11.242  0.6903 -0.7458  1.5865
10520TIP3   OH253050   4.765   6.799  15.633  0.8658  0.6906  0.3177
10520TIP3    H153051   4.697   6.747  15.591 -0.1338  1.0200  1.4730
10520TIP3    H253052   4.827   6.819  15.563  0.3289 -0.5163 -0.5264
10521TIP3   OH253053   4.201   3.460  17.030  0.4018 -0.2958  0.1346
10521TIP3    H153054   4.208   3.388  16.967 -0.8381 -1.4530  1.2546
10521TIP3    H253055   4.122   3.507  17.004  1.2409  0.7336 -0.6279
10522TIP3   OH253056   0.068   4.989  15.942 -0.1142  0.1370  0.4682
10522TIP3    H153057   0.054   4.904  15.899 -1.1005  0.6113 -0.1969
10522TIP3    H253058  -0.020   5.017  15.966  0.1998  0.9994  0.6283
10523TIP3   OH253059   4.002   2.972  11.223 -0.1550  0.0646  0.5913
10523TIP3    H153060   4.026   2.988  11.314  1.0196 -0.0477  0.3141
10523TIP3    H253061   4.053   3.036  11.173 -1.8076  1.0551  0.0841
10524TIP3   OH253062   2.178   6.610  12.047  0.6615  0.1217  0.0861
10524TIP3    H153063   2.096   6.626  12.002  0.8808  1.6890  0.1795
10524TIP3    H253064   2.199   6.519  12.027 -0.4365  0.0773 -0.9963
10525TIP3   OH253065   6.020   3.665  11.370  0.6348  0.0795 -0.4661
10525TIP3    H153066   5.953   3.689  11.433  2.1862 -0.1436  1.3627
10525TIP3    H253067   6.014   3.570  11.363  0.9009  0.0315 -0.0986
10526TIP3   OH253068   6.837   5.868  10.286 -0.2121 -0.1352  0.0728
10526TIP3    H153069   6.798   5.952  10.308  0.9835 -0.0539  2.1921
10526TIP3    H253070   6.763   5.808  10.279 -1.1514  1.1439 -2.1854
10527TIP3   OH253071   6.323   5.388  15.658  0.3254 -0.6545 -0.5143
10527TIP3    H153072   6.419   5.386  15.652  0.4443  0.6251  0.4899
10527TIP3    H253073   6.294   5.324  15.594  1.8886 -1.9519 -0.0124
10528TIP3   OH253074   2.648   4.992  16.416 -0.1621  0.0705  0.5078
10528TIP3    H153075   2.608   4.979  16.502 -3.1955  2.0414 -0.4104
10528TIP3    H253076   2.665   5.087  16.411  0.2067 -0.0444 -0.9421
10529TIP3   OH253077   5.881   3.881   2.931 -0.1041 -0.5614  0.3006
10529TIP3    H153078   5.951   3.828   2.894 -0.5980 -1.2415  0.3095
10529TIP3    H253079   5.890   3.870   3.026  3.6641  4.3229  0.9082
10530TIP3   OH253080   4.683   0.834  14.988 -0.1796 -0.1888  0.5741
10530TIP3    H153081   4.619   0.763  14.994  0.9121 -1.2032  0.5350
10530TIP3    H253082   4.647   0.894  14.923 -0.6250 -1.2404 -0.1712
10531TIP3   OH253083   5.292   6.592   2.795 -0.0963 -0.1637 -0.0991
10531TIP3    H153084   5.245   6.528   2.741 -0.2654  2.0572 -2.8195
10531TIP3    H253085   5.239   6.601   2.874 -0.1794 -3.1267  0.2787
10532TIP3   OH253086   2.063   4.802  13.704 -0.1001 -0.0893  0.2347
10532TIP3    H153087   2.066   4.887  13.659 -1.4268 -1.5748 -2.9651
10532TIP3    H253088   1.969   4.785  13.716  0.1489 -1.1685  0.7093
10533TIP3   OH253089   1.072   5.002   3.277 -0.3439  0.2908  0.1592
10533TIP3    H153090   1.159   5.031   3.251 -0.7985  0.3702 -1.3791
10533TIP3    H253091   1.073   5.005   3.373  2.0168 -1.7483  0.2821
10534TIP3   OH253092   5.827   3.915   1.081 -0.5977  0.1602  0.4902
10534TIP3    H153093   5.867   3.996   1.048 -0.0388  0.2351  1.3067
10534TIP3    H253094   5.898   3.851   1.076 -1.0023 -0.2517 -0.0250
10535TIP3   OH253095   4.541   5.358  14.006 -0.0488  0.0158  0.6937
10535TIP3    H153096   4.561   5.281  13.953  0.2602  0.5801 -0.0403
10535TIP3    H253097   4.603   5.354  14.079  0.2323 -0.2247  0.4453
10536TIP3   OH253098   4.193   6.759   3.252  0.4797 -0.2780  0.0558
10536TIP3    H153099   4.265   6.747   3.314  1.8753  0.9443 -1.2530
10536TIP3    H253100   4.191   6.678   3.202  2.1120  0.2796 -1.0006
10537TIP3   OH253101   2.301   4.898  17.136  0.1153 -0.1731  0.2245
10537TIP3    H153102   2.207   4.914  17.130  0.4392  1.5689 -1.4131
10537TIP3    H253103   2.319   4.836  17.066  0.3081  0.2484 -0.1048
10538TIP3   OH253104   2.538   1.546  11.660  0.3694 -0.1169 -0.2854
10538TIP3    H153105   2.631   1.555  11.680  0.6103  0.5806 -1.6472
10538TIP3    H253106   2.519   1.453  11.676  1.1301 -0.1247  0.6382
10539TIP3   OH253107   0.478   2.660   5.493  0.4015  0.1244  0.2600
10539TIP3    H153108   0.396   2.664   5.542 -0.5033 -1.6440 -0.9937
10539TIP3    H253109   0.452   2.631   5.405  1.9761  2.7702 -1.2227
10540TIP3   OH253110   3.957   3.660   5.886 -0.1486  0.4510 -0.0213
10540TIP3    H153111   3.887   3.595   5.893  0.1929  0.1383  0.5451
10540TIP3    H253112   3.928   3.718   5.815 -1.4232  0.8539  0.7904
10541TIP3   OH253113   3.031   0.676   1.260  0.0309 -0.4462  0.1811
10541TIP3    H153114   3.079   0.628   1.328  2.0684 -0.6546 -1.3012
10541TIP3    H253115   3.079   0.758   1.251 -0.1125 -0.4853 -1.0886
10542TIP3   OH253116   4.842   0.384   2.328  0.4057  0.4379  0.0793
10542TIP3    H153117   4.882   0.465   2.359 -0.3195  1.2089 -0.9102
10542TIP3    H253118   4.909   0.343   2.274  1.0671 -0.0584  1.2477
10543TIP3   OH253119   0.445   3.430   6.762 -0.8810  0.6392 -0.4541
10543TIP3    H153120   0.491   3.455   6.842  0.2984 -1.9530 -0.1964
10543TIP3    H253121   0.500   3.463   6.691  0.0981 -0.2784 -0.1458
10544TIP3   OH253122   5.570   5.049  15.724  0.9410 -0.5222  0.2782
10544TIP3    H153123   5.591   5.121  15.783  0.2562  0.3544 -0.5166
10544TIP3    H253124   5.655   5.016  15.695  1.2722  1.2701 -0.9002
10545TIP3   OH253125   6.272   3.699  16.522  0.0749  0.2677  0.0926
10545TIP3    H153126   6.284   3.619  16.573  0.8710  0.7750  0.7253
10545TIP3    H253127   6.329   3.687  16.446 -0.5631 -0.1845 -0.3146
10546TIP3   OH253128   4.553   1.521   4.551 -0.1013 -0.4405  0.5041
10546TIP3    H153129   4.546   1.426   4.538  1.4908 -0.4871 -0.2936
10546TIP3    H253130   4.611   1.530   4.627  2.2089 -0.1622 -1.1829
10547TIP3   OH253131   1.143   2.306   5.598  0.1594 -0.8019  0.0478
10547TIP3    H153132   1.062   2.302   5.647 -1.4767  0.7200 -2.3317
10547TIP3    H253133   1.209   2.268   5.657 -2.5691 -4.0726  1.3091
10548TIP3   OH253134   5.886   2.007   5.370  0.0436  0.3215 -0.1641
10548TIP3    H153135   5.944   2.063   5.319 -1.0997  0.5471 -1.2710
10548TIP3    H253136   5.935   1.987   5.450  0.7491  2.3074 -0.0604
10549TIP3   OH253137   6.202   6.226  13.473 -0.1773  0.0718  0.1202
10549TIP3    H153138   6.130   6.164  13.464 -0.1564  0.3289 -2.3501
10549TIP3    H253139   6.230   6.217  13.565 -3.0513 -0.3119  1.0660
10550TIP3   OH253140   4.041   2.964  11.653 -0.4612 -0.2253  0.6884
10550TIP3    H153141   4.001   2.963  11.740 -1.6405 -2.6377  0.1826
10550TIP3    H253142   3.968   2.974  11.593 -0.1148 -2.3744 -0.1568
10551TIP3   OH253143   2.543   6.577   2.200  0.2690 -0.6103 -0.1497
10551TIP3    H153144   2.572   6.665   2.176 -0.1675 -0.5313 -0.3925
10551TIP3    H253145   2.562   6.524   2.123 -1.2729 -0.3260 -0.7577
10552TIP3   OH253146   1.317   3.143   2.259  0.2774 -0.0110 -0.7265
10552TIP3    H153147   1.405   3.163   2.228  1.0976  0.8409  1.8619
10552TIP3    H253148   1.278   3.229   2.278 -0.4057 -0.4375 -0.1240
10553TIP3   OH253149   4.917   1.650  14.908  0.1867 -0.3438 -0.3804
10553TIP3    H153150   4.959   1.635  14.823 -0.1311  1.8836 -0.9841
10553TIP3    H253151   4.882   1.564  14.932 -0.8578 -0.8029 -3.1201
10554TIP3   OH253152   0.211   0.962  12.116 -0.1603 -0.8253 -0.5998
10554TIP3    H153153   0.239   1.033  12.173  0.3575 -0.3343 -1.4415
10554TIP3    H253154   0.193   0.888  12.175 -3.0272  0.6641  0.5900
10555TIP3   OH253155   2.528   0.726  15.042 -0.8585  0.4424 -0.3381
10555TIP3    H153156   2.610   0.697  15.001  0.7921 -0.4398  3.2104
10555TIP3    H253157   2.521   0.818  15.017  1.6611  0.7657 -0.1723
10556TIP3   OH253158   5.069   1.135  14.353  0.1945  0.3296  0.2967
10556TIP3    H153159   5.057   1.099  14.265  0.1818  0.3952  0.2712
10556TIP3    H253160   5.142   1.197  14.343 -0.0053  0.5615  0.2664
10557TIP3   OH253161   2.889   4.560   2.169  0.0663 -0.2115  0.2674
10557TIP3    H153162   2.956   4.588   2.107 -0.7794  0.1183 -0.5326
10557TIP3    H253163   2.878   4.634   2.229  0.3123 -0.2106  0.3102
10558TIP3   OH253164   0.829   0.647  14.217 -0.6630 -0.2009 -0.6406
10558TIP3    H153165   0.856   0.590  14.289 -0.2487 -0.1335 -0.7373
10558TIP3    H253166   0.801   0.588  14.148  1.1742 -0.3680 -1.3041
10559TIP3   OH253167   4.089   2.086  11.966  0.9621 -0.1272  0.1830
10559TIP3    H153168   4.090   2.051  12.056  0.7320 -0.7132 -0.0383
10559TIP3    H253169   4.181   2.106  11.948  0.8523  1.2581  1.0242
10560TIP3   OH253170   5.327   1.654   5.206  0.3500  0.0335 -0.1435
10560TIP3    H153171   5.355   1.673   5.117  1.5396 -0.5666  0.0890
10560TIP3    H253172   5.233   1.673   5.206 -0.0408 -1.5958 -2.0018
10561TIP3   OH253173   5.067   3.058  11.599 -0.5684 -0.1711  1.0775
10561TIP3    H153174   4.991   3.001  11.597 -1.9888  1.6517  0.6441
10561TIP3    H253175   5.037   3.141  11.560  2.1173  0.0329 -0.9006
10562TIP3   OH253176   4.504   3.785   3.721 -0.1552 -0.0676  0.0887
10562TIP3    H153177   4.591   3.825   3.721 -0.3664  0.4054 -0.4050
10562TIP3    H253178   4.520   3.692   3.739  0.3579  0.2007  1.0998
10563TIP3   OH253179   2.599   4.004  17.140 -0.1189  0.6901 -0.1842
10563TIP3    H153180   2.622   3.917  17.107 -0.4003  0.8783 -0.9013
10563TIP3    H253181   2.608   3.997  17.235  0.5858  0.0940 -0.2882
10564TIP3   OH253182   6.341   0.583  13.372 -0.5229 -0.6201 -0.0922
10564TIP3    H153183   6.350   0.568  13.278 -0.3473  1.2010 -0.3910
10564TIP3    H253184   6.404   0.651  13.392  2.4316 -3.6706  2.1852
10565TIP3   OH253185   4.256   5.249  16.621 -0.0685 -0.5065 -0.5941
10565TIP3    H153186   4.297   5.278  16.540 -1.3280  0.4717 -0.9058
10565TIP3    H253187   4.303   5.294  16.691  0.3694 -0.5802 -0.8422
10566TIP3   OH253188   2.515   2.958  11.588  0.0200 -0.0494 -0.3860
10566TIP3    H153189   2.426   2.992  11.578  0.7214  1.3813 -2.6089
10566TIP3    H253190   2.554   3.013  11.656 -0.3425  0.3319 -0.4835
10567TIP3   OH253191   0.229   4.146   1.186  0.0325  0.4342  0.2485
10567TIP3    H153192   0.301   4.084   1.194  1.3069  1.7744 -0.3243
10567TIP3    H253193   0.172   4.109   1.118 -0.0689 -0.8391  0.9962
10568TIP3   OH253194   5.296   1.164   1.162  0.1611 -0.8898 -0.3536
10568TIP3    H153195   5.276   1.246   1.117  3.2448 -0.2352 -0.7533
10568TIP3    H253196   5.298   1.099   1.093  1.1564 -0.6055 -0.6060
10569TIP3   OH253197   2.504   3.674   3.046 -0.3511 -0.6468 -0.8245
10569TIP3    H153198   2.465   3.602   2.996 -1.3284 -0.0966 -0.8886
10569TIP3    H253199   2.510   3.642   3.136 -1.2128 -0.6567 -0.7632
10570TIP3   OH253200   4.724   2.377   3.128  0.0481 -0.5184  0.2573
10570TIP3    H153201   4.707   2.323   3.205 -0.0998 -1.0408 -0.1448
10570TIP3    H253202   4.723   2.317   3.054 -0.4669  0.0780 -0.2392
10571TIP3   OH253203   3.467   1.898  15.325  0.0610 -0.2513  0.0068
10571TIP3    H153204   3.484   1.958  15.397  0.5519  1.0190 -1.1209
10571TIP3    H253205   3.542   1.839  15.324  1.0236  0.9266 -0.6072
10572TIP3   OH253206   2.573   5.154  16.650 -0.0008 -0.1419  0.3957
10572TIP3    H153207   2.479   5.148  16.633 -0.2778  0.9241  1.4482
10572TIP3    H253208   2.593   5.247  16.647  0.7081 -0.2223  1.7017
10573TIP3   OH253209   6.718   0.482   1.425 -0.4950  0.8336  0.6006
10573TIP3    H153210   6.734   0.400   1.472 -0.9521  0.7914  0.6919
10573TIP3    H253211   6.645   0.461   1.366 -0.8234  1.2533  0.8507
10574TIP3   OH253212   1.807   5.921  11.651  0.5122 -0.0134 -0.0972
10574TIP3    H153213   1.858   5.979  11.595 -1.1445  2.7841  1.0589
10574TIP3    H253214   1.839   5.939  11.740 -1.8239  1.2771  0.5823
10575TIP3   OH253215   5.388   4.299  11.419 -0.6290 -0.1711 -0.5632
10575TIP3    H153216   5.327   4.363  11.455 -0.2374 -0.8425  1.4805
10575TIP3    H253217   5.458   4.293  11.485 -0.8659 -2.9524 -0.4393
10576TIP3   OH253218   2.941   1.205   2.828 -0.3556 -0.5199 -0.2964
10576TIP3    H153219   2.980   1.186   2.743 -1.9956 -1.0070 -0.9914
10576TIP3    H253220   2.979   1.289   2.853 -0.5115  0.1039 -1.9803
10577TIP3   OH253221   0.879   2.618  15.364 -0.8269 -0.4413  0.5394
10577TIP3    H153222   0.786   2.629  15.383 -0.8979 -2.6227  1.7593
10577TIP3    H253223   0.892   2.523  15.360  1.5612 -0.2468  1.7190
10578TIP3   OH253224   5.658   4.792   1.150  0.1345  0.4782 -0.7299
10578TIP3    H153225   5.691   4.882   1.143  1.4508  0.0459 -0.4564
10578TIP3    H253226   5.617   4.788   1.237  0.4336  0.7067 -0.5754
10579TIP3   OH253227   0.159   3.428  13.024 -0.2271 -0.2355  0.5958
10579TIP3    H153228   0.093   3.365  13.056 -1.3192  1.0876  1.0451
10579TIP3    H253229   0.109   3.488  12.968  0.9699 -0.2818 -0.5665
10580TIP3   OH253230   3.665   4.389   3.795  0.1550  0.2566  0.1261
10580TIP3    H153231   3.718   4.401   3.716 -1.2111  1.2168 -0.6824
10580TIP3    H253232   3.729   4.379   3.865  1.4072 -0.3462 -1.0515
10581TIP3   OH253233   5.655   6.110  12.299  0.1824  0.3090  0.0254
10581TIP3    H153234   5.592   6.109  12.372  0.7796 -0.8606  0.5555
10581TIP3    H253235   5.691   6.021  12.298  1.3557  0.7756 -0.6815
10582TIP3   OH253236   5.091   1.855  16.968  0.5902 -0.0125 -0.4784
10582TIP3    H153237   5.084   1.912  16.892  1.5581 -0.0942 -0.6389
10582TIP3    H253238   5.140   1.779  16.936 -1.4283 -1.3621 -0.5045
10583TIP3   OH253239   0.356   3.567  12.897  0.8065 -0.1517 -0.2742
10583TIP3    H153240   0.292   3.503  12.928 -0.0735  0.5413 -0.6337
10583TIP3    H253241   0.304   3.641  12.865  1.8056  1.0695  0.7766
10584TIP3   OH253242   3.004   0.399   3.218  0.0285 -0.3997 -0.1918
10584TIP3    H153243   3.061   0.354   3.156  1.1312  2.8196 -1.7854
10584TIP3    H253244   3.036   0.374   3.304 -0.6144 -3.8824 -0.8423
10585TIP3   OH253245   2.271   0.822  13.517  0.6385 -0.3995  0.1814
10585TIP3    H153246   2.314   0.890  13.464  1.9817 -2.6750 -1.8254
10585TIP3    H253247   2.192   0.865  13.550  2.0184  2.4915  0.0490
10586TIP3   OH253248   6.230   3.900   0.801  0.3549 -0.3249  0.0851
10586TIP3    H153249   6.255   3.986   0.833  0.7159 -0.6247  0.6251
10586TIP3    H253250   6.297   3.877   0.736  0.7686 -0.5755  0.5922
10587TIP3   OH253251   4.248   4.798  15.068 -0.3197  0.0306 -0.1221
10587TIP3    H153252   4.231   4.744  14.991 -2.4764 -1.2187  1.1385
10587TIP3    H253253   4.289   4.739  15.131  0.6882  0.8347  0.0106
10588TIP3   OH253254   5.375   1.748   3.932 -0.6864 -0.4884  0.4582
10588TIP3    H153255   5.321   1.669   3.933 -1.6226  0.1156  2.0920
10588TIP3    H253256   5.456   1.723   3.977 -0.3481 -0.9002 -0.3613
10589TIP3   OH253257   0.303   2.064   1.171  0.5456 -0.3463  0.1940
10589TIP3    H153258   0.249   2.119   1.228  1.5823  2.5435 -1.4147
10589TIP3    H253259   0.393   2.094   1.187  1.2905 -2.2133 -0.1773
10590TIP3   OH253260   1.352   5.035  13.238  0.8316 -0.3981  0.1477
10590TIP3    H153261   1.261   5.003  13.237  1.0167 -0.9243 -0.2398
10590TIP3    H253262   1.380   5.022  13.329  0.5101 -0.2104  0.2755
10591TIP3   OH253263   5.439   3.339   3.995  0.8528 -0.2129  0.0697
10591TIP3    H153264   5.535   3.338   3.990  0.8860  1.4041 -0.0372
10591TIP3    H253265   5.414   3.246   3.998  2.3639 -0.6856 -0.9792
10592TIP3   OH253266   5.019   3.815   2.966  0.8766 -0.3480  0.3130
10592TIP3    H153267   4.957   3.764   3.018  1.5284  1.2365  2.8339
10592TIP3    H253268   4.981   3.903   2.963  1.0116 -0.3162 -1.7287
10593TIP3   OH253269   0.806   5.698   2.282  0.4540 -0.7937 -0.4532
10593TIP3    H153270   0.814   5.607   2.311 -0.5045 -0.7376  0.0568
10593TIP3    H253271   0.711   5.711   2.273  0.6182 -0.0661 -1.2623
10594TIP3   OH253272   0.617   1.397  12.700 -0.4906  0.2759  0.4950
10594TIP3    H153273   0.588   1.452  12.628 -1.2441 -0.9973 -0.2129
10594TIP3    H253274   0.668   1.328  12.658 -0.4951 -0.1843  1.2372
10595TIP3   OH253275   0.269   2.205  16.250  0.4336  0.5779 -0.4101
10595TIP3    H153276   0.309   2.233  16.333  0.2522  0.5637 -0.3192
10595TIP3    H253277   0.317   2.126  16.226 -0.9661 -0.7071  0.8144
10596TIP3   OH253278   1.923   0.545   2.961 -0.1158  0.7479 -0.2076
10596TIP3    H153279   1.961   0.556   2.874 -0.6142  1.1245 -0.3866
10596TIP3    H253280   1.902   0.452   2.967  2.0717  0.2480  0.4339
10597TIP3   OH253281   2.057   0.033  11.706  0.5679  0.1416 -0.4526
10597TIP3    H153282   2.078   0.018  11.798 -0.3303 -1.5920 -0.4785
10597TIP3    H253283   2.035  -0.054  11.673 -1.4830  1.0580 -1.6996
10598TIP3   OH253284   4.458   4.858   3.927  0.0070 -0.1303  0.1958
10598TIP3    H153285   4.470   4.773   3.969 -1.2310 -0.9535 -1.0418
10598TIP3    H253286   4.365   4.878   3.939 -0.6203 -0.7759 -2.6881
10599TIP3   OH253287   6.022   5.163   1.168  0.1536  0.4180  0.1267
10599TIP3    H153288   5.974   5.172   1.250  0.1850 -0.6568  0.2830
10599TIP3    H253289   6.109   5.132   1.193  0.1851  0.1440 -0.3029
10600TIP3   OH253290   1.933   6.012   4.514  0.4710  0.3478 -0.8961
10600TIP3    H153291   2.009   6.049   4.559 -0.2602 -0.8561  1.5099
10600TIP3    H253292   1.891   6.088   4.473 -0.0532  2.0575  2.4399
10601TIP3   OH253293   5.203   2.912  12.760  0.1065 -0.3219  0.2288
10601TIP3    H153294   5.207   2.997  12.804  0.2259  0.9352 -2.0377
10601TIP3    H253295   5.112   2.905  12.731 -0.0065 -1.1819  0.7696
10602TIP3   OH253296   0.498   5.939  14.147 -0.2394 -0.5353  0.1351
10602TIP3    H153297   0.558   5.939  14.072 -1.9195  2.6916 -1.4518
10602TIP3    H253298   0.413   5.914  14.109 -0.9346  0.2021  1.1564
10603TIP3   OH253299   0.235   1.843   4.503 -0.1678 -0.1643  0.4203
10603TIP3    H153300   0.231   1.791   4.423  2.0227 -0.8450  0.6940
10603TIP3    H253301   0.149   1.885   4.508 -0.5935 -0.5976 -1.9226
10604TIP3   OH253302   2.871   6.415  15.047 -0.5151  0.3068 -0.1069
10604TIP3    H153303   2.833   6.401  15.134 -0.6195 -1.2705 -0.3758
10604TIP3    H253304   2.955   6.457  15.065 -0.3543 -0.3516  0.8079
10605TIP3   OH253305   3.824   2.667  10.693  0.5697  0.3220  0.4373
10605TIP3    H153306   3.783   2.648  10.609  0.4650 -1.8489  0.9245
10605TIP3    H253307   3.822   2.763  10.700 -0.7532  0.4684 -1.3414
10606TIP3   OH253308   2.767   1.424  14.320  0.2087  0.0964 -0.3661
10606TIP3    H153309   2.681   1.466  14.317 -0.8602 -1.9930 -1.1397
10606TIP3    H253310   2.763   1.368  14.398  0.7834 -0.1628 -0.5185
10607TIP3   OH253311   1.678   4.703  16.948  0.1417 -0.3305  0.4536
10607TIP3    H153312   1.593   4.723  16.909  1.3467  0.4302 -1.9110
10607TIP3    H253313   1.691   4.771  17.014 -0.8182 -0.1437  0.4626
10608TIP3   OH253314   5.836   0.533   4.723 -0.1751  0.6733 -0.2379
10608TIP3    H153315   5.903   0.576   4.670  0.2444  0.9379  0.4881
10608TIP3    H253316   5.801   0.603   4.779 -1.7493  0.7690 -1.2576
10609TIP3   OH253317   0.690   0.259   2.027  0.3379 -0.3026 -0.0676
10609TIP3    H153318   0.641   0.331   2.066  0.9035  0.9608 -1.5942
10609TIP3    H253319   0.637   0.182   2.044 -0.6693  0.5788  0.9451
10610TIP3   OH253320   5.380   3.444   2.883  0.4615  0.5066  0.3856
10610TIP3    H153321   5.418   3.488   2.807  0.8450 -2.8808 -1.5511
10610TIP3    H253322   5.289   3.474   2.884  0.8057  1.6614 -0.5328
10611TIP3   OH253323   5.392   4.047   1.278  0.5531 -0.0472  0.2549
10611TIP3    H153324   5.420   3.972   1.225 -0.2679 -0.9377  1.0397
10611TIP3    H253325   5.299   4.030   1.295  0.3403  1.1977  0.3827
10612TIP3   OH253326   1.232   3.829   0.529 -0.1978 -0.2069  0.1977
10612TIP3    H153327   1.205   3.759   0.470 -1.1521 -1.1935  1.7512
10612TIP3    H253328   1.152   3.881   0.541  0.5296  1.3017 -1.0574
10613TIP3   OH253329   1.862   4.051  12.690  0.1796  0.0248  0.0993
10613TIP3    H153330   1.860   3.971  12.637 -0.2994  0.6404 -0.8464
10613TIP3    H253331   1.940   4.042  12.745  1.1118 -0.3245 -1.2374
10614TIP3   OH253332   2.764   3.403  11.727  0.4427 -0.2767  0.3897
10614TIP3    H153333   2.780   3.355  11.646 -1.2425 -1.5676  0.7563
10614TIP3    H253334   2.777   3.495  11.704 -0.4361 -0.5697 -1.4768
10615TIP3   OH253335   3.665   0.516   4.511 -0.3226  0.6848  0.0423
10615TIP3    H153336   3.688   0.428   4.481  1.3485  1.2526 -0.4477
10615TIP3    H253337   3.643   0.506   4.603  3.4012  0.2131  1.0269
10616TIP3   OH253338   3.571   2.680  11.947  0.0366  0.2209 -1.0109
10616TIP3    H153339   3.530   2.661  11.862  0.7492  0.4642 -1.4097
10616TIP3    H253340   3.572   2.775  11.953  1.6251  0.2549 -1.5417
10617TIP3   OH253341   1.053   3.544   2.557  0.1735 -0.2717  0.3635
10617TIP3    H153342   1.098   3.539   2.642 -0.1722  1.0705  0.6393
10617TIP3    H253343   0.970   3.500   2.572  0.5934 -1.0930  0.3721
10618TIP3   OH253344   1.272   4.777  17.076 -0.6408 -0.3967 -0.4397
10618TIP3    H153345   1.238   4.810  17.159 -2.0215 -1.4844 -0.5410
10618TIP3    H253346   1.331   4.706  17.101 -0.4193 -0.1930 -0.3740
10619TIP3   OH253347   1.912   6.076  16.392  0.1737 -0.1887 -0.2156
10619TIP3    H153348   2.002   6.108  16.382 -0.1027  1.3236  1.7299
10619TIP3    H253349   1.860   6.135  16.338  0.3542 -1.5070 -1.9375
10620TIP3   OH253350   5.870   0.136   3.915  0.3853  0.3601  0.1314
10620TIP3    H153351   5.962   0.110   3.922  0.7235  1.8500  4.5852
10620TIP3    H253352   5.822   0.063   3.955  0.0975  1.2269  1.4244
10621TIP3   OH253353   4.550   1.375   5.984 -0.0726 -0.3775  0.0356
10621TIP3    H153354   4.605   1.346   5.912 -0.8184  0.4001 -0.8832
10621TIP3    H253355   4.472   1.319   5.980 -0.5702  0.3378 -0.4124
10622TIP3   OH253356   5.931   4.378  13.120  0.8234 -0.6172 -0.0828
10622TIP3    H153357   5.981   4.450  13.159  0.0839 -0.4826  0.6615
10622TIP3    H253358   5.873   4.422  13.057  0.4780 -0.5722  0.2626
10623TIP3   OH253359   4.741   0.838   2.837 -0.1877  0.1031  0.9267
10623TIP3    H153360   4.683   0.771   2.872 -2.4682  1.8511  0.7749
10623TIP3    H253361   4.698   0.868   2.757  1.2826  1.0418  0.4398
10624TIP3   OH253362   6.142   1.286   3.800  0.1525  0.0057 -0.6806
10624TIP3    H153363   6.209   1.242   3.748  2.4778  0.0424  2.0401
10624TIP3    H253364   6.064   1.231   3.790  1.6632 -2.2274 -1.0099
10625TIP3   OH253365   0.229   3.292   6.805 -0.3455 -0.1981  0.4823
10625TIP3    H153366   0.244   3.200   6.781  1.6406 -0.0753  1.1155
10625TIP3    H253367   0.310   3.337   6.782 -0.6783  1.0905  1.7078
10626TIP3   OH253368   5.358   6.707  14.814 -0.2642  0.0258  0.5158
10626TIP3    H153369   5.349   6.631  14.757 -0.2983 -0.1180  0.7143
10626TIP3    H253370   5.311   6.777  14.768 -2.9701 -0.8339  1.8054
10627TIP3   OH253371   4.101   4.660   4.079 -0.5477  0.2764 -0.4507
10627TIP3    H153372   4.136   4.749   4.083  1.3095 -0.2757 -2.6349
10627TIP3    H253373   4.162   4.613   4.022 -1.9207 -2.2068  0.0118
10628TIP3   OH253374   3.732   1.573  14.500 -0.5194 -0.1081 -0.2094
10628TIP3    H153375   3.644   1.546  14.475 -0.2565 -1.5317  0.3273
10628TIP3    H253376   3.740   1.546  14.591  0.8397 -0.9824 -0.5632
10629TIP3   OH253377   4.129   1.580  17.193  0.0974  0.6776  0.2149
10629TIP3    H153378   4.110   1.622  17.277  2.4116 -1.5459  1.9747
10629TIP3    H253379   4.049   1.532  17.172 -0.3507  0.8842  1.3583
10630TIP3   OH253380   3.504   4.232   6.243 -0.1955  0.5665  0.3361
10630TIP3    H153381   3.441   4.170   6.207 -0.3099  0.4927  0.6648
10630TIP3    H253382   3.557   4.259   6.167  0.2800 -0.4240  0.3009
10631TIP3   OH253383   0.640   5.976   1.469 -0.3506 -0.4098  0.5953
10631TIP3    H153384   0.684   6.042   1.416 -0.1685 -0.0607  1.1717
10631TIP3    H253385   0.691   5.971   1.550 -0.6493 -0.9008  0.7626
10632TIP3   OH253386   1.995   5.378  10.469 -0.3732 -0.5715  0.2176
10632TIP3    H153387   1.980   5.283  10.469 -0.3960 -0.5669  0.3950
10632TIP3    H253388   1.908   5.416  10.470 -0.4094 -0.5462 -1.4090
10633TIP3   OH253389   6.639   2.625   6.519  0.2281  0.3397  0.2082
10633TIP3    H153390   6.544   2.618   6.525  0.1662 -0.6967 -1.2856
10633TIP3    H253391   6.670   2.535   6.523  1.0385  0.5666 -0.6160
10634TIP3   OH253392   6.074   1.934   1.823  0.2918 -0.2259  0.3302
10634TIP3    H153393   6.007   1.875   1.787 -0.9363  0.7661  0.9321
10634TIP3    H253394   6.148   1.926   1.761  0.5976 -3.1269  0.9117
10635TIP3   OH253395   5.582   4.539   4.515  0.0583 -0.1691 -0.8676
10635TIP3    H153396   5.635   4.474   4.468 -0.8668 -1.2522 -0.4801
10635TIP3    H253397   5.511   4.487   4.554 -0.3710  1.0063 -0.0381
10636TIP3   OH253398   6.676   1.471   1.613  0.0122 -0.4691 -0.0561
10636TIP3    H153399   6.652   1.514   1.531  0.1297  0.3140  0.3113
10636TIP3    H253400   6.752   1.418   1.591 -0.3895 -0.8188 -0.6104
10637TIP3   OH253401   6.552   2.150  16.129  0.1311 -0.7003  0.7511
10637TIP3    H153402   6.464   2.186  16.114  0.5778 -0.0470 -0.4134
10637TIP3    H253403   6.608   2.227  16.138  1.0156 -1.0503 -1.2483
10638TIP3   OH253404   6.450   1.757   2.096  0.1446  0.4935  0.3729
10638TIP3    H153405   6.538   1.720   2.105  0.1281  0.9064  2.8335
10638TIP3    H253406   6.445   1.824   2.164 -2.3538 -0.0939  0.8598
10639TIP3   OH253407   5.440   6.363  15.490 -0.7270  0.3608 -0.1980
10639TIP3    H153408   5.374   6.361  15.421 -1.2598  0.7700  0.2867
10639TIP3    H253409   5.495   6.437  15.469 -1.7615  1.3905  0.5817
10640TIP3   OH253410   3.910   3.827   6.519 -0.5118  0.1552  0.0646
10640TIP3    H153411   3.972   3.872   6.575 -1.2398 -0.1460  1.1480
10640TIP3    H253412   3.854   3.778   6.580 -0.8168 -0.8237 -0.9746
10641TIP3   OH253413   6.713   3.134  11.498  0.1471 -0.0256 -0.2769
10641TIP3    H153414   6.641   3.071  11.502  0.1891 -0.0551  0.0026
10641TIP3    H253415   6.677   3.215  11.535  0.4980 -0.2723  0.6346
10642TIP3   OH253416   0.762   4.014  14.896 -0.6253 -0.0885  0.1951
10642TIP3    H153417   0.733   3.997  14.806 -2.2553 -2.8735  1.1121
10642TIP3    H253418   0.855   3.991  14.896 -0.3340  0.9830 -0.9714
10643TIP3   OH253419   1.513   2.168  14.876 -0.2273 -0.3446  0.2522
10643TIP3    H153420   1.445   2.226  14.840  0.0269  0.9516  1.7432
10643TIP3    H253421   1.527   2.103  14.807 -2.8106 -0.5449 -0.1972
10644TIP3   OH253422   0.440   6.242   5.370  0.7604 -0.5607 -0.1566
10644TIP3    H153423   0.420   6.295   5.292 -2.0231 -1.5968 -0.2714
10644TIP3    H253424   0.403   6.156   5.350  1.2477 -1.2640  1.7884
10645TIP3   OH253425   1.497   4.685  15.704 -0.3839 -0.0117  0.2246
10645TIP3    H153426   1.568   4.621  15.712 -0.2316  0.2546  1.1380
10645TIP3    H253427   1.540   4.767  15.684 -0.5962 -0.2227 -1.1524
10646TIP3   OH253428   2.959   1.142  14.818  0.5963  0.3436  0.5520
10646TIP3    H153429   2.868   1.171  14.831  0.0628 -0.6730 -0.6352
10646TIP3    H253430   2.990   1.194  14.744 -0.5678 -2.2940 -1.9945
10647TIP3   OH253431   0.703   4.488  11.222 -0.0328 -0.4427 -0.1080
10647TIP3    H153432   0.677   4.567  11.175 -0.1489 -0.0511  0.5986
10647TIP3    H253433   0.653   4.418  11.180  0.1899 -0.1679 -0.8445
10648TIP3   OH253434   1.123   5.765   1.984 -0.1231  0.3439 -0.5610
10648TIP3    H153435   1.218   5.754   1.996 -0.1564 -0.1273 -0.7234
10648TIP3    H253436   1.085   5.728   2.064 -0.1570  0.7815 -0.3745
10649TIP3   OH253437   5.606   5.918   3.148 -0.0003 -0.1250 -0.4473
10649TIP3    H153438   5.515   5.930   3.174  0.7008  1.6796  1.5000
10649TIP3    H253439   5.629   5.831   3.182 -1.1792 -0.9285 -1.6499
10650TIP3   OH253440   6.240   4.967   3.630  0.2050  0.2665  0.2195
10650TIP3    H153441   6.159   4.937   3.589 -0.0867  0.9761  0.2602
10650TIP3    H253442   6.309   4.924   3.580 -0.1864 -0.0660 -0.0444
10651TIP3   OH253443   2.725   3.661  16.809 -0.4184  0.0921 -0.3059
10651TIP3    H153444   2.761   3.667  16.720 -1.5143  0.8159 -0.7185
10651TIP3    H253445   2.702   3.569  16.819  1.0692 -0.3049 -0.1989
10652TIP3   OH253446   2.530   1.885   3.018 -0.5082  0.1385 -0.4060
10652TIP3    H153447   2.488   1.912   2.936 -1.6505  2.1201  0.7618
10652TIP3    H253448   2.463   1.900   3.085  0.3669 -1.5372  0.9178
10653TIP3   OH253449   0.672   0.213   0.158 -0.3597  0.1191  0.5192
10653TIP3    H153450   0.727   0.164   0.219 -0.0060 -0.5855 -0.3440
10653TIP3    H253451   0.717   0.296   0.145  0.4243 -0.3755 -0.0248
10654TIP3   OH253452   5.491   2.323  14.432 -0.2772 -0.1026 -0.3084
10654TIP3    H153453   5.450   2.276  14.504 -1.3672  0.8683 -0.2579
10654TIP3    H253454   5.446   2.291  14.354 -0.3816  0.1735 -0.3637
10655TIP3   OH253455   1.646   3.111  12.893 -0.1426  0.5302 -0.2341
10655TIP3    H153456   1.562   3.157  12.896 -0.6437 -0.2060 -1.8262
10655TIP3    H253457   1.709   3.174  12.928 -1.2557  1.3013  0.4703
10656TIP3   OH253458   5.523   3.516  13.411 -0.4148 -0.0619  0.1550
10656TIP3    H153459   5.482   3.444  13.363  1.4652 -1.0946 -0.0273
10656TIP3    H253460   5.479   3.517  13.496 -0.9509 -0.9745 -0.0960
10657TIP3   OH253461   5.831   0.127  17.178 -0.5804 -0.1976 -0.6017
10657TIP3    H153462   5.778   0.183  17.235 -0.1805  0.7900 -1.1853
10657TIP3    H253463   5.787   0.042  17.182 -0.1419 -0.3985  1.7966
10658TIP3   OH253464   0.313   1.669  11.495  0.1049 -1.1002 -0.6131
10658TIP3    H153465   0.408   1.666  11.485  0.1133 -1.2389 -0.4970
10658TIP3    H253466   0.284   1.731  11.429  0.4423  0.2937  0.5043
10659TIP3   OH253467   2.210   1.788  11.646 -0.4277  0.0160  0.3530
10659TIP3    H153468   2.140   1.818  11.705 -1.1234  1.3460 -1.0813
10659TIP3    H253469   2.285   1.842  11.669  0.0679 -1.1606  1.6453
10660TIP3   OH253470   2.230   2.352  15.119  0.1812  0.5909 -0.2920
10660TIP3    H153471   2.224   2.268  15.163 -1.4306  0.6301 -0.3635
10660TIP3    H253472   2.149   2.358  15.067 -0.0233  2.4062  0.1551
10661TIP3   OH253473   0.712   3.952  14.431 -0.5084 -0.0153 -0.1153
10661TIP3    H153474   0.737   3.908  14.350  0.0348  1.3177 -0.6966
10661TIP3    H253475   0.795   3.977  14.471 -0.7943  0.0656  0.4357
10662TIP3   OH253476   3.932   5.093   5.076  0.5451  0.1679 -0.4045
10662TIP3    H153477   3.865   5.079   5.142 -0.4085 -0.4425 -1.4701
10662TIP3    H253478   4.010   5.049   5.111  0.5793  1.3474  1.0884
10663TIP3   OH253479   2.531   4.990   1.845  0.3222  0.1627 -0.5801
10663TIP3    H153480   2.568   4.946   1.769 -1.1989  1.2317 -1.9862
10663TIP3    H253481   2.504   5.076   1.813 -1.4952  0.1833  0.8372
10664TIP3   OH253482   2.200   3.193  13.578  0.6261 -0.1525  0.0851
10664TIP3    H153483   2.224   3.166  13.490 -0.6759  1.8925 -0.9761
10664TIP3    H253484   2.219   3.117  13.633 -1.5892 -2.7383 -2.4255
10665TIP3   OH253485   0.291   4.168  16.869  0.0315 -0.8313  0.0354
10665TIP3    H153486   0.318   4.240  16.812 -1.8986 -0.9557 -1.1568
10665TIP3    H253487   0.367   4.111  16.874  0.2069 -0.9803 -2.7515
10666TIP3   OH253488   6.605   3.498  14.439  0.1070  0.1471  0.2321
10666TIP3    H153489   6.549   3.564  14.399 -0.2942 -0.8251 -0.8745
10666TIP3    H253490   6.544   3.437  14.481  0.4680  0.4670  1.2403
10667TIP3   OH253491   5.302   3.803   4.366  0.5119 -0.2328  0.2606
10667TIP3    H153492   5.391   3.835   4.379  0.3793 -0.2137  1.1563
10667TIP3    H253493   5.267   3.857   4.295  1.0960 -0.0129  0.1396
10668TIP3   OH253494   4.716   3.088  13.761 -0.2675  0.0892 -0.2752
10668TIP3    H153495   4.664   3.153  13.713  0.8336 -0.8266 -2.8836
10668TIP3    H253496   4.770   3.140  13.821 -1.0536  1.3870 -0.6537
10669TIP3   OH253497   5.191   3.737   2.054 -0.2881  0.7065 -0.2550
10669TIP3    H153498   5.236   3.730   2.139 -0.7479  1.8310  0.0965
10669TIP3    H253499   5.136   3.659   2.050  0.2026  0.3239  0.1894
10670TIP3   OH253500   1.021   6.155  14.200 -0.5987 -0.3973 -0.4114
10670TIP3    H153501   0.966   6.077  14.190 -2.0726  0.4754  0.5124
10670TIP3    H253502   1.095   6.126  14.252 -0.8063 -1.3220 -0.6118
10671TIP3   OH253503   5.535   6.491  13.092  0.0456 -0.0261  0.0311
10671TIP3    H153504   5.611   6.542  13.119 -0.1468  0.8006 -0.9160
10671TIP3    H253505   5.571   6.416  13.046  0.3943 -1.5905  2.6333
10672TIP3   OH253506   6.132   3.191  12.248  0.9197  0.0470  0.2199
10672TIP3    H153507   6.177   3.110  12.223 -0.1100 -0.5416  0.1831
10672TIP3    H253508   6.193   3.236  12.307  1.7014 -0.5229 -0.1351
10673TIP3   OH253509   3.706   0.500  14.458  0.1725 -0.0007 -0.1526
10673TIP3    H153510   3.801   0.484  14.456 -0.0065 -1.1862  0.3247
10673TIP3    H253511   3.680   0.477  14.547 -0.6147  0.0693 -0.3650
10674TIP3   OH253512   0.299   5.864   3.490 -0.1523  0.0397  0.4767
10674TIP3    H153513   0.321   5.953   3.518  2.4239 -0.4765  0.3725
10674TIP3    H253514   0.340   5.807   3.555  0.1223 -1.0704 -0.6113
10675TIP3   OH253515   4.308   3.999  14.169 -0.4447 -0.7829 -0.3615
10675TIP3    H153516   4.244   4.069  14.158  0.4119 -0.0146 -0.5889
10675TIP3    H253517   4.355   3.996  14.085  2.8102  1.7540  1.1296
10676TIP3   OH253518   3.376   6.221  10.887  0.7384 -0.3915  0.4784
10676TIP3    H153519   3.407   6.311  10.891  0.9182 -0.4857  2.0964
10676TIP3    H253520   3.449   6.172  10.849  0.6985  0.1181 -0.2582
10677TIP3   OH253521   1.759   1.599   3.950 -0.3291  0.3807  0.4324
10677TIP3    H153522   1.832   1.638   3.902 -0.3204  0.1058  0.2220
10677TIP3    H253523   1.799   1.562   4.028 -0.1952 -0.0258  0.1760
10678TIP3   OH253524   6.837   4.689  17.114  0.1755  0.3956 -0.7435
10678TIP3    H153525   6.792   4.616  17.155  2.4680 -0.7610 -0.1534
10678TIP3    H253526   6.835   4.759  17.179 -2.4942  1.1485 -1.5099
10679TIP3   OH253527   0.033   4.267   0.263 -0.1789  0.2544  0.0322
10679TIP3    H153528  -0.017   4.227   0.192 -0.5349  0.3181  0.2426
10679TIP3    H253529   0.028   4.203   0.335  0.3043  0.1229 -0.0467
10680TIP3   OH253530   6.495   4.310   2.613  0.1374 -0.3783  0.3045
10680TIP3    H153531   6.513   4.345   2.526  0.2295 -1.3530 -0.0882
10680TIP3    H253532   6.401   4.320   2.624 -0.4251 -3.0053 -1.2172
10681TIP3   OH253533   4.680   0.848   4.156 -0.1909 -0.2884 -0.2294
10681TIP3    H153534   4.758   0.811   4.197  0.6719  2.6642  1.0875
10681TIP3    H253535   4.710   0.930   4.116 -2.3819  0.3053 -0.8238
10682TIP3   OH253536   1.466   5.510  11.681  0.5006 -0.4900  0.1391
10682TIP3    H153537   1.483   5.428  11.727 -0.9846  0.0034  1.6873
10682TIP3    H253538   1.517   5.576  11.729  0.6892 -0.3104 -0.3030
10683TIP3   OH253539   5.039   4.833  13.186  0.3948 -0.3802 -0.3148
10683TIP3    H153540   5.106   4.781  13.141  1.3815  1.8491 -1.5969
10683TIP3    H253541   5.088   4.879  13.254 -0.9831 -3.2793  2.9377
10684TIP3   OH253542   3.883   1.341   4.623  0.2449 -0.2251  0.0710
10684TIP3    H153543   3.798   1.359   4.583  1.0363 -0.8319 -1.9924
10684TIP3    H253544   3.916   1.427   4.648 -1.1243 -0.0128  1.2975
10685TIP3   OH253545   0.589   4.475   1.893 -0.7380  0.2991 -0.3876
10685TIP3    H153546   0.618   4.550   1.945 -0.0094  0.7726 -1.4404
10685TIP3    H253547   0.513   4.441   1.941 -1.3594  1.9656 -0.1047
10686TIP3   OH253548   1.250   5.327  12.800  0.1908 -0.2369  0.3547
10686TIP3    H153549   1.281   5.319  12.890  2.2961 -2.0096 -0.4474
10686TIP3    H253550   1.237   5.237  12.771  3.8708 -0.1238 -2.3996
10687TIP3   OH253551   4.148   6.539  12.484  0.5359  0.0066  0.2857
10687TIP3    H153552   4.106   6.466  12.439  1.9705 -0.5051 -0.2998
10687TIP3    H253553   4.091   6.614  12.468 -0.4785 -0.7935  0.1019
10688TIP3   OH253554   2.616   2.554   0.765 -0.1435 -0.1437 -0.2261
10688TIP3    H153555   2.620   2.524   0.856  0.3691 -0.2277 -0.2758
10688TIP3    H253556   2.602   2.474   0.714 -1.7609  0.0350 -0.1329
10689TIP3   OH253557   5.160   5.316   0.830  0.2506  0.1127 -0.4273
10689TIP3    H153558   5.244   5.345   0.865 -0.2678  0.6855  0.3877
10689TIP3    H253559   5.095   5.357   0.888 -0.5607 -1.1081 -0.4544
10690TIP3   OH253560   1.826   4.383   3.744  0.0792  0.3106 -0.4486
10690TIP3    H153561   1.824   4.289   3.726  0.3213  0.4250 -1.0640
10690TIP3    H253562   1.756   4.419   3.690  1.9076  0.8873 -2.5272
10691TIP3   OH253563   2.138   5.877   2.180 -0.2038 -0.5983 -0.0527
10691TIP3    H153564   2.058   5.825   2.174 -0.8743  0.2616  1.1808
10691TIP3    H253565   2.112   5.965   2.155  0.4843 -0.4139 -0.1537
10692TIP3   OH253566   5.131   2.360  15.082  0.0775 -0.2927  0.3403
10692TIP3    H153567   5.057   2.406  15.123 -2.0324 -1.9057 -1.4255
10692TIP3    H253568   5.164   2.303  15.151 -0.4301  0.3172  1.1154
10693TIP3   OH253569   6.666   6.025  15.348 -0.1097  0.0612  0.6846
10693TIP3    H153570   6.746   5.981  15.321 -0.9424 -1.2788  0.2680
10693TIP3    H253571   6.642   5.984  15.431 -1.8202 -1.5961 -0.5488
10694TIP3   OH253572   5.882   6.453  14.041  0.0840 -0.4974 -0.4275
10694TIP3    H153573   5.873   6.508  14.119 -2.2242 -0.7947 -0.4155
10694TIP3    H253574   5.854   6.366  14.070  2.5674 -1.4806 -0.7423
10695TIP3   OH253575   6.118   5.907   4.664  0.1193 -0.1475 -1.0092
10695TIP3    H153576   6.204   5.926   4.626 -0.1720  0.1744 -1.5154
10695TIP3    H253577   6.100   5.816   4.637  0.3345 -0.2420 -0.8356
10696TIP3   OH253578   3.404   6.786  12.692  0.3698  0.7139  0.1167
10696TIP3    H153579   3.384   6.778  12.599  0.7831 -0.6836  0.1337
10696TIP3    H253580   3.320   6.770  12.735  0.6401 -1.1047  0.0439
10697TIP3   OH253581   3.927   6.034   5.266  0.1874  0.9293  0.1455
10697TIP3    H153582   4.014   6.036   5.226  0.2478 -0.0513  0.1883
10697TIP3    H253583   3.892   6.122   5.254  0.8219  1.0761 -0.6789
10698TIP3   OH253584   2.469   1.645  11.414 -0.1626  0.1168 -0.4709
10698TIP3    H153585   2.495   1.597  11.492  0.8273 -1.9833 -2.0091
10698TIP3    H253586   2.377   1.621  11.401 -0.3538  0.5322  0.0426
10699TIP3   OH253587   1.363   3.210   1.969 -0.1214 -0.6459 -0.4179
10699TIP3    H153588   1.390   3.123   1.938  0.8797 -0.2111 -0.7911
10699TIP3    H253589   1.348   3.260   1.889 -1.6389 -0.7286 -0.2238
10700TIP3   OH253590   1.482   6.343  12.295  0.2927  0.1165 -0.9770
10700TIP3    H153591   1.455   6.406  12.362 -1.3451 -1.3975 -0.1578
10700TIP3    H253592   1.550   6.290  12.336 -1.1093 -1.1845 -0.2435
10701TIP3   OH253593   4.504   0.639  17.217  0.2077 -0.0650  0.0500
10701TIP3    H153594   4.420   0.684  17.215 -0.5306 -1.3729  0.4219
10701TIP3    H253595   4.482   0.546  17.210  1.4503 -0.6082  2.3538
10702TIP3   OH253596   6.190   6.431   0.746  0.3137 -0.4609 -0.0343
10702TIP3    H153597   6.252   6.390   0.686 -1.3861 -2.5183 -0.5015
10702TIP3    H253598   6.163   6.360   0.804 -0.5450  0.7239  1.0567
10703TIP3   OH253599   3.323   3.450   3.282  0.3870  0.5704  0.5519
10703TIP3    H153600   3.283   3.498   3.209  1.2550 -1.3225 -1.3166
10703TIP3    H253601   3.251   3.433   3.342 -1.5173 -1.6243 -2.0877
10704TIP3   OH253602   4.338   0.570   1.665  0.1602  0.1257  0.3580
10704TIP3    H153603   4.257   0.578   1.614 -0.2141 -0.9251  0.7629
10704TIP3    H253604   4.349   0.476   1.678  1.0345  0.3032  0.9758
10705TIP3   OH253605   1.506   0.243  12.499 -0.3255 -0.0775  0.1442
10705TIP3    H153606   1.576   0.309  12.506 -0.8365  0.3600  1.5903
10705TIP3    H253607   1.544   0.164  12.537 -0.1136 -0.2929 -0.4989
10706TIP3   OH253608   2.718   4.299   3.821 -0.0617  0.8310  0.2367
10706TIP3    H153609   2.717   4.292   3.726  1.6085  2.1362  0.0856
10706TIP3    H253610   2.765   4.380   3.839 -1.3036  1.2073  2.1650
10707TIP3   OH253611   3.159   2.067  11.992 -0.3360  0.0416  0.1158
10707TIP3    H153612   3.154   2.045  12.085  1.2919  0.5014  0.3387
10707TIP3    H253613   3.184   1.986  11.949  0.7411  0.2537  0.3218
10708TIP3   OH253614   5.362   6.347   4.172  0.0753 -0.1194 -0.2215
10708TIP3    H153615   5.273   6.310   4.174 -0.6099  1.4863  0.1211
10708TIP3    H253616   5.378   6.367   4.080 -0.6646  1.2943 -0.0577
10709TIP3   OH253617   6.118   5.418  12.484  0.0507  0.4361  0.2421
10709TIP3    H153618   6.199   5.385  12.444 -0.7364 -0.6687 -0.4904
10709TIP3    H253619   6.048   5.382  12.430 -0.9288  1.9707  0.4345
10710TIP3   OH253620   1.380   6.551   5.311 -0.5715  0.0619 -0.1006
10710TIP3    H153621   1.349   6.545   5.401  0.8698  0.8151  0.4853
10710TIP3    H253622   1.339   6.631   5.277  1.3576  1.6045  0.9880
10711TIP3   OH253623   2.172   6.016  14.852  0.8051 -0.5541 -0.8047
10711TIP3    H153624   2.203   6.094  14.806  0.8553  0.1224  0.3411
10711TIP3    H253625   2.251   5.966  14.871  0.9518 -0.0562 -0.0763
10712TIP3   OH253626   0.816   0.379  16.740  0.0540 -0.4580  0.3011
10712TIP3    H153627   0.734   0.333  16.721 -0.7746  1.6672 -1.7787
10712TIP3    H253628   0.882   0.310  16.747 -1.5271 -2.0787 -0.1837
10713TIP3   OH253629   0.224   6.298  16.200 -0.0504  0.1997  0.3026
10713TIP3    H153630   0.312   6.308  16.165 -0.2479 -1.3352 -0.7354
10713TIP3    H253631   0.236   6.292  16.295  0.9089  0.4556  0.2046
10714TIP3   OH253632   3.096   5.048  14.141 -0.6456 -0.6993 -0.4301
10714TIP3    H153633   3.178   5.006  14.168  0.0396  0.1563 -1.1193
10714TIP3    H253634   3.079   5.112  14.210 -0.2797 -0.2982 -0.7091
10715TIP3   OH253635   0.974   6.744   5.418 -0.3839 -0.1816  0.2768
10715TIP3    H153636   0.888   6.773   5.448 -0.4113 -1.6242  1.6883
10715TIP3    H253637   1.012   6.698   5.493  1.5804  0.3065 -0.3559
10716TIP3   OH253638   3.045   6.102  13.624  0.5089 -0.1001 -0.4412
10716TIP3    H153639   3.044   6.012  13.658  1.5825 -0.4516 -1.3061
10716TIP3    H253640   3.133   6.134  13.645 -0.2316  1.1853  0.9082
10717TIP3   OH253641   2.513   1.157  12.265  0.8890 -0.1432 -0.1080
10717TIP3    H153642   2.590   1.110  12.298  1.6991  1.2997  0.1656
10717TIP3    H253643   2.540   1.249  12.266 -1.1055  0.4691  0.6402
10718TIP3   OH253644   0.114   0.638  12.655 -0.2316 -0.3687 -0.3551
10718TIP3    H153645   0.194   0.650  12.605 -0.4135  0.3780 -0.4874
10718TIP3    H253646   0.055   0.593  12.595 -0.5521  0.7884 -0.9464
10719TIP3   OH253647   5.889   2.962   1.548 -0.5413 -0.5933 -0.7159
10719TIP3    H153648   5.859   3.032   1.606  0.2966 -0.9950  0.2249
10719TIP3    H253649   5.979   2.945   1.575  0.4919  0.3408 -3.2268
10720TIP3   OH253650   3.264   2.601  16.120 -0.5631  0.2046 -0.4631
10720TIP3    H153651   3.252   2.692  16.148 -1.7325  0.0549 -0.3933
10720TIP3    H253652   3.303   2.558  16.196 -1.1875  0.3929 -0.0188
10721TIP3   OH253653   4.032   5.596   2.382 -0.3671  0.0493  0.0693
10721TIP3    H153654   4.064   5.686   2.389  0.6615 -0.3324  0.5498
10721TIP3    H253655   4.110   5.542   2.395 -1.0711 -0.9178  0.3856
10722TIP3   OH253656   2.763   2.578  16.952 -0.0727 -0.9055  0.0503
10722TIP3    H153657   2.667   2.580  16.945  0.0198  0.0145 -1.6035
10722TIP3    H253658   2.792   2.653  16.900  1.5360 -0.6413  1.2451
10723TIP3   OH253659   0.195   6.443  16.623  0.2478  1.2664  0.4426
10723TIP3    H153660   0.188   6.506  16.694  1.1354  1.8323  0.0573
10723TIP3    H253661   0.271   6.474  16.572 -0.6048  1.1183 -0.9743
10724TIP3   OH253662   0.288   0.120  16.617 -0.1227  0.3099 -0.4734
10724TIP3    H153663   0.219   0.184  16.598  0.0164  0.5672 -0.1327
10724TIP3    H253664   0.364   0.153  16.569  0.1999  0.9030  0.4104
10725TIP3   OH253665   4.636   5.362  16.604 -0.1397 -0.5904 -0.7165
10725TIP3    H153666   4.627   5.273  16.640  0.3614 -0.4766 -0.3055
10725TIP3    H253667   4.672   5.413  16.676 -0.2076 -0.1001 -1.0294
10726TIP3   OH253668   2.717   0.597   3.419 -0.6862 -0.3258  0.1608
10726TIP3    H153669   2.757   0.607   3.505 -0.9538  0.3936  0.2090
10726TIP3    H253670   2.791   0.587   3.359 -0.4809 -0.2450  0.4003
10727TIP3   OH253671   2.572   0.195  14.034 -0.4333 -0.1602 -0.4521
10727TIP3    H153672   2.486   0.180  13.995 -0.4494 -0.7755 -0.1907
10727TIP3    H253673   2.554   0.232  14.120 -0.4649 -0.8560 -0.1487
10728TIP3   OH253674   2.535   3.405   3.931 -0.2445 -1.0008  0.0867
10728TIP3    H153675   2.556   3.312   3.932 -0.1555 -0.9790  0.7894
10728TIP3    H253676   2.572   3.438   3.849  1.9755 -1.0794  1.0038
10729TIP3   OH253677   0.052   6.014  14.687  0.1513  0.1347  0.1155
10729TIP3    H153678   0.023   6.021  14.779 -1.3388  1.4441 -0.4023
10729TIP3    H253679   0.033   6.100  14.650 -2.1985 -1.2231 -2.2019
10730TIP3   OH253680   6.773   4.420   6.270 -0.2825  0.0364 -0.0710
10730TIP3    H153681   6.800   4.499   6.317  0.2953  0.8604 -1.7217
10730TIP3    H253682   6.763   4.354   6.339  0.4319  1.2089  1.2190
10731TIP3   OH253683   6.465   0.735   2.917 -0.1667 -0.1045 -0.7347
10731TIP3    H153684   6.411   0.718   2.840 -1.0202  1.3483 -0.4859
10731TIP3    H253685   6.554   0.745   2.882 -0.1902 -1.5050 -1.2613
10732TIP3   OH253686   1.196   2.292   4.568 -0.4171 -0.2334 -0.2213
10732TIP3    H153687   1.184   2.335   4.653 -1.2171  0.5049 -0.6920
10732TIP3    H253688   1.291   2.282   4.560 -0.2238  1.1514  0.0597
10733TIP3   OH253689   0.591   4.474   3.030 -0.0074 -0.2047 -0.7774
10733TIP3    H153690   0.634   4.395   2.998  0.1790  0.3625 -2.0052
10733TIP3    H253691   0.658   4.517   3.085  0.7912  0.3191 -2.1099
10734TIP3   OH253692   6.542   0.177   3.980  0.0235 -0.2101  0.1505
10734TIP3    H153693   6.511   0.129   4.056 -2.3839 -0.5574 -0.9711
10734TIP3    H253694   6.632   0.146   3.967  0.5453 -0.0688  2.8282
10735TIP3   OH253695   0.538   5.584   4.340 -0.4069  0.1544  0.6828
10735TIP3    H153696   0.458   5.561   4.387 -1.0070 -0.4877 -0.6146
10735TIP3    H253697   0.604   5.525   4.376 -0.9927 -0.7411  0.3394
10736TIP3   OH253698   2.963   0.623  17.088  0.0414 -0.3963  0.3727
10736TIP3    H153699   3.049   0.585  17.071  0.2027  0.7245 -1.6049
10736TIP3    H253700   2.975   0.673  17.169  0.9795 -1.0218  0.6362
10737TIP3   OH253701   0.251   5.256  14.389 -0.0093 -0.0731  0.4321
10737TIP3    H153702   0.245   5.161  14.393  1.3368 -0.2264 -0.5636
10737TIP3    H253703   0.231   5.278  14.298  1.8862  0.3762  0.0801
10738TIP3   OH253704   4.791   4.981   5.772  0.5594 -0.4367 -0.2116
10738TIP3    H153705   4.700   5.003   5.755  0.7127  0.2131 -0.2181
10738TIP3    H253706   4.788   4.899   5.821 -0.0800  0.2878  1.0036
10739TIP3   OH253707   0.002   0.178   0.680  0.2789 -0.2037 -0.2666
10739TIP3    H153708  -0.087   0.151   0.703 -0.6123  1.6708 -1.3102
10739TIP3    H253709   0.044   0.195   0.765 -0.6591 -0.1856  0.2076
10740TIP3   OH253710   3.209   2.816  15.764 -0.8701  0.0382  0.1673
10740TIP3    H153711   3.214   2.870  15.686  0.4902 -0.2629  0.0197
10740TIP3    H253712   3.132   2.848  15.811 -0.4156  1.7429 -0.1842
10741TIP3   OH253713   5.714   2.345  14.859 -0.6095 -0.2158 -0.2662
10741TIP3    H153714   5.803   2.353  14.824 -0.2402  0.4073  0.7569
10741TIP3    H253715   5.692   2.253  14.847 -0.9044  0.1352 -2.9885
10742TIP3   OH253716   2.246   4.570  15.533  0.2286 -0.1260  0.2189
10742TIP3    H153717   2.230   4.477  15.518  1.2618 -0.9932  3.6387
10742TIP3    H253718   2.341   4.580  15.529  0.0700  1.2273 -1.8602
10743TIP3   OH253719   6.660   4.778  13.326  0.3736 -0.1314  0.6341
10743TIP3    H153720   6.642   4.846  13.262  2.0072  1.0092  1.3199
10743TIP3    H253721   6.674   4.825  13.408  1.0513 -1.3302  1.2328
10744TIP3   OH253722   4.624   1.875   5.050  0.2012 -0.1224 -0.2889
10744TIP3    H153723   4.664   1.875   5.137 -0.1947  0.0779 -0.1067
10744TIP3    H253724   4.695   1.903   4.991  0.4560 -0.2154 -0.0261
10745TIP3   OH253725   6.218   2.951  16.219  0.3144 -0.1820  0.2546
10745TIP3    H153726   6.274   2.874  16.226  2.9907  1.6324  0.3917
10745TIP3    H253727   6.145   2.934  16.279  0.7491 -2.6118  0.1647
10746TIP3   OH253728   6.022   6.237   5.022 -0.6374  0.3033  0.5851
10746TIP3    H153729   6.096   6.242   5.083 -0.4466  0.7526  0.3167
10746TIP3    H253730   5.961   6.177   5.064 -0.5547  0.6921  1.2702
10747TIP3   OH253731   0.914   2.486   3.235 -0.0824  0.2655 -0.5180
10747TIP3    H153732   0.820   2.472   3.226 -0.0526  0.3409 -1.0168
10747TIP3    H253733   0.940   2.434   3.310 -0.6072  0.6329 -0.0768
10748TIP3   OH253734   3.649   4.185   4.897  0.2203  0.1933  0.3605
10748TIP3    H153735   3.651   4.247   4.824 -0.2328  0.4321  0.5456
10748TIP3    H253736   3.737   4.147   4.898  0.3748  0.5258 -0.0182
10749TIP3   OH253737   6.287   5.073   4.430 -0.1291  0.0858  0.6739
10749TIP3    H153738   6.274   5.081   4.524  0.6178 -0.3295  0.8163
10749TIP3    H253739   6.381   5.057   4.420 -0.4533 -1.5051 -0.0321
10750TIP3   OH253740   1.962   0.959   3.061  0.1143 -0.3111  0.1686
10750TIP3    H153741   2.000   0.873   3.047  1.6561  0.6021 -1.6618
10750TIP3    H253742   2.021   1.020   3.017 -1.8529  1.5233 -0.1445
10751TIP3   OH253743   3.330   1.481  15.659 -0.2079  0.0635 -0.2568
10751TIP3    H153744   3.278   1.559  15.636  0.6430  0.8277  0.3441
10751TIP3    H253745   3.346   1.489  15.753 -0.6027 -1.1626 -0.0681
10752TIP3   OH253746   6.490   2.539  11.269 -0.0822  0.0487 -0.5613
10752TIP3    H153747   6.469   2.585  11.350  1.7867  1.2835 -0.7386
10752TIP3    H253748   6.415   2.557  11.211  0.2939  2.3797 -0.4042
10753TIP3   OH253749   2.533   2.137   4.345  0.5915  0.1351 -0.2455
10753TIP3    H153750   2.567   2.131   4.434 -0.4291  2.3099  0.3653
10753TIP3    H253751   2.605   2.174   4.294  0.6506  0.4288  0.0448
10754TIP3   OH253752   3.596   5.063   2.642  0.6109  0.6493 -0.2269
10754TIP3    H153753   3.679   5.110   2.648  0.3928  0.8600  2.4849
10754TIP3    H253754   3.605   4.990   2.703 -1.3405  1.0435  0.6304
10755TIP3   OH253755   1.878   2.983   1.484  0.2106 -0.1385 -0.3014
10755TIP3    H153756   1.968   2.982   1.450  0.8304 -1.3088  1.2353
10755TIP3    H253757   1.855   2.890   1.495  0.0746  0.1336  2.3568
10756TIP3   OH253758   4.860   0.909  11.229  0.0354  0.3417  0.4291
10756TIP3    H153759   4.906   0.878  11.307 -0.1527  2.0886  1.2791
10756TIP3    H253760   4.768   0.901  11.251 -0.0247  0.2578  0.1433
10757TIP3   OH253761   2.864   2.714  16.120  0.8989  0.3408 -0.7026
10757TIP3    H153762   2.918   2.661  16.179  0.3991  0.6007 -0.0003
10757TIP3    H253763   2.795   2.655  16.091  1.0903  0.2402 -0.9571
10758TIP3   OH253764   5.152   0.232  14.454  0.4879  0.2853 -0.3371
10758TIP3    H153765   5.132   0.322  14.478 -1.4260  0.5175 -2.4652
10758TIP3    H253766   5.207   0.239  14.375  1.8678 -0.4430  0.5152
10759TIP3   OH253767   5.940   0.439   2.337 -0.5062 -0.0654 -0.2315
10759TIP3    H153768   5.965   0.360   2.384  1.9571  0.2772 -0.8254
10759TIP3    H253769   5.887   0.407   2.264 -0.2167 -1.0785 -0.0182
10760TIP3   OH253770   4.472   5.934  16.914 -0.1765 -0.2620  0.7443
10760TIP3    H153771   4.530   5.979  16.976  0.0608 -0.8535  0.9654
10760TIP3    H253772   4.449   6.001  16.849 -0.1470  0.2739  1.2773
10761TIP3   OH253773   6.220   6.172   5.643  0.1352  0.3229  0.2398
10761TIP3    H153774   6.220   6.141   5.733 -2.7104 -1.4895 -0.2713
10761TIP3    H253775   6.160   6.247   5.644 -0.0570  0.1749 -0.1915
10762TIP3   OH253776   5.886   4.815  17.132  0.8956  0.0415  0.4395
10762TIP3    H153777   5.841   4.809  17.216  1.6843 -1.1361  0.8010
10762TIP3    H253778   5.929   4.901  17.134 -1.2000  1.1491  0.1207
10763TIP3   OH253779   6.352   2.591  14.807  0.1000  0.3481 -0.0548
10763TIP3    H153780   6.367   2.665  14.866 -0.4505  0.4903 -0.0948
10763TIP3    H253781   6.360   2.514  14.864 -1.0872  0.5065  0.3539
10764TIP3   OH253782   6.502   2.434  13.395  0.0617  0.4390  0.3441
10764TIP3    H153783   6.527   2.459  13.306  2.8431  1.0866  1.2001
10764TIP3    H253784   6.407   2.443  13.397 -0.5726 -2.7450 -3.4425
10765TIP3   OH253785   4.481   0.860  12.986  0.2692  0.4265  0.4010
10765TIP3    H153786   4.451   0.775  13.019 -2.7240  1.5393  0.8434
10765TIP3    H253787   4.489   0.915  13.064  0.2271  1.1053 -0.0685
10766TIP3   OH253788   6.192   0.304   4.767  0.1116 -0.4680 -0.1072
10766TIP3    H153789   6.209   0.398   4.754  0.9842 -0.8964 -2.5864
10766TIP3    H253790   6.266   0.273   4.818 -0.2064  0.1765  0.7735
10767TIP3   OH253791   5.366   1.636  16.395 -0.6001  0.0578  0.0143
10767TIP3    H153792   5.386   1.545  16.375  1.2967  0.4139  0.0862
10767TIP3    H253793   5.440   1.685  16.359 -1.8129  1.6320 -0.4605
10768TIP3   OH253794   6.429   0.737   5.119  0.3985 -0.2569 -0.1270
10768TIP3    H153795   6.351   0.729   5.064 -0.0699 -1.5788  0.6926
10768TIP3    H253796   6.396   0.727   5.208  1.6756 -2.3228  0.1651
10769TIP3   OH253797   5.652   5.897  12.903  0.5213  0.2057  0.9416
10769TIP3    H153798   5.649   5.983  12.945  0.6512  1.0256 -0.6410
10769TIP3    H253799   5.561   5.869  12.898  0.2079  1.4090 -0.7370
10770TIP3   OH253800   0.147   6.469   5.653  0.1260  0.1033 -0.0799
10770TIP3    H153801   0.202   6.487   5.578  0.2646  0.1861  0.0409
10770TIP3    H253802   0.084   6.542   5.654 -1.0437 -0.8544 -1.1879
10771TIP3   OH253803   3.108   2.514   3.456  0.2920  0.4454 -0.5030
10771TIP3    H153804   3.061   2.457   3.396  0.8054 -0.5188 -0.0158
10771TIP3    H253805   3.099   2.471   3.542  0.5966  1.1483 -0.1091
10772TIP3   OH253806   0.930   0.964  13.151 -0.1328 -0.3177 -0.1521
10772TIP3    H153807   0.982   0.964  13.071  1.1545 -2.1007  0.6055
10772TIP3    H253808   0.879   0.883  13.147 -1.0603  0.2189  0.2530
10773TIP3   OH253809   4.265   6.427  16.333  0.5968 -0.3378  0.5302
10773TIP3    H153810   4.253   6.415  16.239 -0.2000 -2.0431  0.8060
10773TIP3    H253811   4.305   6.513  16.341  0.7083 -0.1635 -1.3662
10774TIP3   OH253812   1.877   6.215   1.503 -0.0951 -0.5068  0.0728
10774TIP3    H153813   1.898   6.213   1.597  3.3974  2.0415 -0.4714
10774TIP3    H253814   1.906   6.130   1.470  0.1226 -0.8276  1.0514
10775TIP3   OH253815   2.301   2.846   2.513  0.3618 -0.3384 -0.2243
10775TIP3    H153816   2.206   2.845   2.504  0.2614 -1.8187  0.6646
10775TIP3    H253817   2.319   2.921   2.570 -0.1119  0.8259 -1.5460
10776TIP3   OH253818   1.540   4.055   4.497 -0.2319 -0.4111  0.1307
10776TIP3    H153819   1.610   4.092   4.443 -0.9840  0.2939 -0.3966
10776TIP3    H253820   1.460   4.070   4.446 -0.5147 -3.6441 -0.5749
10777TIP3   OH253821   4.171   1.348  14.749 -0.0118  0.6548  0.5806
10777TIP3    H153822   4.174   1.397  14.830 -2.1571  1.6876  0.1057
10777TIP3    H253823   4.151   1.413  14.682  0.5346 -0.3493 -0.5989
10778TIP3   OH253824   1.739   6.538   1.703 -0.2958 -0.2050  0.3616
10778TIP3    H153825   1.667   6.484   1.735 -1.0961  0.1220 -0.8129
10778TIP3    H253826   1.698   6.621   1.679  0.3564 -0.2109 -0.8711
10779TIP3   OH253827   3.623   5.187  12.866 -0.2851 -0.0178  0.2287
10779TIP3    H153828   3.605   5.269  12.913  0.3481  0.7791 -0.8671
10779TIP3    H253829   3.544   5.135  12.877 -0.2902  0.2913  1.8462
10780TIP3   OH253830   3.184   0.188  15.792 -0.0627  0.0920 -0.0258
10780TIP3    H153831   3.257   0.248  15.780 -0.0963  0.7313  2.4489
10780TIP3    H253832   3.217   0.104  15.759  1.3903  0.6181 -0.0075
10781TIP3   OH253833   6.541   0.677  12.258  0.4500 -0.0688 -0.1935
10781TIP3    H153834   6.592   0.669  12.177 -0.0336  0.4870 -0.5527
10781TIP3    H253835   6.564   0.598  12.308  1.1587 -0.1526 -0.6362
10782TIP3   OH253836   6.789   2.176  13.873  0.0515 -0.3110 -0.0587
10782TIP3    H153837   6.874   2.133  13.860  1.2457  1.1538  2.2296
10782TIP3    H253838   6.749   2.127  13.946  0.4087  0.9277  1.0099
10783TIP3   OH253839   3.949   5.624   5.394 -0.6116  0.0870  0.1899
10783TIP3    H153840   3.901   5.554   5.438 -0.2001 -0.3655 -0.0649
10783TIP3    H253841   4.001   5.665   5.464 -2.1046  1.2319  0.6593
10784TIP3   OH253842   1.498   3.357  15.826  0.0248  0.0601  0.3798
10784TIP3    H153843   1.522   3.445  15.796  0.3409 -0.1321  0.0562
10784TIP3    H253844   1.406   3.365  15.852  0.2420  0.6427  0.9949
10785TIP3   OH253845   0.625   4.844  11.316  0.4343 -0.0588  0.7179
10785TIP3    H153846   0.536   4.809  11.315 -0.2194  1.4700  1.6694
10785TIP3    H253847   0.661   4.822  11.230 -0.1700 -2.3381  1.0060
10786TIP3   OH253848   3.441   0.302  15.741 -0.6704 -0.1004 -0.1512
10786TIP3    H153849   3.492   0.376  15.708 -1.4728  0.5183 -0.0319
10786TIP3    H253850   3.506   0.233  15.757  0.1991  0.8181  0.4166
10787TIP3   OH253851   0.269   5.249   4.719  0.1076 -0.5311  0.2282
10787TIP3    H153852   0.241   5.334   4.754  2.0871 -0.0376  0.7565
10787TIP3    H253853   0.314   5.206   4.792 -0.3478 -1.7944 -0.2057
10788TIP3   OH253854   3.281   5.763   1.071 -0.4683 -0.0404 -0.6240
10788TIP3    H153855   3.270   5.697   1.002  0.0473  0.7780 -1.5143
10788TIP3    H253856   3.324   5.716   1.143  0.6679 -0.4963 -1.5706
10789TIP3   OH253857   3.721   1.622   0.839  0.1863 -0.1207  0.2457
10789TIP3    H153858   3.759   1.665   0.915  2.4682 -0.6442 -0.5310
10789TIP3    H253859   3.677   1.693   0.791  0.0417  0.4775  1.2343
10790TIP3   OH253860   2.942   5.261   4.426 -0.4744  0.2615  0.2455
10790TIP3    H153861   2.858   5.282   4.385 -1.5805 -0.5353  1.9910
10790TIP3    H253862   2.936   5.299   4.514  0.7696 -0.2974  0.5982
10791TIP3   OH253863   4.487   4.807  12.635 -0.6665  0.0152  0.6226
10791TIP3    H153864   4.521   4.855  12.560  2.3389 -2.6970  0.0104
10791TIP3    H253865   4.401   4.846  12.652 -0.1465  2.8071 -2.1969
10792TIP3   OH253866   0.046   2.965  12.111 -0.0385  0.3500  0.7721
10792TIP3    H153867  -0.009   2.945  12.036  0.1600  0.4619  0.5947
10792TIP3    H253868   0.009   2.914  12.183  0.3341 -0.4967  0.3743
10793TIP3   OH253869   6.422   0.061   5.257 -0.6047 -0.1807  0.5549
10793TIP3    H153870   6.480   0.119   5.308 -0.9498 -1.1285  2.0982
10793TIP3    H253871   6.473   0.038   5.180  0.8466 -0.4545  1.5469
10794TIP3   OH253872   1.301   0.211   4.642  0.5155  0.1797 -0.0106
10794TIP3    H153873   1.210   0.241   4.634  0.2128 -0.6803  0.1193
10794TIP3    H253874   1.330   0.198   4.552  0.1528 -0.5645 -0.0278
10795TIP3   OH253875   3.185   0.495   1.428 -0.4447 -0.6530 -0.1095
10795TIP3    H153876   3.252   0.561   1.412 -0.1768 -1.2366 -1.5390
10795TIP3    H253877   3.222   0.439   1.496  0.0054 -0.2737 -0.0407
10796TIP3   OH253878   4.615   3.539   5.990  0.1179 -0.3497 -0.3829
10796TIP3    H153879   4.532   3.495   5.970 -0.0100 -0.3814  0.1846
10796TIP3    H253880   4.624   3.605   5.921 -1.5913  1.2685  0.8241
10797TIP3   OH253881   6.002   4.915  16.536  0.3715 -0.5193 -0.2708
10797TIP3    H153882   6.051   4.917  16.454  0.7718  0.7521 -0.0222
10797TIP3    H253883   5.910   4.917  16.510  0.5017  0.2470 -0.6920
10798TIP3   OH253884   4.023   6.651  16.997  0.2696 -0.1331  0.2724
10798TIP3    H153885   4.006   6.592  16.924 -2.8141  0.9572 -0.0362
10798TIP3    H253886   4.103   6.697  16.973 -0.0166 -0.6494 -1.8429
10799TIP3   OH253887   5.897   4.161  12.419 -0.4300 -0.0005 -0.3078
10799TIP3    H153888   5.990   4.142  12.409 -0.5691 -1.4094  0.7567
10799TIP3    H253889   5.894   4.253  12.446  0.7129 -0.2195  0.6187
10800TIP3   OH253890   2.870   6.335   2.200  0.0422 -0.0660 -0.6486
10800TIP3    H153891   2.955   6.308   2.234  0.0793 -0.1050 -0.7705
10800TIP3    H253892   2.861   6.288   2.117 -0.7805 -1.2568  0.0838
10801TIP3   OH253893   1.940   4.938  12.174  0.0776 -0.6198  0.3193
10801TIP3    H153894   1.970   5.021  12.138  0.9036 -0.4367  1.3649
10801TIP3    H253895   1.970   4.939  12.265 -0.2558 -1.8833  0.4694
10802TIP3   OH253896   6.411   1.487  12.276 -0.3152  0.0829 -0.2087
10802TIP3    H153897   6.414   1.579  12.251 -0.8225  0.8345  2.1831
10802TIP3    H253898   6.442   1.487  12.367 -0.1182 -2.1455 -0.2291
10803TIP3   OH253899   4.707   2.018   3.456 -0.2103 -0.2600 -0.3993
10803TIP3    H153900   4.779   2.055   3.405 -1.2060  2.5673  0.0560
10803TIP3    H253901   4.733   2.027   3.547 -0.9871  0.5020 -0.2382
10804TIP3   OH253902   3.733   4.224  10.450 -0.3109 -0.0441  0.0672
10804TIP3    H153903   3.660   4.234  10.511  1.3743 -1.3015  2.4629
10804TIP3    H253904   3.807   4.266  10.494  0.8825 -0.6578 -1.2794
10805TIP3   OH253905   6.767   5.956   4.071 -0.2017 -0.0555  0.8013
10805TIP3    H153906   6.840   5.959   4.133  0.5212 -0.4388 -0.0088
10805TIP3    H253907   6.772   5.868   4.033 -0.5870  0.2051  0.1369
10806TIP3   OH253908   3.919   5.836   2.684  0.3698  0.0466 -0.0196
10806TIP3    H153909   4.003   5.830   2.730 -0.6890 -0.2767  1.9815
10806TIP3    H253910   3.938   5.885   2.605  3.3200 -3.4531 -1.7894
10807TIP3   OH253911   2.537   6.368  15.152 -0.1670  0.0913  0.3389
10807TIP3    H153912   2.457   6.322  15.130  0.6228 -0.9483 -0.4847
10807TIP3    H253913   2.602   6.299  15.165  0.0203  0.7210  3.7914
10808TIP3   OH253914   6.061   6.282  15.497 -0.6629  0.0692 -0.0610
10808TIP3    H153915   6.050   6.304  15.589 -0.8812 -0.2313 -0.0132
10808TIP3    H253916   6.124   6.346  15.464  0.3057 -0.5245  0.5824
10809TIP3   OH253917   1.460   2.134   1.157  0.3133 -0.0333  0.2355
10809TIP3    H153918   1.496   2.177   1.234  1.8380 -0.1826 -0.3627
10809TIP3    H253919   1.464   2.040   1.178  1.6466 -0.1298 -0.3838
10810TIP3   OH253920   2.300   3.098  12.277 -0.1662  0.8992 -0.0593
10810TIP3    H153921   2.329   3.028  12.336  0.0978  1.5395  0.5823
10810TIP3    H253922   2.334   3.072  12.191  0.0848  0.3333  0.2041
10811TIP3   OH253923   3.608   5.508   1.732  0.5795  0.0157 -0.0928
10811TIP3    H153924   3.687   5.536   1.778 -0.4369  1.1909  0.9964
10811TIP3    H253925   3.615   5.548   1.645  1.8752 -1.1429 -0.5726
10812TIP3   OH253926   5.124   4.939   0.553 -0.0599 -0.1211  0.2975
10812TIP3    H153927   5.157   4.859   0.594  1.1749  0.8404  1.2726
10812TIP3    H253928   5.188   5.006   0.578 -1.6785  1.4144  0.5134
10813TIP3   OH253929   4.613   0.462   4.403 -0.0729  0.5198  0.0501
10813TIP3    H153930   4.573   0.426   4.324  1.2871  0.6923 -0.7580
10813TIP3    H253931   4.577   0.410   4.475 -1.8875  0.8327 -0.5913
10814TIP3   OH253932   1.638   5.505   3.902  0.5585 -0.3828  0.6194
10814TIP3    H153933   1.592   5.424   3.879  0.6440 -0.0646 -0.8141
10814TIP3    H253934   1.645   5.553   3.819  1.5226  0.5812  1.2207
10815TIP3   OH253935   1.085   4.410  14.490 -0.0286  0.2641  0.2620
10815TIP3    H153936   1.011   4.379  14.542  1.6529 -1.3466  1.8721
10815TIP3    H253937   1.157   4.416  14.553  1.8121 -0.6286 -1.6370
10816TIP3   OH253938   1.676   0.247  13.148 -0.8177 -0.0477 -0.2308
10816TIP3    H153939   1.660   0.212  13.061 -2.5376 -0.2509  0.1361
10816TIP3    H253940   1.592   0.283  13.176  0.1132  1.5496  0.6805
10817TIP3   OH253941   0.086   2.026  14.127  0.4443  0.6074 -0.7584
10817TIP3    H153942   0.160   2.087  14.133  0.8666 -0.0187  0.9504
10817TIP3    H253943   0.019   2.064  14.184  1.2241 -1.1455  1.4600
10818TIP3   OH253944   1.896   3.985   5.120 -0.1348  0.0261 -0.1087
10818TIP3    H153945   1.944   4.042   5.059 -1.1627  0.8043 -0.2247
10818TIP3    H253946   1.817   3.960   5.071 -0.5787  0.0079  0.6144
10819TIP3   OH253947   3.302   1.588   1.959  0.3168 -0.4635  0.1700
10819TIP3    H153948   3.393   1.615   1.969  0.3358 -0.6934  0.6448
10819TIP3    H253949   3.264   1.600   2.046 -0.3978  0.6902 -0.2642
10820TIP3   OH253950   4.713   4.807   2.146 -0.6215 -0.1945  0.1136
10820TIP3    H153951   4.698   4.901   2.144 -1.4398 -0.3307 -1.7232
10820TIP3    H253952   4.625   4.769   2.154 -0.3578 -0.8243  0.0587
10821TIP3   OH253953   6.446   2.771   4.925  0.5075 -0.2780 -0.0915
10821TIP3    H153954   6.523   2.745   4.874  1.6367 -0.6352  1.7171
10821TIP3    H253955   6.401   2.688   4.944  0.9243 -0.3216  0.7479
10822TIP3   OH253956   5.641   0.487  10.942 -0.2437 -0.1608 -0.1989
10822TIP3    H153957   5.556   0.509  10.904 -0.3610  0.8893  0.6157
10822TIP3    H253958   5.704   0.533  10.887 -0.0489 -2.0594 -1.6590
10823TIP3   OH253959   3.139   4.980  13.348  0.5419  0.3302  0.5905
10823TIP3    H153960   3.086   5.023  13.281 -0.5242 -2.5722 -0.5953
10823TIP3    H253961   3.223   4.965  13.305  0.3364 -0.2604  0.3861
10824TIP3   OH253962   0.227   2.577  11.694  0.0227  0.3677 -0.3671
10824TIP3    H153963   0.134   2.592  11.677  0.0911  2.3796  0.6154
10824TIP3    H253964   0.257   2.659  11.735  2.0739 -0.4705 -0.0514
10825TIP3   OH253965   0.539   4.882  12.199 -0.1718  0.0863  0.6397
10825TIP3    H153966   0.606   4.856  12.136  0.4997  3.0257 -0.0129
10825TIP3    H253967   0.473   4.813  12.194  0.5506 -0.5123 -2.2549
10826TIP3   OH253968   6.780   3.012   2.533 -0.1723 -0.0043 -0.3641
10826TIP3    H153969   6.815   2.942   2.478  0.0487  1.1540 -1.7659
10826TIP3    H253970   6.685   2.997   2.533 -0.3050  0.5999 -2.0412
10827TIP3   OH253971   2.913   0.358   2.170 -0.2386  0.2205 -0.3643
10827TIP3    H153972   2.835   0.307   2.147 -0.2610  0.7173 -1.5031
10827TIP3    H253973   2.986   0.296   2.164 -0.3790  0.0904 -0.7605
10828TIP3   OH253974   1.873   2.753   5.304 -0.0633  0.1123 -0.4727
10828TIP3    H153975   1.937   2.788   5.366  2.4902  0.8776 -3.3322
10828TIP3    H253976   1.798   2.812   5.311 -0.3220 -0.3989  2.4688
10829TIP3   OH253977   2.188   1.662   1.376  0.0221  0.0795  0.1943
10829TIP3    H153978   2.267   1.637   1.424 -0.2370 -1.2589 -0.0227
10829TIP3    H253979   2.207   1.749   1.342  0.5807  0.6683  1.9089
10830TIP3   OH253980   6.827   4.598  13.794  0.0614 -0.2423 -0.4554
10830TIP3    H153981   6.756   4.534  13.794  1.0832 -1.4115 -0.6694
10830TIP3    H253982   6.862   4.594  13.883  0.3791 -0.2728 -0.5809
10831TIP3   OH253983   2.835   0.005  12.614 -0.0995  0.8445 -0.4921
10831TIP3    H153984   2.748   0.008  12.575 -0.3516 -0.5509 -0.1052
10831TIP3    H253985   2.894   0.028  12.542 -0.7044  0.5696 -1.0928
10832TIP3   OH253986   4.114   5.642  14.549  0.1508 -0.3342  0.4252
10832TIP3    H153987   4.130   5.711  14.484 -0.7002 -1.5853 -1.2027
10832TIP3    H253988   4.200   5.605  14.567  0.3306 -0.4477 -0.5879
10833TIP3   OH253989   2.706   5.743  12.500 -0.1482 -0.1426  0.1734
10833TIP3    H153990   2.745   5.667  12.457 -0.2724  0.5660 -1.2458
10833TIP3    H253991   2.754   5.818  12.466 -0.1034  0.4496  1.4593
10834TIP3   OH253992   5.959   2.734  10.536  0.2658  0.2274 -0.0479
10834TIP3    H153993   5.945   2.641  10.554  0.3423 -0.0907 -1.5502
10834TIP3    H253994   6.052   2.749  10.555  0.3455 -0.0983 -0.1855
10835TIP3   OH253995   6.098   6.795   2.407 -0.3042  0.2808 -0.1906
10835TIP3    H153996   6.039   6.867   2.428 -0.3113  0.3728 -0.5192
10835TIP3    H253997   6.165   6.834   2.351 -0.7341 -0.1243 -1.0062
10836TIP3   OH253998   5.806   5.740  16.214  0.6357  0.0229  0.2770
10836TIP3    H153999   5.887   5.707  16.252  1.0761  0.9621  0.1924
10836TIP3    H254000   5.746   5.665  16.215  0.6357 -0.0351  2.7647
10837TIP3   OH254001   6.392   2.083   1.982  0.7063 -0.4430  0.4305
10837TIP3    H154002   6.375   2.088   1.888  2.7145 -1.4431 -0.0462
10837TIP3    H254003   6.353   2.000   2.009  0.1142 -0.1476  0.5161
10838TIP3   OH254004   3.336   6.343  15.230 -0.1611  0.4305  0.1581
10838TIP3    H154005   3.376   6.262  15.264 -0.2379 -0.1916 -1.1683
10838TIP3    H254006   3.244   6.321  15.220 -0.1470  0.6190 -0.3913
10839TIP3   OH254007   5.825   2.829   5.921  0.4146 -0.5795  0.5269
10839TIP3    H154008   5.836   2.737   5.897 -1.2505 -0.7348  0.2208
10839TIP3    H254009   5.751   2.829   5.981  0.3554  0.5740  0.4733
10840TIP3   OH254010   2.291   5.865  12.930 -0.2049  0.4553  0.7476
10840TIP3    H154011   2.296   5.803  13.003  0.0982 -0.4443 -0.0181
10840TIP3    H254012   2.212   5.840  12.882 -1.1113  1.8402  1.4490
10841TIP3   OH254013   4.048   0.168   4.638  0.0446  0.1009  0.0219
10841TIP3    H154014   4.043   0.235   4.570 -0.1453 -0.4269 -0.4821
10841TIP3    H254015   4.055   0.085   4.591  2.1359 -0.1291  0.6238
10842TIP3   OH254016   1.931   6.733   3.910 -0.3087 -0.1224 -0.0683
10842TIP3    H154017   1.963   6.655   3.954 -0.1066  0.0135  0.0249
10842TIP3    H254018   1.908   6.793   3.981 -2.0962 -0.7347 -0.0775
10843TIP3   OH254019   1.521   1.527   4.951 -0.2649 -0.2033 -0.0818
10843TIP3    H154020   1.524   1.578   5.032  0.7625  0.6190 -0.5929
10843TIP3    H254021   1.476   1.585   4.889 -0.9244 -0.7721 -0.1439
10844TIP3   OH254022   0.276   2.062   5.199 -0.1442  0.1008  0.8179
10844TIP3    H154023   0.353   2.038   5.251 -0.0782 -0.2946  0.5458
10844TIP3    H254024   0.276   1.999   5.127  0.2870  1.2109 -0.1809
10845TIP3   OH254025   1.927   1.902  16.352 -0.0295 -0.7386 -0.2731
10845TIP3    H154026   2.017   1.912  16.385  0.3001  2.1805 -1.7134
10845TIP3    H254027   1.873   1.952  16.413 -0.2955 -0.4284 -0.7558
10846TIP3   OH254028   5.036   5.096  11.081 -0.0679  0.3930 -0.1799
10846TIP3    H154029   4.977   5.171  11.074 -0.1836  0.2511 -0.8167
10846TIP3    H254030   5.121   5.134  11.104 -0.5046  0.5506  1.2644
10847TIP3   OH254031   1.286   5.372   6.358  0.2050  0.3314  0.4176
10847TIP3    H154032   1.255   5.297   6.307 -0.3772 -0.4191  1.7957
10847TIP3    H254033   1.335   5.332   6.431 -0.0615  1.2923  1.1432
10848TIP3   OH254034   5.637   2.794  13.876  0.0285 -0.3496  0.0964
10848TIP3    H154035   5.568   2.731  13.855 -0.9484  1.0686 -1.2194
10848TIP3    H254036   5.594   2.879  13.868  1.8309  0.5666 -0.3804
10849TIP3   OH254037   4.792   1.590   0.011  0.2330  0.0762 -0.2164
10849TIP3    H154038   4.735   1.558   0.080  0.6010  1.1762  0.6245
10849TIP3    H254039   4.828   1.672   0.045  2.2440 -0.5309 -0.7480
10850TIP3   OH254040   4.197   2.582   1.624  0.5663  0.4887  0.0129
10850TIP3    H154041   4.139   2.607   1.696 -2.3428  0.2448 -2.0731
10850TIP3    H254042   4.143   2.529   1.566  2.2175  1.9707 -3.1725
10851TIP3   OH254043   2.425   1.044   4.127  0.2144 -0.2077 -0.6420
10851TIP3    H154044   2.392   0.968   4.080 -0.5535 -0.3091  0.0448
10851TIP3    H254045   2.354   1.108   4.124  0.9058  0.5592 -1.3485
10852TIP3   OH254046   0.694   6.199  15.825 -0.3707 -0.3852  0.1296
10852TIP3    H154047   0.619   6.170  15.773 -1.8385  0.7320  1.5177
10852TIP3    H254048   0.691   6.295  15.820 -0.2749 -0.2571  1.8020
10853TIP3   OH254049   4.529   6.148  11.562  0.0015  0.0637 -0.0483
10853TIP3    H154050   4.516   6.210  11.634  1.4488 -0.2562  0.5366
10853TIP3    H254051   4.539   6.203  11.485  1.8418  0.6406  0.5512
10854TIP3   OH254052   1.609   0.499   1.822  0.1085  0.4753 -0.1086
10854TIP3    H154053   1.637   0.467   1.908 -2.5216  2.5193  1.6667
10854TIP3    H254054   1.670   0.570   1.802 -1.4351  2.5782  2.0477
10855TIP3   OH254055   4.052   6.455   3.652 -0.0368  0.6482 -0.6332
10855TIP3    H154056   3.959   6.434   3.649 -0.0321  0.0397  1.5861
10855TIP3    H254057   4.096   6.382   3.609 -0.4548 -0.3568  0.6165
10856TIP3   OH254058   1.508   3.536  10.981  0.0218  0.6452 -0.3195
10856TIP3    H154059   1.525   3.558  10.890 -0.0319  1.4160 -0.1501
10856TIP3    H254060   1.505   3.441  10.983  0.6229  0.6104 -1.0112
10857TIP3   OH254061   6.682   5.630   1.175  0.2058  0.4567 -0.4051
10857TIP3    H154062   6.695   5.546   1.220  0.5251 -0.5028 -2.1922
10857TIP3    H254063   6.587   5.637   1.163 -0.1370  1.8445  2.3504
10858TIP3   OH254064   0.570   6.299  15.072  0.6294  0.3006  0.4729
10858TIP3    H154065   0.630   6.252  15.014  0.3469  0.2193  0.2438
10858TIP3    H254066   0.580   6.256  15.157 -0.3206 -0.8082  0.0475
10859TIP3   OH254067   2.995   2.860   0.963 -0.2853 -0.1342 -0.1083
10859TIP3    H154068   2.986   2.837   0.870 -1.4985  1.5087 -0.4319
10859TIP3    H254069   3.071   2.917   0.966 -1.2002  1.1298 -0.3779
10860TIP3   OH254070   5.588   4.639  12.178 -0.1636  0.3490 -0.5605
10860TIP3    H154071   5.564   4.707  12.242 -0.8901  1.5309 -2.0191
10860TIP3    H254072   5.672   4.605  12.209 -1.6714 -0.9909  2.4556
10861TIP3   OH254073   3.933   6.412  10.482  0.1605 -0.0814  0.8286
10861TIP3    H154074   3.969   6.490  10.524  0.3288 -1.1717  2.8481
10861TIP3    H254075   3.838   6.423  10.488  0.1848 -0.2609  1.5856
10862TIP3   OH254076   3.335   5.346   5.520 -0.4436 -0.5506 -0.4805
10862TIP3    H154077   3.257   5.336   5.466  0.0539 -2.0522 -0.9698
10862TIP3    H254078   3.304   5.339   5.610 -1.3121  2.1498 -0.4674
10863TIP3   OH254079   2.188   3.460   0.353  0.0488  0.3779 -0.2447
10863TIP3    H154080   2.116   3.397   0.351  2.2309 -2.3043  0.1485
10863TIP3    H254081   2.173   3.516   0.277 -2.5333  0.1068 -0.0213
10864TIP3   OH254082   4.814   6.608  16.936 -0.5284  0.6258  0.0191
10864TIP3    H154083   4.731   6.647  16.909 -0.0652  1.6087 -0.0166
10864TIP3    H254084   4.790   6.546  17.006 -1.2957  0.8137 -0.0750
10865TIP3   OH254085   5.009   0.228  12.815 -0.1994 -0.5259  0.4177
10865TIP3    H154086   5.030   0.136  12.796  1.2411  0.0408 -0.9714
10865TIP3    H254087   4.914   0.233  12.806 -0.4401 -2.1189  1.6993
10866TIP3   OH254088   3.136   3.552   4.111 -0.6417  0.0817  0.1458
10866TIP3    H154089   3.201   3.514   4.051 -0.3557  2.0614 -0.9029
10866TIP3    H254090   3.184   3.564   4.193 -0.2273 -0.2063 -0.0483
10867TIP3   OH254091   2.200   2.783  15.865  0.1793  0.0588 -0.1474
10867TIP3    H154092   2.263   2.736  15.920  0.0448  0.3279  0.2368
10867TIP3    H254093   2.237   2.871  15.856 -0.6205  0.5187  0.8907
10868TIP3   OH254094   1.519   3.086   0.132  0.0335  0.2477  0.2280
10868TIP3    H154095   1.533   3.181   0.127  2.2610 -0.0546 -0.3236
10868TIP3    H254096   1.606   3.050   0.150 -0.8959 -1.6656  1.1749
10869TIP3   OH254097   0.271   0.449  16.829 -0.1670  0.7305  0.2628
10869TIP3    H154098   0.349   0.477  16.782  0.1888 -0.3939  0.1568
10869TIP3    H254099   0.198   0.472  16.771  0.2930 -1.1155 -1.1127
10870TIP3   OH254100   2.749   4.095  13.597 -0.6711  0.4674  0.0348
10870TIP3    H154101   2.811   4.025  13.577 -0.0859  0.1454  2.6362
10870TIP3    H254102   2.798   4.176  13.585 -0.5879  0.3351 -0.5411
10871TIP3   OH254103   1.215   1.842  16.593 -0.0161  0.7777  0.4347
10871TIP3    H154104   1.267   1.798  16.525 -0.6712  0.0046  0.4106
10871TIP3    H254105   1.155   1.774  16.624 -1.1760  1.7007  0.2894
10872TIP3   OH254106   3.959   1.004   4.428  0.0129 -0.6146  0.6880
10872TIP3    H154107   3.910   0.926   4.403 -0.3036 -0.3355  0.4216
10872TIP3    H254108   3.936   1.019   4.520  1.4063 -1.8108  1.2607
10873TIP3   OH254109   0.649   6.403   3.691  0.0918 -0.4705 -0.0398
10873TIP3    H154110   0.694   6.449   3.619 -3.4426 -0.3451 -2.3912
10873TIP3    H254111   0.621   6.473   3.750  1.8009 -0.4597  0.8342
10874TIP3   OH254112   0.064   0.016   3.717 -0.6064 -0.2699 -0.1415
10874TIP3    H154113   0.015  -0.003   3.637 -0.1263  1.6515 -0.9459
10874TIP3    H254114   0.150   0.044   3.685 -0.9162  2.0787  0.9372
10875TIP3   OH254115   4.849   2.864   5.214 -0.0880 -0.1606  0.1478
10875TIP3    H154116   4.807   2.780   5.231 -1.3188  0.4011 -0.0771
10875TIP3    H254117   4.780   2.920   5.179  0.2336  1.5217  1.9972
10876TIP3   OH254118   2.752   5.907   4.444  0.1889  0.0427 -0.0019
10876TIP3    H154119   2.770   6.001   4.440 -1.4146  0.4101  0.7156
10876TIP3    H254120   2.707   5.888   4.361 -0.4626  0.1436  0.3241
10877TIP3   OH254121   6.457   5.219  11.764  0.2424 -0.3875 -0.1383
10877TIP3    H154122   6.488   5.189  11.850 -1.3118 -1.0006  0.2449
10877TIP3    H254123   6.363   5.201  11.765 -0.0112  0.6714 -1.5345
10878TIP3   OH254124   4.142   5.150   0.108  0.5272 -0.1595 -0.1632
10878TIP3    H154125   4.122   5.169   0.200  2.6720  1.6257  0.0229
10878TIP3    H254126   4.062   5.174   0.061  0.1586  1.1046  1.0336
10879TIP3   OH254127   0.649   4.647  14.801 -0.9552  0.7312  0.6308
10879TIP3    H154128   0.686   4.692  14.877 -0.3325  0.3985  0.5389
10879TIP3    H254129   0.612   4.716  14.747 -1.0135  1.0145  1.0281
10880TIP3   OH254130   4.050   5.004  16.927  0.5773  0.0318 -0.8355
10880TIP3    H154131   4.014   5.073  16.871 -0.5269 -0.9820 -1.4168
10880TIP3    H254132   3.978   4.943  16.939  1.7727 -1.4848 -1.0604
10881TIP3   OH254133   1.539   0.305   3.867  0.3945  0.2716  0.8371
10881TIP3    H154134   1.577   0.308   3.779  0.4194  0.5021  0.8540
10881TIP3    H254135   1.609   0.337   3.924  0.1375  0.8049  0.8562
10882TIP3   OH254136   0.738   5.584   3.380  0.5281 -0.3452  0.0050
10882TIP3    H154137   0.653   5.627   3.388 -0.0969 -1.6425  0.5135
10882TIP3    H254138   0.776   5.622   3.301  0.3526  1.7094  0.8401
10883TIP3   OH254139   0.780   6.054   1.716  0.3972 -1.0294 -0.5160
10883TIP3    H154140   0.862   6.067   1.765  0.3130 -0.2683 -0.5526
10883TIP3    H254141   0.747   5.970   1.747  0.4965 -0.7043  0.5355
10884TIP3   OH254142   0.763   1.710  13.986 -0.1136 -0.0739 -0.0286
10884TIP3    H154143   0.707   1.688  13.912 -1.1237 -0.8321  0.9324
10884TIP3    H254144   0.704   1.717  14.061  1.0833 -1.2346  1.0897
10885TIP3   OH254145   4.146   2.901  15.670  0.4622  0.2332 -0.1090
10885TIP3    H154146   4.218   2.962  15.686 -0.6174  1.7459 -0.7962
10885TIP3    H254147   4.089   2.946  15.609 -0.3183 -1.5571 -0.7770
10886TIP3   OH254148   6.184   2.433   1.372  0.0303  0.8007  0.4107
10886TIP3    H154149   6.151   2.517   1.404  1.8447  2.5219 -1.9491
10886TIP3    H254150   6.183   2.441   1.277  1.4568 -1.3983  0.1335
10887TIP3   OH254151   0.263   5.474   1.241 -1.1424 -0.3293  0.3765
10887TIP3    H154152   0.229   5.549   1.291 -1.0850 -0.9491  1.3595
10887TIP3    H254153   0.339   5.445   1.290  0.3374  0.4672 -1.3185
10888TIP3   OH254154   4.766   2.816   1.130  0.3133 -0.0948 -0.4738
10888TIP3    H154155   4.761   2.721   1.138  0.8953 -0.1432 -0.6124
10888TIP3    H254156   4.793   2.831   1.039  2.8354  0.0827  0.2326
10889TIP3   OH254157   1.391   4.877   0.615 -0.0091 -0.6475  0.0999
10889TIP3    H154158   1.323   4.843   0.675  0.2602  0.3942  1.0274
10889TIP3    H254159   1.452   4.804   0.605 -0.5163 -1.1252  0.4134
10890TIP3   OH254160   0.888   0.619  12.835  0.2676 -0.5425  0.4730
10890TIP3    H154161   0.864   0.549  12.774 -2.4646  0.5130  0.2040
10890TIP3    H254162   0.903   0.695  12.779 -0.6413  0.0205  0.9693
10891TIP3   OH254163   0.487   2.957  11.612  0.0948  0.0608 -0.5510
10891TIP3    H154164   0.462   2.896  11.543  0.9314 -0.2327 -0.6094
10891TIP3    H254165   0.540   3.023  11.567 -0.2358  0.4526 -0.3693
10892TIP3   OH254166   1.686   5.408   1.621 -0.3817 -0.1031  0.1346
10892TIP3    H154167   1.681   5.313   1.617 -0.0602 -0.3029  2.9275
10892TIP3    H254168   1.754   5.426   1.686  0.6153  2.0866 -1.3792
10893TIP3   OH254169   1.783   5.479  14.477  0.6414  0.2339 -0.1430
10893TIP3    H154170   1.748   5.402  14.522  1.1348 -0.9324 -1.6607
10893TIP3    H254171   1.874   5.455  14.456  0.9716  1.4547 -0.1666
10894TIP3   OH254172   4.286   3.436   1.997 -0.0984  0.7196  0.1788
10894TIP3    H154173   4.357   3.411   1.937  0.3105  0.3133  0.8223
10894TIP3    H254174   4.254   3.352   2.031 -1.0699  0.8815 -0.2986
10895TIP3   OH254175   5.144   5.632  11.515  0.1865  0.5245 -0.2211
10895TIP3    H154176   5.113   5.551  11.474 -3.1357  1.9525 -0.8280
10895TIP3    H254177   5.189   5.678  11.445  1.2982 -0.3484 -0.1107
10896TIP3   OH254178   3.110   5.039  11.650  0.0873 -0.1432  0.8045
10896TIP3    H154179   3.062   5.013  11.728  1.9003 -0.3431  1.9315
10896TIP3    H254180   3.196   4.998  11.660  0.2423 -0.5445 -1.5488
10897TIP3   OH254181   5.213   3.651   0.291  0.2964  0.0874  0.5942
10897TIP3    H154182   5.122   3.683   0.295  0.3389  0.1284  1.6047
10897TIP3    H254183   5.231   3.623   0.380  0.9748 -0.8006  0.1791
10898TIP3   OH254184   5.818   0.903  13.627  0.2380  0.5034 -0.6669
10898TIP3    H154185   5.899   0.881  13.673  0.1131 -1.0692 -1.1484
10898TIP3    H254186   5.796   0.992  13.657  0.9850  0.1205  1.1107
10899TIP3   OH254187   3.397   3.230   0.415  0.0456  0.0148 -0.2787
10899TIP3    H154188   3.338   3.266   0.481 -0.3840 -0.7436 -0.2357
10899TIP3    H254189   3.476   3.283   0.421  1.6286 -2.4187  3.5496
10900TIP3   OH254190   2.957   0.362  10.787  0.2025  0.7669  0.2718
10900TIP3    H154191   2.866   0.338  10.771 -0.1086  1.1961  1.3390
10900TIP3    H254192   2.975   0.430  10.721 -0.7143  1.7258  0.9790
10901TIP3   OH254193   3.176   6.257  11.885 -0.5201 -0.3406  0.4229
10901TIP3    H154194   3.239   6.316  11.928  0.3940 -1.6790  1.0006
10901TIP3    H254195   3.200   6.261  11.792 -1.5644  1.4435  0.1714
10902TIP3   OH254196   2.386   4.589  16.484 -0.2472 -0.2070 -0.3706
10902TIP3    H154197   2.445   4.577  16.410 -0.6908 -0.2366 -0.7219
10902TIP3    H254198   2.299   4.568  16.450 -0.7770  1.8344 -0.4438
10903TIP3   OH254199   4.328   5.241   2.366  0.2404 -0.4755 -0.3982
10903TIP3    H154200   4.326   5.320   2.312  0.4365 -0.3475 -0.2224
10903TIP3    H254201   4.252   5.190   2.338  0.5616 -0.5993 -1.0748
10904TIP3   OH254202   6.433   1.361   1.021 -0.3513 -0.1285 -0.4324
10904TIP3    H154203   6.506   1.300   1.012 -0.8026 -0.6601 -0.5110
10904TIP3    H254204   6.452   1.430   0.957 -0.6432 -0.9945 -1.4873
10905TIP3   OH254205   4.035   0.830  14.762  0.4847 -0.2252  0.5239
10905TIP3    H154206   4.074   0.917  14.767 -1.1685  0.4995  2.2531
10905TIP3    H254207   4.100   0.772  14.802  3.2346 -0.5841 -3.8280
10906TIP3   OH254208   1.257   6.124  14.795 -0.2963 -0.1469 -0.1349
10906TIP3    H154209   1.290   6.037  14.817 -3.1924 -0.9374  1.7119
10906TIP3    H254210   1.195   6.109  14.724  0.0468  0.6049 -0.6005
10907TIP3   OH254211   2.989   3.085  17.171  0.2144 -0.0867  0.3863
10907TIP3    H154212   2.914   3.144  17.168  0.0962 -0.2699 -0.9562
10907TIP3    H254213   3.045   3.121  17.239  0.4390  1.9573 -0.7845
10908TIP3   OH254214   0.676   1.883  16.729  0.2725 -0.0423  0.1885
10908TIP3    H154215   0.627   1.950  16.681 -0.6423  0.2342  1.4610
10908TIP3    H254216   0.768   1.908  16.718  0.2310 -0.6941 -2.4377
10909TIP3   OH254217   3.099   5.114  12.772  0.5300 -0.0954  0.3110
10909TIP3    H154218   3.016   5.071  12.750  0.5128 -0.0625  0.3113
10909TIP3    H254219   3.076   5.206  12.783  0.6926  0.0428 -0.4133
10910TIP3   OH254220   3.119   4.076  13.359 -0.3066  0.1310  0.0408
10910TIP3    H154221   3.142   4.100  13.269  1.9766  0.7246  0.7096
10910TIP3    H254222   3.033   4.036  13.352 -0.1624  0.0943 -2.4147
10911TIP3   OH254223   5.577   0.660  15.726 -0.2226  0.3930  0.0717
10911TIP3    H154224   5.601   0.568  15.720  0.8033  0.6853 -0.6522
10911TIP3    H254225   5.642   0.705  15.671 -0.6780  1.5451  0.4523
10912TIP3   OH254226   1.202   5.450   5.479  0.0259  0.4800  0.8325
10912TIP3    H154227   1.136   5.449   5.409 -2.0380  1.1880  2.6238
10912TIP3    H254228   1.198   5.539   5.513  2.6842  0.8350  0.4136
10913TIP3   OH254229   3.673   4.168  14.224  0.0384 -0.0009  1.1221
10913TIP3    H154230   3.701   4.246  14.272  0.1094  0.7733 -0.1251
10913TIP3    H254231   3.579   4.180  14.212  0.0065 -0.2260  1.1383
10914TIP3   OH254232   5.697   6.832  16.195  0.5814  0.3933 -0.4204
10914TIP3    H154233   5.688   6.927  16.191  1.7707  0.5374 -0.1472
10914TIP3    H254234   5.639   6.799  16.126  0.1606  1.3097 -0.5208
10915TIP3   OH254235   3.872   0.761  14.267  0.2422 -0.6183 -0.1170
10915TIP3    H154236   3.945   0.780  14.208 -0.7302  1.1118 -0.8614
10915TIP3    H254237   3.895   0.805  14.349  0.3868 -0.7273 -0.0998
10916TIP3   OH254238   5.572   3.733  13.270 -0.0485 -0.1228  0.3271
10916TIP3    H154239   5.553   3.650  13.313  0.2120 -0.9894 -1.1409
10916TIP3    H254240   5.665   3.727  13.246  0.4328  1.3195  1.6818
10917TIP3   OH254241   4.837   1.711   1.257 -0.3203  0.1316  0.4400
10917TIP3    H154242   4.853   1.627   1.300 -1.5725 -0.2605  0.1874
10917TIP3    H254243   4.819   1.772   1.328  1.5114  0.4285  0.6853
10918TIP3   OH254244   6.702   6.364  11.558 -0.4202  0.1360 -0.3075
10918TIP3    H154245   6.650   6.306  11.614 -0.2577 -1.7698 -1.9920
10918TIP3    H254246   6.677   6.452  11.585 -2.1655 -0.7085  1.0695
10919TIP3   OH254247   4.692   4.914  11.418  0.8129  0.0647  0.0274
10919TIP3    H154248   4.672   4.849  11.352  0.4498  0.7029 -0.5093
10919TIP3    H254249   4.758   4.874  11.474  1.9112 -0.0852 -1.3495
10920TIP3   OH254250   4.075   6.622   5.317 -0.3858  0.2575 -0.4758
10920TIP3    H154251   4.151   6.634   5.374  0.8929 -1.5542 -1.6681
10920TIP3    H254252   4.102   6.658   5.233 -1.0314  0.0478 -0.7810
10921TIP3   OH254253   4.272   1.347   3.164  0.7993  0.0665  0.1231
10921TIP3    H154254   4.200   1.315   3.217 -0.0276  0.2751 -0.8394
10921TIP3    H254255   4.349   1.342   3.221 -0.0013  0.0051  1.2191
10922TIP3   OH254256   4.419   6.504   3.400  0.1047  0.4762 -0.0475
10922TIP3    H154257   4.423   6.464   3.487  2.2968  2.1116  0.7000
10922TIP3    H254258   4.415   6.598   3.418  0.7932  0.8516 -1.6958
10923TIP3   OH254259   4.160   3.775   0.839  0.2444  0.2251  0.0400
10923TIP3    H154260   4.100   3.767   0.913 -1.6464  1.3298 -1.2537
10923TIP3    H254261   4.186   3.685   0.819 -1.1360 -0.3165  0.5662
10924TIP3   OH254262   4.523   1.744   6.197  0.1619  0.4027 -0.2070
10924TIP3    H154263   4.613   1.728   6.169  0.1026 -0.4329  0.0554
10924TIP3    H254264   4.524   1.832   6.233  1.2496 -0.1996  1.3185
10925TIP3   OH254265   5.427   0.933  13.519  0.7047  0.2215 -0.1983
10925TIP3    H154266   5.441   0.848  13.477  2.6430  0.9554 -1.1638
10925TIP3    H254267   5.465   0.996  13.458  0.8247  1.6249  1.2667
10926TIP3   OH254268   6.152   6.089  16.528  0.7134  0.4019  0.6438
10926TIP3    H154269   6.105   6.144  16.591  1.4185  1.1543  0.5308
10926TIP3    H254270   6.087   6.027  16.497 -0.3485  1.7301  0.1090
10927TIP3   OH254271   4.808   4.061   0.651 -0.3041 -0.1348 -0.0641
10927TIP3    H154272   4.837   3.972   0.629  0.8099  0.3927 -0.8026
10927TIP3    H254273   4.753   4.087   0.577 -1.8596 -0.7268  0.8321
10928TIP3   OH254274   1.219   1.166   2.320 -0.0505 -0.2544 -0.3142
10928TIP3    H154275   1.236   1.215   2.240 -1.2490 -0.7757 -0.9044
10928TIP3    H254276   1.293   1.105   2.326 -1.4180 -2.3278 -2.7100
10929TIP3   OH254277   2.680   3.005   4.414  0.2330 -0.1518  0.3486
10929TIP3    H154278   2.619   3.079   4.411 -1.4863 -1.5506 -0.6841
10929TIP3    H254279   2.765   3.044   4.396 -0.0454  2.0947  3.1763
10930TIP3   OH254280   4.801   4.940  16.511  0.6665 -0.2288 -0.1141
10930TIP3    H154281   4.779   5.007  16.577 -0.4309 -0.8822  0.2024
10930TIP3    H254282   4.726   4.881  16.511  1.1967 -0.9219 -1.0976
10931TIP3   OH254283   1.597   2.425   1.243  0.0741 -0.4338  1.2139
10931TIP3    H154284   1.597   2.390   1.333  0.8091 -1.0332  0.9908
10931TIP3    H254285   1.690   2.435   1.222 -0.0764 -0.7973  0.3332
10932TIP3   OH254286   3.549   1.786   0.723  0.1247 -0.5595  0.7737
10932TIP3    H154287   3.467   1.812   0.681  1.9045  3.5163 -0.6886
10932TIP3    H254288   3.536   1.806   0.815  0.1205  2.4181  0.2222
10933TIP3   OH254289   3.344   3.412  11.796  0.5924  0.0976  0.7792
10933TIP3    H154290   3.436   3.427  11.772  1.0228 -0.8948  1.7153
10933TIP3    H254291   3.308   3.362  11.723  0.7218  0.6966  0.2966
10934TIP3   OH254292   0.165   0.185  10.632 -0.1485 -0.5207  0.8268
10934TIP3    H154293   0.115   0.133  10.695  3.1425 -1.3866  2.9741
10934TIP3    H254294   0.224   0.121  10.590  0.4186  0.6913 -0.3042
10935TIP3   OH254295   4.882   2.172   6.164 -0.0607 -0.3199 -0.5113
10935TIP3    H154296   4.849   2.111   6.230 -3.5186 -0.7347 -2.4291
10935TIP3    H254297   4.941   2.119   6.110  1.3162 -0.4390  0.9997
10936TIP3   OH254298   4.965   1.709  11.399  0.0105  0.1578 -0.4537
10936TIP3    H154299   5.051   1.666  11.401 -0.1986 -0.2368  0.2832
10936TIP3    H254300   4.966   1.760  11.318  0.5089 -0.7547 -1.0447
10937TIP3   OH254301   6.789   4.542   3.799 -0.1036  0.3803 -0.0426
10937TIP3    H154302   6.817   4.614   3.855  0.8921  0.0409 -0.0812
10937TIP3    H254303   6.812   4.570   3.711  0.4440 -0.0388 -0.0419
10938TIP3   OH254304   0.343   6.731  15.441 -0.5408  0.4628  0.2759
10938TIP3    H154305   0.326   6.713  15.533  0.4212  1.1912  0.6097
10938TIP3    H254306   0.262   6.769  15.408 -1.4126 -1.1670  0.4198
10939TIP3   OH254307   6.694   5.987  13.936 -0.1861 -0.5120  0.0009
10939TIP3    H154308   6.763   5.943  13.886 -0.9285 -0.5726 -1.0190
10939TIP3    H254309   6.738   6.020  14.014  0.5347 -2.5263  0.5214
10940TIP3   OH254310   1.768   5.066  15.433  0.4868 -0.0877  0.2264
10940TIP3    H154311   1.680   5.071  15.396  0.9784  1.1237 -0.8359
10940TIP3    H254312   1.821   5.026  15.365  1.0645  0.5912  0.2770
10941TIP3   OH254313   6.283   0.950   6.477  0.1166 -0.1362  0.0003
10941TIP3    H154314   6.313   1.005   6.405 -1.8222  1.8317  0.5832
10941TIP3    H254315   6.357   0.892   6.496  1.4962  0.8638 -2.0156
10942TIP3   OH254316   4.107   5.529  12.290 -0.4096  0.2310 -0.3742
10942TIP3    H154317   4.121   5.452  12.235 -0.4939 -0.2030  0.1963
10942TIP3    H254318   4.116   5.603  12.231 -0.6604 -0.2324 -1.0031
10943TIP3   OH254319   3.273   3.928  13.756  0.0829  0.3339  0.6504
10943TIP3    H154320   3.223   3.861  13.803  0.3106  0.2355  0.7552
10943TIP3    H254321   3.358   3.887  13.739  0.6188  0.9739  1.6852
10944TIP3   OH254322   1.047   3.963   4.497 -0.0610  0.0611 -0.1628
10944TIP3    H154323   1.088   3.884   4.461 -0.5853 -1.0347  1.5422
10944TIP3    H254324   0.993   3.932   4.569  0.7698  2.1266  1.4622
10945TIP3   OH254325   2.875   2.140   1.147  0.3038  0.3263 -0.3489
10945TIP3    H154326   2.919   2.114   1.228 -0.7756 -0.6732 -0.0639
10945TIP3    H254327   2.847   2.058   1.107 -0.5899  0.8947 -0.9246
10946TIP3   OH254328   4.946   1.229   2.595  0.2252 -0.1897 -0.4207
10946TIP3    H154329   4.904   1.181   2.667 -0.1767  2.1613  1.0327
10946TIP3    H254330   5.011   1.285   2.638  0.9357  0.3084 -2.0533
10947TIP3   OH254331   1.773   3.418   0.737 -0.0099  0.3270  0.7235
10947TIP3    H154332   1.850   3.395   0.791 -0.1133 -2.4451 -0.1667
10947TIP3    H254333   1.705   3.358   0.767 -0.2949 -0.7927 -1.8824
10948TIP3   OH254334   4.236   0.079   5.336  0.1904 -0.4944 -0.0193
10948TIP3    H154335   4.330   0.063   5.342  0.6815  1.4575 -1.4547
10948TIP3    H254336   4.215   0.063   5.243 -0.5447  0.6174 -0.0652
10949TIP3   OH254337   3.719   5.708   1.574  0.1257 -0.2521 -0.0980
10949TIP3    H154338   3.711   5.781   1.635  0.0842  0.7506 -1.2460
10949TIP3    H254339   3.768   5.745   1.500 -0.1379 -1.3154 -0.8197
10950TIP3   OH254340   1.263   0.626  12.251 -0.0150  0.0016  0.2642
10950TIP3    H154341   1.218   0.695  12.203 -0.0444 -0.2535 -0.0826
10950TIP3    H254342   1.347   0.615  12.206 -0.4010 -0.8396 -0.2795
10951TIP3   OH254343   6.546   5.517   0.872  0.2300  0.2743 -0.8417
10951TIP3    H154344   6.454   5.500   0.854  0.0821 -0.2697  0.3415
10951TIP3    H254345   6.546   5.562   0.957  1.1045 -0.8246 -0.2272
10952TIP3   OH254346   4.177   5.369  15.906 -0.3119 -0.2621  0.0268
10952TIP3    H154347   4.168   5.274  15.919  0.4793 -0.4639 -0.8159
10952TIP3    H254348   4.211   5.401  15.990 -1.2864 -0.5962  0.5724
10953TIP3   OH254349   6.040   1.541   2.704 -0.4402  0.3587  0.7221
10953TIP3    H154350   5.968   1.526   2.643 -0.1492  2.5901 -0.2748
10953TIP3    H254351   6.118   1.509   2.658 -0.4342  0.5951  0.5632
10954TIP3   OH254352   4.761   3.903   1.666  0.0999  0.4204 -0.0318
10954TIP3    H154353   4.828   3.964   1.635 -1.3459  1.4768 -1.1971
10954TIP3    H254354   4.811   3.835   1.711  1.8011  2.2483  1.0136
10955TIP3   OH254355   2.913   4.061  16.504 -0.9867 -0.3272  0.4310
10955TIP3    H154356   2.949   4.023  16.584 -0.5185  0.6375  0.6873
10955TIP3    H254357   2.832   4.103  16.531 -1.8314 -1.6209  0.0345
10956TIP3   OH254358   4.772   5.378  15.466  0.2373 -0.5928 -0.1939
10956TIP3    H154359   4.729   5.401  15.548 -0.2773  0.1079 -0.6539
10956TIP3    H254360   4.771   5.459  15.414  2.8609 -0.2903  0.0936
10957TIP3   OH254361   2.893   3.528  10.993 -0.0515  0.1171 -0.1070
10957TIP3    H154362   2.972   3.549  10.944  1.1725 -0.9721  1.2880
10957TIP3    H254363   2.821   3.545  10.932  1.2128  1.4889 -1.2941
10958TIP3   OH254364   5.367   5.867  12.484  0.6112 -0.1831 -0.7245
10958TIP3    H154365   5.458   5.879  12.512  0.6317  1.7590 -1.4800
10958TIP3    H254366   5.320   5.842  12.564  1.3319  1.4929  0.2617
10959TIP3   OH254367   5.594   1.259   3.648  0.2551 -0.0496 -0.3799
10959TIP3    H154368   5.580   1.225   3.736 -3.3419  0.3916 -0.6403
10959TIP3    H254369   5.573   1.352   3.654  4.1014  1.0370 -0.9454
10960TIP3   OH254370   3.857   4.014  14.369 -0.3391  0.3113 -0.0791
10960TIP3    H154371   3.789   4.055  14.316  0.5109  1.2906 -0.4386
10960TIP3    H254372   3.832   3.922  14.373 -1.4245  0.5697 -0.6075
10961TIP3   OH254373   4.065   3.699   1.545 -0.3366 -0.0100  1.0286
10961TIP3    H154374   4.121   3.774   1.563  0.4927 -0.5646  0.7919
10961TIP3    H254375   4.095   3.631   1.605  1.0613 -1.1924 -0.8840
10962TIP3   OH254376   0.749   5.784   0.855  0.2052  0.1499 -0.8131
10962TIP3    H154377   0.708   5.837   0.787  1.6210  0.8507 -1.1610
10962TIP3    H254378   0.745   5.839   0.934  2.4455  1.2134 -1.3707
10963TIP3   OH254379   1.602   6.309   4.964 -0.7313 -0.8382 -0.0912
10963TIP3    H154380   1.632   6.400   4.968 -1.7112 -0.3710 -1.9652
10963TIP3    H254381   1.667   6.266   4.907 -1.3268 -0.8121 -0.8058
10964TIP3   OH254382   4.684   5.370   3.005 -0.4538 -0.4472  0.6124
10964TIP3    H154383   4.669   5.276   3.002 -0.6387 -0.3946 -1.1477
10964TIP3    H254384   4.733   5.384   3.087 -1.1274 -1.9359  1.3102
10965TIP3   OH254385   2.847   6.611  16.008 -0.2154  0.0348 -0.0237
10965TIP3    H154386   2.789   6.544  15.971  0.2632 -0.5101  0.1988
10965TIP3    H254387   2.882   6.657  15.931 -2.7905  2.0297 -0.1470
10966TIP3   OH254388   6.586   6.625  10.692 -0.1465 -0.4416  0.4332
10966TIP3    H154389   6.611   6.692  10.629 -0.8190 -1.6860 -1.2266
10966TIP3    H254390   6.507   6.660  10.733  0.2696  0.3649  0.5734
10967TIP3   OH254391   0.096   5.635   1.380 -0.4191  0.3110  0.1056
10967TIP3    H154392   0.114   5.729   1.381 -0.5872  0.3389  0.6298
10967TIP3    H254393   0.015   5.626   1.429 -0.6474 -0.0634 -0.3335
10968TIP3   OH254394   2.810   5.648   4.588  0.2864 -0.5680  0.0731
10968TIP3    H154395   2.797   5.714   4.520 -0.5178 -0.7020  0.0946
10968TIP3    H254396   2.844   5.697   4.663 -2.1715  0.1932  0.7794
10969TIP3   OH254397   2.653   3.950   6.060 -0.3613  0.1926  0.0578
10969TIP3    H154398   2.748   3.947   6.068 -0.4161 -0.9029  0.3638
10969TIP3    H254399   2.623   3.996   6.139 -0.1047  0.4222  0.0230
10970TIP3   OH254400   3.055   5.099   3.467  0.0454  0.0623  0.2289
10970TIP3    H154401   2.961   5.083   3.461 -0.2835  1.6891  0.3200
10970TIP3    H254402   3.078   5.139   3.383  0.9740 -1.5957 -0.3472
10971TIP3   OH254403   1.539   6.813  15.739 -0.3221  0.0789 -0.2404
10971TIP3    H154404   1.628   6.779  15.727 -0.3905 -0.2391  0.1452
10971TIP3    H254405   1.493   6.745  15.788 -0.3672  0.8542  0.8240
10972TIP3   OH254406   2.566   5.236   1.768  0.2495 -0.0014  0.5674
10972TIP3    H154407   2.649   5.283   1.757 -0.2468  0.6092 -0.8612
10972TIP3    H254408   2.502   5.289   1.720 -0.4911 -1.7113 -0.4223
10973TIP3   OH254409   5.528   4.350  13.167  0.4588  0.3511  0.7045
10973TIP3    H154410   5.471   4.322  13.095  1.6581  1.1051 -0.5863
10973TIP3    H254411   5.547   4.269  13.214 -0.8479 -0.0636  0.5587
10974TIP3   OH254412   3.271   6.757  14.785 -0.3201 -0.3611  0.1615
10974TIP3    H154413   3.250   6.807  14.864 -0.5985  0.7440 -0.5960
10974TIP3    H254414   3.322   6.683  14.817  1.3548  1.1423  1.1676
10975TIP3   OH254415   0.714   3.647  12.159 -0.6379 -0.4561  0.0680
10975TIP3    H154416   0.672   3.675  12.240  1.5206  0.8708  0.8198
10975TIP3    H254417   0.661   3.685  12.089 -1.6835 -0.3607  0.8860
10976TIP3   OH254418   2.461   5.596   1.420  0.6168  0.2803  0.2720
10976TIP3    H154419   2.532   5.609   1.357  1.4064  0.1056  1.1032
10976TIP3    H254420   2.389   5.559   1.368  2.3924 -3.2171  0.0476
10977TIP3   OH254421   3.975   6.254  11.162  0.0268  0.5067  0.6656
10977TIP3    H154422   3.976   6.349  11.170  1.7288  0.5689  0.1357
10977TIP3    H254423   4.063   6.231  11.131 -1.1296 -0.9899 -1.9252
10978TIP3   OH254424   3.482   2.578   5.879 -0.0314 -0.3343 -0.1092
10978TIP3    H154425   3.526   2.660   5.898  0.2501 -0.8604  1.6645
10978TIP3    H254426   3.451   2.546   5.964  1.0059 -2.7009 -0.5394
10979TIP3   OH254427   6.820   1.814   3.731 -0.1470  0.4777 -0.1217
10979TIP3    H154428   6.730   1.799   3.703 -0.8626 -1.0581  2.6560
10979TIP3    H254429   6.868   1.739   3.695 -0.7156 -0.5551  1.1748
10980TIP3   OH254430   0.671   2.310  11.604 -0.1049  0.3505  0.4469
10980TIP3    H154431   0.604   2.371  11.636 -1.1055 -0.7042  0.4334
10980TIP3    H254432   0.623   2.228  11.588  1.2512 -0.5553  0.8142
10981TIP3   OH254433   4.985   5.458  15.219  0.2591  0.7995 -0.0498
10981TIP3    H154434   5.078   5.462  15.198 -0.0768  0.9304 -1.6461
10981TIP3    H254435   4.954   5.548  15.207  0.5194  1.5749  3.7918
10982TIP3   OH254436   0.957   1.185   1.427 -0.0068 -0.2933  0.2373
10982TIP3    H154437   0.876   1.147   1.461 -0.3055  1.4294  1.6011
10982TIP3    H254438   0.939   1.280   1.424  1.6757  0.0417 -0.2408
10983TIP3   OH254439   0.242   1.449  10.744 -0.7691  0.0366 -0.0019
10983TIP3    H154440   0.196   1.493  10.815  0.2956 -1.5139  1.7423
10983TIP3    H254441   0.247   1.514  10.674 -2.9048  1.2318  0.8676
10984TIP3   OH254442   1.977   6.609  11.656  0.5910 -0.4201  0.2992
10984TIP3    H154443   1.910   6.568  11.709  0.6394 -2.3575 -1.0320
10984TIP3    H254444   2.058   6.563  11.679  0.5578 -1.5524 -1.5848
10985TIP3   OH254445   3.162   4.839   5.650 -0.0869  0.1591 -0.1893
10985TIP3    H154446   3.170   4.930   5.624 -0.8749  0.5796  0.9394
10985TIP3    H254447   3.075   4.812   5.619  0.0782 -0.1620 -0.3807
10986TIP3   OH254448   4.072   2.696  10.861 -0.0965  0.6866 -0.0839
10986TIP3    H154449   4.021   2.753  10.919 -2.4005 -0.7356 -0.6123
10986TIP3    H254450   4.025   2.699  10.777  2.3649  1.5733 -1.5428
10987TIP3   OH254451   0.241   3.324   2.578  0.3878  0.1760 -0.0057
10987TIP3    H154452   0.268   3.385   2.509  0.6229  0.4442  0.3203
10987TIP3    H254453   0.268   3.238   2.545  1.7154  0.4375  0.3338
10988TIP3   OH254454   4.524   6.373   5.085 -0.4824 -0.0560 -0.0093
10988TIP3    H154455   4.498   6.464   5.095 -0.1377  0.1568 -0.9378
10988TIP3    H254456   4.444   6.323   5.101 -2.0286  0.6322 -4.2669
10989TIP3   OH254457   3.189   0.817   3.313 -0.1165  0.3458 -0.9681
10989TIP3    H154458   3.210   0.856   3.398 -1.5288  2.2655 -1.4175
10989TIP3    H254459   3.108   0.768   3.329  1.1447 -1.6935 -0.6189
10990TIP3   OH254460   1.096   2.335   3.747 -0.1759 -0.1521 -0.6280
10990TIP3    H154461   1.139   2.404   3.797  0.2375 -0.3726 -0.6725
10990TIP3    H254462   1.168   2.283   3.710 -0.4675 -1.0750  0.0507
10991TIP3   OH254463   2.209   1.100   6.257 -0.4363  0.5108  0.5068
10991TIP3    H154464   2.161   1.057   6.327  0.9338 -1.5222  0.2827
10991TIP3    H254465   2.252   1.175   6.298 -2.1913  1.2267  1.1011
10992TIP3   OH254466   6.842   6.067   2.393 -0.1224 -0.0346  0.4952
10992TIP3    H154467   6.850   5.983   2.438  0.1224 -0.7349 -0.7902
10992TIP3    H254468   6.767   6.109   2.434  0.1708 -0.5754  1.6279
10993TIP3   OH254469   3.348   2.254  15.941 -0.5101 -0.3901  0.3149
10993TIP3    H154470   3.403   2.320  15.898  2.1666 -1.2156  2.1911
10993TIP3    H254471   3.348   2.179  15.881  0.4592 -0.3741  0.2860
10994TIP3   OH254472   2.749   1.254   1.236  0.1401  0.0488 -0.5225
10994TIP3    H154473   2.757   1.349   1.245 -1.1471  0.5163 -3.2111
10994TIP3    H254474   2.795   1.234   1.155 -1.2379 -1.3049 -1.0147
10995TIP3   OH254475   2.377   2.098  12.793 -0.6923 -0.2940  0.3613
10995TIP3    H154476   2.392   2.013  12.834  1.5153 -0.1949 -0.1065
10995TIP3    H254477   2.321   2.146  12.855 -0.2470 -1.3315  1.6057
10996TIP3   OH254478   4.195   4.098   1.906 -0.0734  0.6302  0.9747
10996TIP3    H154479   4.112   4.142   1.886 -1.0919 -1.5922  0.0511
10996TIP3    H254480   4.254   4.125   1.836 -1.5697 -1.6403 -1.3238
10997TIP3   OH254481   3.068   0.072   1.170 -0.2787  0.3260 -0.2251
10997TIP3    H154482   3.032   0.048   1.085 -2.6310  0.8196  0.5691
10997TIP3    H254483   3.065  -0.009   1.221 -0.9492  0.5262  0.0597
10998TIP3   OH254484   0.871   0.964   4.702 -0.7089  0.3729  0.4273
10998TIP3    H154485   0.907   0.888   4.748 -0.7212  0.6606  0.9171
10998TIP3    H254486   0.783   0.937   4.676 -1.1899  0.6428  1.6989
10999TIP3   OH254487   0.294   1.064  15.831 -0.3045  0.2656 -0.4854
10999TIP3    H154488   0.344   1.109  15.899 -0.8858  0.3420 -0.1058
10999TIP3    H254489   0.318   1.109  15.750 -1.2573  1.5939 -0.0561
11000TIP3   OH254490   2.099   3.205  16.055 -0.4954  0.5451 -0.0736
11000TIP3    H154491   2.195   3.210  16.051 -0.3777 -0.8444  0.5072
11000TIP3    H254492   2.074   3.277  16.113  0.2508  0.5156  0.2999
11001TIP3   OH254493   0.149   2.617  12.578  0.0393  0.1277  0.2022
11001TIP3    H154494   0.077   2.557  12.559 -0.1906  0.1259  1.0276
11001TIP3    H254495   0.221   2.561  12.606  0.2272  0.1594 -0.2088
11002TIP3   OH254496   5.866   6.709   3.367  0.2196 -0.5832 -0.1149
11002TIP3    H154497   5.954   6.744   3.383 -0.2748  0.1709  1.1377
11002TIP3    H254498   5.877   6.614   3.372  0.8998 -0.4864  0.4362
11003TIP3   OH254499   2.521   6.631  15.058 -0.5477  0.1077 -0.0335
11003TIP3    H154500   2.524   6.547  15.104 -0.3171 -1.0153 -2.0019
11003TIP3    H254501   2.612   6.657  15.049 -0.3094 -1.2029 -2.3742
11004TIP3   OH254502   5.540   5.104   2.875  0.1571  0.2278  0.1060
11004TIP3    H154503   5.535   5.192   2.911  1.7941  1.2371 -1.9148
11004TIP3    H254504   5.574   5.050   2.946 -2.6470  0.7456  2.0009
11005TIP3   OH254505   0.929   1.310  10.444  0.5478  0.1117 -0.0451
11005TIP3    H154506   0.955   1.351  10.361 -1.2173 -1.0519 -1.2563
11005TIP3    H254507   0.935   1.380  10.508  0.2952  1.5222 -1.5032
11006TIP3   OH254508   0.886   3.011   1.910 -0.5383  0.1531  0.4254
11006TIP3    H154509   0.944   3.058   1.969  1.3588  0.4701 -1.5638
11006TIP3    H254510   0.888   2.920   1.942 -0.2569  0.4708  1.3349
11007TIP3   OH254511   4.136   2.117  16.576  0.3230 -0.0132 -0.3258
11007TIP3    H154512   4.206   2.180  16.593 -0.7618  1.7313 -1.9870
11007TIP3    H254513   4.179   2.031  16.584  1.8177  0.8760  2.0709
11008TIP3   OH254514   6.069   1.937   6.640  0.1513  0.6369 -0.0524
11008TIP3    H154515   6.146   1.945   6.697  0.4557 -0.2539 -0.3243
11008TIP3    H254516   6.036   2.027   6.633  1.2805  1.0784 -0.0839
11009TIP3   OH254517   3.512   1.782  13.052 -0.3319 -0.4904  0.3404
11009TIP3    H154518   3.479   1.706  13.005 -1.2945 -0.6811  1.2979
11009TIP3    H254519   3.478   1.773  13.141 -0.2787  0.9362  0.5321
11010TIP3   OH254520   6.395   2.748   3.188  0.2777 -0.5177  0.0025
11010TIP3    H154521   6.318   2.695   3.168  0.9484 -1.8579  0.8317
11010TIP3    H254522   6.463   2.685   3.210  1.0922  0.6990  1.1526
11011TIP3   OH254523   2.666   5.548   1.244  0.1401 -1.6087 -0.7211
11011TIP3    H154524   2.601   5.477   1.238 -1.5458 -0.3132  1.1398
11011TIP3    H254525   2.645   5.605   1.170 -1.3799 -0.8338  0.2589
11012TIP3   OH254526   5.577   3.239  16.486  0.5445  0.0177 -0.0825
11012TIP3    H154527   5.568   3.309  16.422  2.9292  1.1273  0.6815
11012TIP3    H254528   5.590   3.160  16.434  0.4540  0.5681 -0.9531
11013TIP3   OH254529   0.398   0.383   4.670 -0.6442  0.0376  0.6554
11013TIP3    H154530   0.316   0.396   4.623 -0.3215  1.1443  0.3688
11013TIP3    H254531   0.388   0.297   4.713 -3.0037  1.2158  2.7610
11014TIP3   OH254532   1.429   3.907   6.137 -0.2455 -0.2143  0.3185
11014TIP3    H154533   1.372   3.973   6.176 -2.9617 -0.2068 -3.2142
11014TIP3    H254534   1.371   3.833   6.120  1.4084 -1.2449 -1.1191
11015TIP3   OH254535   2.177   1.166   2.979  0.2328 -0.1307  0.3741
11015TIP3    H154536   2.242   1.236   2.984  0.1182  0.1479 -1.5089
11015TIP3    H254537   2.181   1.135   2.889 -2.0856 -0.2700  0.2562
11016TIP3   OH254538   2.115   3.716   0.782  0.3258 -0.6172  0.3130
11016TIP3    H154539   2.151   3.804   0.771  0.9767 -0.9590 -0.4243
11016TIP3    H254540   2.105   3.684   0.693  0.3215 -1.3809  0.5853
11017TIP3   OH254541   4.460   0.807   4.006 -0.5339 -0.1651  0.3316
11017TIP3    H154542   4.536   0.784   4.061  1.2997  0.2348 -1.9023
11017TIP3    H254543   4.419   0.723   3.986  1.2396 -0.7774 -1.0055
11018TIP3   OH254544   6.340   3.815   6.261 -0.8672 -0.8123  0.8036
11018TIP3    H154545   6.286   3.892   6.277 -0.6012 -0.7670  1.5316
11018TIP3    H254546   6.300   3.773   6.185 -0.4384  0.5700 -0.2230
11019TIP3   OH254547   4.441   1.850  16.312 -0.2189 -0.0989  0.1795
11019TIP3    H154548   4.378   1.781  16.330 -1.5341  1.4302  1.7483
11019TIP3    H254549   4.454   1.894  16.396  2.1549  0.3102 -0.3288
11020TIP3   OH254550   6.336   6.044  15.147  0.8645  0.7360  0.2875
11020TIP3    H154551   6.384   6.044  15.230  0.0773  1.1441  0.7508
11020TIP3    H254552   6.251   6.006  15.169  0.2010  1.9638 -0.0641
11021TIP3   OH254553   4.446   3.345   1.647  0.3168  0.1824  0.0988
11021TIP3    H154554   4.407   3.377   1.566 -1.4502  2.0602  1.5880
11021TIP3    H254555   4.434   3.250   1.642 -1.8768  0.4286 -0.8557
11022TIP3   OH254556   5.280   2.080   3.255 -0.7733  0.1545  0.2414
11022TIP3    H154557   5.283   2.164   3.210 -1.6111  0.1752  0.2011
11022TIP3    H254558   5.278   2.102   3.348  0.7593  0.1167  0.3098
11023TIP3   OH254559   2.372   5.881   5.062 -0.2806  0.5564 -0.0242
11023TIP3    H154560   2.331   5.798   5.087  0.4715  0.3930  0.7069
11023TIP3    H254561   2.302   5.946   5.071 -0.5815  0.1687  0.4723
11024TIP3   OH254562   2.378   4.614  14.852  0.0645  0.2080  0.3446
11024TIP3    H154563   2.390   4.707  14.872  2.0851 -0.2352  1.4642
11024TIP3    H254564   2.427   4.600  14.772 -1.4151  0.3487 -0.6237
11025TIP3   OH254565   5.481   4.426  16.170  0.4125  0.3017  0.1527
11025TIP3    H154566   5.487   4.518  16.141 -0.6276  0.4877  0.4730
11025TIP3    H254567   5.399   4.395  16.130 -0.4484  0.2141  1.9138
11026TIP3   OH254568   5.964   3.617  10.827 -0.2378 -0.1748 -0.4157
11026TIP3    H154569   6.023   3.545  10.808 -0.8813 -0.9626  0.4936
11026TIP3    H254570   5.993   3.651  10.912 -1.6238 -1.1777  0.5021
11027TIP3   OH254571   3.552   3.935  13.327 -0.0010 -0.6268 -0.1500
11027TIP3    H154572   3.484   4.000  13.308 -0.4709 -0.6291  1.4241
11027TIP3    H254573   3.616   3.947  13.257 -0.8305  0.4820 -0.7535
11028TIP3   OH254574   4.212   4.659   2.221 -0.1258 -0.7205  0.2229
11028TIP3    H154575   4.139   4.704   2.263  0.2414 -0.1752  0.2852
11028TIP3    H254576   4.174   4.579   2.186 -1.0413  0.1660 -0.8841
11029TIP3   OH254577   4.338   1.230  13.425 -0.3053  0.3029  0.3753
11029TIP3    H154578   4.328   1.199  13.335 -0.1566 -0.7208  0.7024
11029TIP3    H254579   4.404   1.299  13.419 -0.7133  0.6394 -0.3788
11030TIP3   OH254580   3.642   0.968  13.815  0.9222 -0.1770  0.2220
11030TIP3    H154581   3.648   0.929  13.727  0.0348  0.8551 -0.3249
11030TIP3    H254582   3.619   0.895  13.872  0.8377 -0.7470 -0.5256
11031TIP3   OH254583   0.207   2.132   5.688  0.0912 -0.4812 -0.0335
11031TIP3    H154584   0.268   2.059   5.674  2.3938  1.3544 -0.0932
11031TIP3    H254585   0.219   2.187   5.611 -1.3189  0.1962  0.2106
11032TIP3   OH254586   1.292   1.297  15.182 -0.7332 -0.3735  0.6056
11032TIP3    H154587   1.249   1.309  15.267 -1.0372 -2.7126  0.8474
11032TIP3    H254588   1.372   1.248  15.201  1.4503  2.6536 -0.0350
11033TIP3   OH254589   2.567   6.700  14.295  0.4943  0.2034  0.2146
11033TIP3    H154590   2.488   6.702  14.348 -0.5856 -1.1595 -1.2634
11033TIP3    H254591   2.598   6.610  14.299  0.0377 -0.0977 -1.9029
11034TIP3   OH254592   4.921   2.611   5.000  0.5871  0.1170 -0.1623
11034TIP3    H154593   4.948   2.606   5.092  1.4708  0.0880 -0.4157
11034TIP3    H254594   4.826   2.603   5.003  0.2116  3.5494  1.0262
11035TIP3   OH254595   4.009   0.576  14.643 -0.0015 -0.0181  0.1906
11035TIP3    H154596   3.952   0.652  14.653 -2.6508 -1.6404 -1.3259
11035TIP3    H254597   4.025   0.546  14.733 -0.9622  0.9006  0.6903
11036TIP3   OH254598   3.590   1.569   4.278  0.4637 -0.3215 -0.1280
11036TIP3    H154599   3.554   1.482   4.297  1.0444 -0.9740 -1.8836
11036TIP3    H254600   3.684   1.559   4.291  0.4885  0.1597  0.0619
11037TIP3   OH254601   3.380   5.868  12.660  0.0078 -0.5877 -0.3488
11037TIP3    H154602   3.351   5.833  12.745 -1.1410 -0.8611 -0.8301
11037TIP3    H254603   3.377   5.963  12.672 -0.6497 -0.6143 -0.2240
11038TIP3   OH254604   3.661   4.585   1.418 -0.3497 -0.2571 -0.4568
11038TIP3    H154605   3.690   4.656   1.361 -0.3293  1.5303  1.6284
11038TIP3    H254606   3.600   4.535   1.365 -1.0615  1.8569 -1.7640
11039TIP3   OH254607   0.904   4.051  15.488 -0.5790  0.0575  0.4026
11039TIP3    H154608   0.980   4.100  15.456 -0.2434 -1.0938 -0.6401
11039TIP3    H254609   0.837   4.066  15.422 -0.9924  0.3882  0.8941
11040TIP3   OH254610   4.204   4.377   1.233 -0.6595  0.4534 -0.1251
11040TIP3    H154611   4.261   4.306   1.205 -1.0213  0.8026 -1.8640
11040TIP3    H254612   4.238   4.404   1.319 -0.3132 -1.5469  0.4068
11041TIP3   OH254613   2.759   6.787  14.992  0.0403 -0.2434 -0.9884
11041TIP3    H154614   2.722   6.870  15.020  1.8870  0.2250  0.3377
11041TIP3    H254615   2.768   6.794  14.897 -1.9219  0.1110 -1.1835
11042TIP3   OH254616   0.251   2.581   2.383 -0.0162  0.1130 -0.4106
11042TIP3    H154617   0.296   2.632   2.317 -0.1493 -0.1815 -0.7313
11042TIP3    H254618   0.317   2.520   2.416 -0.1338 -0.2060 -0.7625
11043TIP3   OH254619   3.053   5.286   2.227  0.1323 -0.2721 -0.3377
11043TIP3    H154620   3.108   5.217   2.263 -0.8945 -1.1593 -0.4020
11043TIP3    H254621   2.967   5.272   2.268 -0.1808  0.7550 -0.6170
11044TIP3   OH254622   0.832   5.104  14.416  1.1562 -1.0448  0.0735
11044TIP3    H154623   0.838   5.031  14.478 -1.0046 -1.2297  0.1426
11044TIP3    H254624   0.753   5.086  14.366 -0.1103  1.8301  0.8634
11045TIP3   OH254625   3.783   5.010   5.289  0.6205  0.4653 -0.7435
11045TIP3    H154626   3.706   4.957   5.267  1.2882 -0.4441 -0.9366
11045TIP3    H254627   3.782   5.014   5.385  0.5213  0.1739 -0.7318
11046TIP3   OH254628   2.819   1.644  11.215  0.0503 -0.2507 -0.5953
11046TIP3    H154629   2.860   1.605  11.138 -0.4068  0.0506 -0.9927
11046TIP3    H254630   2.795   1.570  11.270  1.9515 -0.4166  0.0860
11047TIP3   OH254631   0.305   3.484   0.746  0.2220  0.2136 -0.3515
11047TIP3    H154632   0.308   3.447   0.658  2.0037  0.7715 -0.5506
11047TIP3    H254633   0.225   3.537   0.747 -0.5168 -0.8406 -1.1782
11048TIP3   OH254634   6.696   3.391   3.419  0.1960 -0.0642  0.3498
11048TIP3    H154635   6.602   3.402   3.408 -0.2743  0.1093  3.4888
11048TIP3    H254636   6.709   3.297   3.428  0.3970 -0.1225 -0.5103
11049TIP3   OH254637   2.729   5.517  15.915  0.2719  0.3254 -0.4152
11049TIP3    H154638   2.775   5.439  15.946 -0.3106  0.6455  1.3739
11049TIP3    H254639   2.790   5.557  15.853  1.1818 -0.7721 -0.2830
11050TIP3   OH254640   5.993   2.950  13.345 -0.1640 -0.3513  0.2319
11050TIP3    H154641   5.978   3.040  13.376  1.0600  0.5140 -1.5158
11050TIP3    H254642   5.907   2.921  13.315 -0.8161 -0.2256  1.8799
11051TIP3   OH254643   3.930   0.409   4.001  0.4146  0.3915 -0.1521
11051TIP3    H154644   3.946   0.346   4.071 -1.3386  0.9490  0.7987
11051TIP3    H254645   3.962   0.492   4.035  0.0086  0.5764 -0.2248
11052TIP3   OH254646   2.049   3.136  11.670  0.3466 -0.8135  0.2331
11052TIP3    H154647   1.960   3.165  11.649  0.4458 -0.4589  0.2900
11052TIP3    H254648   2.038   3.052  11.714  0.0383 -0.7481  0.2795
11053TIP3   OH254649   3.615   1.860   0.981 -0.3847 -0.3087  0.2337
11053TIP3    H154650   3.526   1.880   1.010 -0.7049 -0.8493 -0.3536
11053TIP3    H254651   3.655   1.816   1.056 -0.1813  1.0571  0.9720
11054TIP3   OH254652   0.654   0.014  16.203  0.3379  0.1749 -0.7192
11054TIP3    H154653   0.718   0.053  16.262 -0.1353 -1.7689  1.1746
11054TIP3    H254654   0.614   0.090  16.159  1.0863  1.6689  1.0340
11055TIP3   OH254655   4.537   6.167   4.583  0.4664  0.3793  0.2047
11055TIP3    H154656   4.457   6.219   4.579  0.7533  0.7784 -0.5668
11055TIP3    H254657   4.510   6.078   4.563  0.5073  0.8573 -2.3217
11056TIP3   OH254658   3.750   0.174   3.275 -0.3775  0.0555 -0.2305
11056TIP3    H154659   3.737   0.136   3.188 -0.0524 -1.0232  0.1794
11056TIP3    H254660   3.831   0.135   3.306 -0.5185  0.3965  0.5794
11057TIP3   OH254661   0.003   0.675   0.930 -0.3807 -0.0204 -0.4814
11057TIP3    H154662   0.032   0.594   0.888  0.1204  0.6527 -1.4619
11057TIP3    H254663   0.068   0.691   0.998 -0.6996 -0.6434 -0.0217
11058TIP3   OH254664   5.681   6.267   3.583  0.2232  0.1634  0.2533
11058TIP3    H154665   5.711   6.181   3.553 -0.8248 -0.1267 -0.0336
11058TIP3    H254666   5.605   6.248   3.638  0.4463  0.8715  0.8345
11059TIP3   OH254667   2.824   2.713   0.464 -0.5114  0.1097  0.0513
11059TIP3    H154668   2.888   2.720   0.393  0.9237 -1.0546  1.1754
11059TIP3    H254669   2.790   2.801   0.475  0.4040  0.6190 -1.0089
11060TIP3   OH254670   3.669   2.689   5.420  0.3904  0.1010  0.3346
11060TIP3    H154671   3.676   2.620   5.486 -0.6568 -0.7183 -0.3719
11060TIP3    H254672   3.730   2.757   5.449 -1.3288  0.5742  3.0855
11061TIP3   OH254673   1.851   0.908   0.617  0.2654  0.1904  0.2161
11061TIP3    H154674   1.910   0.853   0.666 -0.9383 -0.0647  1.4368
11061TIP3    H254675   1.800   0.955   0.683  0.0282  1.4295 -0.7859
11062TIP3   OH254676   6.723   5.203   2.090 -0.0601 -0.0507  0.2055
11062TIP3    H154677   6.700   5.212   2.182  0.0661  1.3110  0.1249
11062TIP3    H254678   6.815   5.228   2.086 -0.2168  0.4609 -0.3625
11063TIP3   OH254679   3.835   5.514  14.236 -0.0479  0.2501  0.2144
11063TIP3    H154680   3.921   5.521  14.277 -0.5416  1.5128  1.1054
11063TIP3    H254681   3.796   5.436  14.274  1.1524 -1.0588 -1.1283
11064TIP3   OH254682   1.220   2.439   0.163 -0.8504 -0.2404 -0.0414
11064TIP3    H154683   1.310   2.422   0.190 -0.8181  1.2980  0.9814
11064TIP3    H254684   1.205   2.381   0.089  0.4532 -1.6635  0.7511
11065TIP3   OH254685   3.312   0.857  11.628  0.2605 -0.7533  0.3229
11065TIP3    H154686   3.353   0.940  11.604 -2.8123  1.0067  0.6214
11065TIP3    H254687   3.299   0.863  11.722 -1.9803 -0.4978  0.0561
11066TIP3   OH254688   4.016   5.273  12.142  0.3752  0.1725 -0.4894
11066TIP3    H154689   3.974   5.347  12.097  0.4853 -0.8681 -2.4040
11066TIP3    H254690   3.946   5.210  12.156  0.7216 -0.3241 -0.9751
11067TIP3   OH254691   0.058   5.478   4.259  0.3840 -0.1041  0.1077
11067TIP3    H154692   0.110   5.548   4.220  0.5331  0.1418  0.7333
11067TIP3    H254693   0.075   5.485   4.353  1.4942 -1.8746  0.0766
11068TIP3   OH254694   4.875   6.680   2.968 -0.0374 -0.2644 -0.4275
11068TIP3    H154695   4.854   6.772   2.952 -1.1456  0.0167  2.1294
11068TIP3    H254696   4.967   6.681   2.993 -0.6003  0.5735  1.8730
11069TIP3   OH254697   3.720   5.929   5.448 -0.2861 -0.3071 -0.2755
11069TIP3    H154698   3.645   5.985   5.430 -0.9935 -1.1078  0.1316
11069TIP3    H254699   3.796   5.982   5.423 -1.0366 -0.0085 -2.0950
11070TIP3   OH254700   5.763   5.786  11.340  0.1161 -1.0404 -0.0182
11070TIP3    H154701   5.851   5.767  11.307 -0.2834 -2.8783 -0.0990
11070TIP3    H254702   5.717   5.824  11.265  0.7143 -0.3919 -0.0720
11071TIP3   OH254703   2.791   5.066   1.893 -0.7102 -0.0647 -1.0327
11071TIP3    H154704   2.696   5.072   1.892 -0.6344  1.7895 -0.8337
11071TIP3    H254705   2.821   5.134   1.833  0.4961 -0.7778 -1.2861
11072TIP3   OH254706   4.306   5.946  13.551  0.1950 -0.3623 -0.5316
11072TIP3    H154707   4.222   5.962  13.594  0.3016  0.1830 -0.5180
11072TIP3    H254708   4.310   6.010  13.480  1.2005  0.5864  0.3320
11073TIP3   OH254709   4.714   0.373  10.586 -0.8834  0.5626  0.8000
11073TIP3    H154710   4.682   0.342  10.501 -0.4019 -0.0801  0.8433
11073TIP3    H254711   4.763   0.453  10.566  0.5134 -0.3975  0.2531
11074TIP3   OH254712   3.523   3.951   5.139 -0.0606  0.7192  0.1197
11074TIP3    H154713   3.484   3.913   5.218 -0.1467 -0.9451 -0.6718
11074TIP3    H254714   3.470   4.029   5.121 -1.0676  0.2200  0.8018
11075TIP3   OH254715   2.070   5.902   3.207  0.0613 -0.2774 -0.0695
11075TIP3    H154716   2.007   5.933   3.142  1.4300  2.6837 -0.1502
11075TIP3    H254717   2.146   5.875   3.156 -0.5986 -2.7323  0.1064
11076TIP3   OH254718   5.293   2.444   3.376 -0.4917  0.1295 -0.5554
11076TIP3    H154719   5.382   2.419   3.350 -0.6591  0.8986 -1.9643
11076TIP3    H254720   5.305   2.501   3.452  0.2671  0.6230 -1.0326
11077TIP3   OH254721   4.550   6.472  16.137 -0.4093  0.1424  0.1076
11077TIP3    H154722   4.464   6.450  16.101 -0.4450 -0.0872  0.3281
11077TIP3    H254723   4.589   6.531  16.073 -0.9800  0.7479  0.3061
11078TIP3   OH254724   1.080   6.552   4.344  0.0936  0.5214 -0.0071
11078TIP3    H154725   1.020   6.551   4.418 -4.0820  0.6456 -3.0376
11078TIP3    H254726   1.085   6.461   4.315  0.6962  0.6426 -0.2956
11079TIP3   OH254727   0.521   5.844  12.787 -0.3244  0.6590 -0.1948
11079TIP3    H154728   0.581   5.917  12.804  0.0273  0.5445 -0.9073
11079TIP3    H254729   0.474   5.869  12.708 -0.1355  0.0734 -0.4938
11080TIP3   OH254730   2.366   6.213  12.886  0.1893  0.4418 -0.5155
11080TIP3    H154731   2.328   6.300  12.898 -0.3006  0.3293 -1.1970
11080TIP3    H254732   2.459   6.229  12.871  0.1458  0.8304 -0.3711
11081TIP3   OH254733   5.848   6.511  11.236  0.3084 -0.1752 -0.4154
11081TIP3    H154734   5.754   6.522  11.220  0.2971  1.8215  0.7702
11081TIP3    H254735   5.854   6.427  11.282 -0.9451 -0.1223 -0.1170
11082TIP3   OH254736   3.460   2.624  14.861 -0.0769  0.2034  0.3627
11082TIP3    H154737   3.450   2.546  14.806  0.1751 -0.2634  0.9659
11082TIP3    H254738   3.428   2.696  14.807 -1.0842 -0.4279  0.0944
11083TIP3   OH254739   0.921   2.483   2.269  0.2267 -0.1795  0.2135
11083TIP3    H154740   0.898   2.446   2.354 -1.0935  1.9766  0.8635
11083TIP3    H254741   0.865   2.560   2.260  1.2583  0.3915 -2.0524
11084TIP3   OH254742   2.603   4.877  13.096 -0.3937  0.2405  0.1886
11084TIP3    H154743   2.512   4.855  13.111 -0.3007 -0.7775 -0.5840
11084TIP3    H254744   2.649   4.793  13.102  0.4374  0.6867  0.2174
11085TIP3   OH254745   6.421   4.064   6.150  0.0048 -0.0778  0.2524
11085TIP3    H154746   6.449   4.024   6.068  3.2104  2.2700  0.0118
11085TIP3    H254747   6.456   4.006   6.218  1.6151  0.4490 -0.0897
11086TIP3   OH254748   0.817   6.533   1.974  0.2913 -0.7885  0.4822
11086TIP3    H154749   0.834   6.441   1.957 -1.3761 -1.2365  1.0082
11086TIP3    H254750   0.726   6.535   2.005 -0.0360  1.1377 -0.4511
11087TIP3   OH254751   0.934   5.305   4.904  0.4679 -0.1571  0.1193
11087TIP3    H154752   1.003   5.250   4.866  0.4251 -0.2393  0.1613
11087TIP3    H254753   0.982   5.371   4.955  0.4953 -0.5901  0.6573
11088TIP3   OH254754   0.360   5.074   3.239 -0.0920 -0.2034  0.0905
11088TIP3    H154755   0.363   5.073   3.334  1.9133 -0.2910  0.0562
11088TIP3    H254756   0.356   5.167   3.216 -2.4824 -0.2077  0.2407
11089TIP3   OH254757   3.086   0.090  14.673  0.4470  0.0191 -0.3166
11089TIP3    H154758   3.162   0.033  14.686  1.1757  0.2665 -2.8432
11089TIP3    H254759   3.031   0.041  14.611 -1.8905 -0.4724  1.9936
11090TIP3   OH254760   2.307   5.417  14.410  0.1936  0.2338 -0.1240
11090TIP3    H154761   2.215   5.395  14.424  0.0619  0.0040 -1.2735
11090TIP3    H254762   2.306   5.511  14.392 -0.1627 -0.1812 -2.6602
11091TIP3   OH254763   5.179   0.364  15.114  0.0019 -0.2438 -0.0538
11091TIP3    H154764   5.085   0.375  15.126 -0.2058 -0.4683 -1.3593
11091TIP3    H254765   5.202   0.424  15.044  1.1363  0.9286  1.2555
11092TIP3   OH254766   0.947   6.635   5.125 -0.7099 -0.0970  0.6091
11092TIP3    H154767   0.855   6.610   5.118 -0.9459  1.0480 -1.2590
11092TIP3    H254768   0.945   6.727   5.151 -0.3033  0.9025 -2.4361
11093TIP3   OH254769   2.349   5.048  13.503 -0.4359 -0.0667  0.1727
11093TIP3    H154770   2.436   5.063  13.540 -0.7887 -0.9554  1.4333
11093TIP3    H254771   2.354   4.960  13.466 -0.9016 -0.2792  0.6058
11094TIP3   OH254772   2.921   0.818  12.481 -0.0880  0.4628  0.2544
11094TIP3    H154773   2.930   0.839  12.573 -1.4183  0.5807  0.3735
11094TIP3    H254774   2.878   0.894  12.443 -0.8568 -0.1762 -0.1777
11095TIP3   OH254775   2.709   3.972   4.217 -0.6171 -0.2843 -0.3565
11095TIP3    H154776   2.741   3.890   4.256 -0.1684  0.0584  0.0090
11095TIP3    H254777   2.770   3.990   4.146 -0.3723  0.0308 -0.0706
11096TIP3   OH254778   4.484   1.997  12.732  0.0932  0.6549 -0.0252
11096TIP3    H154779   4.465   2.006  12.639 -1.3663 -1.2565  0.0288
11096TIP3    H254780   4.415   2.048  12.776 -1.1374 -0.9779  0.0280
11097TIP3   OH254781   3.244   5.763   0.489 -0.4281 -0.0728  0.2683
11097TIP3    H154782   3.248   5.670   0.509  1.5433  0.1074  0.9265
11097TIP3    H254783   3.217   5.767   0.398  0.7021 -1.3682 -0.1566
11098TIP3   OH254784   4.610   2.938  12.300  0.1705  0.8319 -0.0286
11098TIP3    H154785   4.574   2.930  12.388 -1.1910  1.2082 -0.5257
11098TIP3    H254786   4.696   2.979  12.312 -0.0541  0.9856  1.1009
11099TIP3   OH254787   3.088   1.289  14.632  0.1591  0.3176  0.5267
11099TIP3    H154788   3.181   1.310  14.636  0.3008  0.2274 -1.3325
11099TIP3    H254789   3.045   1.367  14.668  0.9196  0.9862  0.0398
11100TIP3   OH254790   4.931   2.913  15.450  0.1780  0.2933  0.1951
11100TIP3    H154791   4.951   3.003  15.475  2.2195 -0.4368  1.4871
11100TIP3    H254792   4.946   2.862  15.530  0.6765 -1.3709 -0.8913
11101TIP3   OH254793   4.865   3.069  12.191 -0.3591 -0.3261  0.4281
11101TIP3    H154794   4.915   3.044  12.268 -1.8589  0.1415  1.6067
11101TIP3    H254795   4.831   3.157  12.211  0.1360  0.2852 -1.2365
11102TIP3   OH254796   6.357   5.994  13.540  0.4579  0.3157  0.2926
11102TIP3    H154797   6.290   6.020  13.477 -2.9344 -4.1223  1.5090
11102TIP3    H254798   6.422   5.947  13.488  0.9482  1.8583 -0.5257
11103TIP3   OH254799   5.776   5.976   5.324 -0.0275 -0.0147 -0.3084
11103TIP3    H154800   5.863   5.938   5.325 -0.2026 -0.4640  1.3697
11103TIP3    H254801   5.781   6.050   5.385 -0.4786  0.7896 -1.2186
11104TIP3   OH254802   1.028   6.691  14.064  0.6174 -0.3842  0.1256
11104TIP3    H154803   1.027   6.596  14.074  1.0029 -0.3123  0.9300
11104TIP3    H254804   0.961   6.722  14.124  1.2691 -0.0837  0.7084
11105TIP3   OH254805   5.254   3.072  11.957 -0.0858 -0.2494  0.3398
11105TIP3    H154806   5.172   3.092  11.913  0.1949  2.5596  0.9195
11105TIP3    H254807   5.229   3.020  12.033 -1.7585  2.7132  1.9776
11106TIP3   OH254808   0.292   2.221  13.556  0.4208  0.2700  0.0399
11106TIP3    H154809   0.304   2.311  13.524  0.3552 -0.2007 -1.3820
11106TIP3    H254810   0.215   2.189  13.508 -0.4940 -0.0627  1.6571
11107TIP3   OH254811   0.267   1.254  12.683 -0.0859 -0.3557  0.0627
11107TIP3    H154812   0.313   1.315  12.741 -1.2077 -0.3898  1.0202
11107TIP3    H254813   0.207   1.309  12.634 -0.7202 -0.5974  0.5476
11108TIP3   OH254814   1.986   4.073  12.949 -0.5057  0.2787  0.0604
11108TIP3    H154815   1.955   4.023  13.025 -0.1812 -0.2540 -0.1544
11108TIP3    H254816   1.921   4.143  12.938 -1.0514 -0.1912  0.2698
11109TIP3   OH254817   4.722   6.241  16.384 -0.7194  0.0909 -0.3347
11109TIP3    H154818   4.785   6.287  16.327  1.4506 -1.3392  0.7862
11109TIP3    H254819   4.772   6.219  16.462 -2.4768 -1.6749  0.3606
11110TIP3   OH254820   2.920   1.090   3.325  0.7926  0.0049 -0.4398
11110TIP3    H154821   2.859   1.156   3.291  1.9140  1.9176  0.9912
11110TIP3    H254822   2.955   1.046   3.248 -0.7744  0.3791 -1.3881
11111TIP3   OH254823   4.955   3.455  15.719  0.0422 -0.1373 -0.5031
11111TIP3    H154824   4.917   3.512  15.786 -1.6893 -0.3897 -1.2183
11111TIP3    H254825   5.043   3.436  15.751  0.3466  2.1780  0.1964
11112TIP3   OH254826   3.227   0.920  14.966 -0.2749 -0.0535 -0.1891
11112TIP3    H154827   3.187   1.006  14.982  0.2526  0.0081  0.9515
11112TIP3    H254828   3.268   0.898  15.050  0.1188 -1.1447 -0.6581
11113TIP3   OH254829   3.325   6.633   5.394 -0.4127  1.4298  0.3776
11113TIP3    H154830   3.389   6.575   5.436 -0.3773  1.9437  1.0659
11113TIP3    H254831   3.263   6.574   5.351 -1.0131  0.8203  1.9980
11114TIP3   OH254832   5.816   0.805  16.456  0.3952  0.3286  0.7301
11114TIP3    H154833   5.902   0.830  16.489  0.9776  0.2736 -0.6854
11114TIP3    H254834   5.788   0.733  16.512  1.2645  0.3485  1.2020
11115TIP3   OH254835   0.949   4.117   5.219  0.4716  0.1152  0.2349
11115TIP3    H154836   0.891   4.043   5.204  0.1946  0.6138 -1.2988
11115TIP3    H254837   1.017   4.108   5.152  0.9254  0.7584  0.6023
11116TIP3   OH254838   6.052   6.321  16.088  0.2163  0.3900 -0.4109
11116TIP3    H154839   6.010   6.235  16.079  0.1416  0.3561  0.2201
11116TIP3    H254840   6.144   6.301  16.105  0.5733  0.4687 -2.0892
11117TIP3   OH254841   5.529   2.832  16.909  0.1493 -0.3740  0.5202
11117TIP3    H154842   5.551   2.921  16.937 -0.7974  0.3815 -0.9953
11117TIP3    H254843   5.593   2.812  16.841  1.3313 -1.4981  1.9115
11118TIP3   OH254844   5.120   1.743   2.172 -0.0551  0.5876  0.0422
11118TIP3    H154845   5.035   1.748   2.215 -0.5334  0.7836 -0.8904
11118TIP3    H254846   5.131   1.828   2.130  0.3776  0.4002 -0.2380
11119TIP3   OH254847   0.525   6.105   3.210  0.3295  0.0346  0.0308
11119TIP3    H154848   0.477   6.160   3.273 -0.5080 -1.9821  1.2646
11119TIP3    H254849   0.613   6.142   3.208  0.1380  0.6729  1.7453
11120TIP3   OH254850   5.465   5.408   4.798 -0.5666 -0.6093 -0.0588
11120TIP3    H154851   5.382   5.427   4.756 -0.3715 -0.8119 -0.5445
11120TIP3    H254852   5.530   5.456   4.746 -0.1953 -1.7373 -0.6644
11121TIP3   OH254853   0.563   0.077  13.534 -0.2065  0.3701 -0.2149
11121TIP3    H154854   0.599  -0.008  13.560  0.2007  1.5718  3.7180
11121TIP3    H254855   0.475   0.057  13.503 -0.4604 -1.4387  1.4839
11122TIP3   OH254856   4.879   3.042  13.251  0.0610  0.1280 -0.0620
11122TIP3    H154857   4.875   3.019  13.158  1.2907  0.9762 -0.3385
11122TIP3    H254858   4.891   2.958  13.296  0.5672 -0.1798 -0.7542
11123TIP3   OH254859   1.870   5.843  13.089 -0.1397 -0.4465 -0.1280
11123TIP3    H154860   1.866   5.915  13.152  1.8408  1.1040 -1.6168
11123TIP3    H254861   1.954   5.801  13.106 -1.1930 -2.3582  0.5942
11124TIP3   OH254862   3.522   5.781  13.631 -0.0918 -0.2791 -0.3102
11124TIP3    H154863   3.451   5.717  13.638  0.3808 -0.8660 -0.7774
11124TIP3    H254864   3.490   5.846  13.568 -0.2318 -0.5220 -0.4907
11125TIP3   OH254865   5.508   2.155  16.887 -0.3494 -0.5536 -0.3392
11125TIP3    H154866   5.501   2.249  16.872  0.6860 -0.1862  1.2199
11125TIP3    H254867   5.485   2.115  16.803  0.9657  1.1621 -1.5743
11126TIP3   OH254868   4.488   5.370   4.517  0.1549  0.3210 -0.1997
11126TIP3    H154869   4.580   5.344   4.524  0.1151 -0.0138 -0.8121
11126TIP3    H254870   4.482   5.413   4.432 -0.0143  1.4182  0.3531
11127TIP3   OH254871   6.136   0.701  13.481  0.1895  0.4218 -0.5729
11127TIP3    H154872   6.089   0.716  13.399  0.0659  1.6773 -0.2941
11127TIP3    H254873   6.221   0.666  13.453 -0.0080  0.4385 -1.2196
11128TIP3   OH254874   3.875   1.733   2.853 -0.1826  0.6721 -0.2624
11128TIP3    H154875   3.862   1.706   2.944  0.7526 -1.8641 -0.7826
11128TIP3    H254876   3.817   1.676   2.802  2.5528 -1.1863 -1.5217
11129TIP3   OH254877   0.146   0.771  15.156 -0.0092  0.0728  0.0962
11129TIP3    H154878   0.213   0.720  15.200 -0.2601  0.7044  1.2423
11129TIP3    H254879   0.063   0.735  15.188 -0.2364 -0.4211 -0.9856
11130TIP3   OH254880   6.526   6.552   3.807  0.2813 -0.3822  0.5217
11130TIP3    H154881   6.542   6.619   3.873  1.5095 -1.1615  1.0492
11130TIP3    H254882   6.605   6.498   3.807 -0.1010 -0.9981 -0.8877
11131TIP3   OH254883   4.190   1.114   1.755 -0.1036  0.0882  0.4908
11131TIP3    H154884   4.195   1.105   1.850 -0.2190  0.3212  0.5218
11131TIP3    H254885   4.257   1.056   1.721 -0.0225  0.0479  0.7183
11132TIP3   OH254886   3.382   5.817  17.061 -0.0692  0.6884 -0.2759
11132TIP3    H154887   3.457   5.761  17.039 -0.3018  0.3746 -0.2813
11132TIP3    H254888   3.353   5.787  17.147 -1.6176 -0.7809 -1.2325
11133TIP3   OH254889   1.436   2.122   4.026 -0.1961 -0.1047 -0.0546
11133TIP3    H154890   1.341   2.114   4.031 -0.3244  0.9214 -0.7305
11133TIP3    H254891   1.468   2.032   4.033 -1.2546 -0.5465 -0.7190
11134TIP3   OH254892   4.488   0.456   1.321  0.0664 -0.0924 -0.0387
11134TIP3    H154893   4.541   0.465   1.242 -1.2208  1.1764 -0.7940
11134TIP3    H254894   4.551   0.435   1.390  1.5650  1.4402 -0.8783
11135TIP3   OH254895   0.769   3.002  15.081 -0.3512 -0.2162  0.4093
11135TIP3    H154896   0.747   3.020  14.989 -0.3457  2.0588  0.8126
11135TIP3    H254897   0.692   3.032  15.129  0.8260  1.4646  1.3395
11136TIP3   OH254898   5.216   3.325  11.304 -0.1044 -0.1414  0.0606
11136TIP3    H154899   5.149   3.293  11.365  0.9592  0.4664  1.5763
11136TIP3    H254900   5.183   3.410  11.275 -0.6036 -0.4227 -0.2145
11137TIP3   OH254901   0.189   4.587   4.103 -0.0961 -0.0534  0.1698
11137TIP3    H154902   0.213   4.675   4.133 -1.8415  0.3718  0.3901
11137TIP3    H254903   0.176   4.596   4.009  0.8449 -0.3584 -0.0045
11138TIP3   OH254904   3.513   3.908  12.097 -0.3740  0.0300 -0.4034
11138TIP3    H154905   3.508   3.852  12.019 -2.7982  0.6133 -0.7634
11138TIP3    H254906   3.476   3.992  12.068 -0.6717  0.4791  1.1980
11139TIP3   OH254907   3.651   1.299  14.516  0.5234  0.3652  0.7593
11139TIP3    H154908   3.586   1.238  14.551  1.7204 -0.9952  0.6613
11139TIP3    H254909   3.631   1.304  14.422 -1.0861  2.0535  1.1275
11140TIP3   OH254910   6.308   3.131  12.483 -0.8446 -0.0034  0.1255
11140TIP3    H154911   6.384   3.186  12.462 -1.1522  1.1381  1.7932
11140TIP3    H254912   6.324   3.049  12.436  0.3508  0.9793 -1.2708
11141TIP3   OH254913   5.002   4.654   4.546 -0.3732  0.1501 -0.4128
11141TIP3    H154914   5.039   4.639   4.633  0.3852  1.4483 -0.4888
11141TIP3    H254915   4.908   4.648   4.558 -0.2474 -0.4699  0.3330
11142TIP3   OH254916   4.830   1.029  14.659 -0.3227  0.0205 -0.0862
11142TIP3    H154917   4.861   0.969  14.592  0.5995  0.9005 -0.4759
11142TIP3    H254918   4.863   1.115  14.631 -1.9623  0.7904  0.2112
11143TIP3   OH254919   5.930   6.025   4.140  0.4041 -0.5621 -0.2329
11143TIP3    H154920   5.974   5.988   4.216  1.0569  1.4235  0.4160
11143TIP3    H254921   5.881   6.099   4.174  0.1665 -0.0362 -1.6497
11144TIP3   OH254922   3.328   1.141  15.386 -0.0053  0.2992  0.3438
11144TIP3    H154923   3.357   1.063  15.433 -2.2585 -0.2211  0.9747
11144TIP3    H254924   3.380   1.212  15.425  1.0646 -0.6693  0.7496
11145TIP3   OH254925   4.891   5.131  12.056  0.2525 -0.2979 -0.1518
11145TIP3    H154926   4.808   5.173  12.079  0.1913  0.6348 -1.8929
11145TIP3    H254927   4.951   5.204  12.040  1.1442 -0.9467  0.1208
11146TIP3   OH254928   0.913   6.188   1.050 -0.5496 -0.2339 -0.0339
11146TIP3    H154929   0.858   6.161   0.977  0.7608 -1.4732 -0.6163
11146TIP3    H254930   1.002   6.182   1.017  0.0981 -0.9801  1.6805
11147TIP3   OH254931   1.515   6.656  15.110 -0.8961  1.2258 -0.8191
11147TIP3    H154932   1.446   6.603  15.072 -1.8140  1.4400  0.4955
11147TIP3    H254933   1.574   6.593  15.151 -1.1800  1.1387 -0.5448
11148TIP3   OH254934   5.592   2.549  13.239 -0.3435  0.2567  0.1038
11148TIP3    H154935   5.576   2.481  13.173  2.8075 -1.1382  0.6052
11148TIP3    H254936   5.595   2.502  13.322  0.0157  1.3042  0.7076
11149TIP3   OH254937   2.353   6.134   0.799  0.2088  0.4681 -0.4831
11149TIP3    H154938   2.358   6.224   0.830  0.1688 -0.1942  1.5426
11149TIP3    H254939   2.442   6.101   0.805  0.2637  0.4027 -1.4274
11150TIP3   OH254940   1.849   4.848  15.248 -0.5763 -0.3785 -0.2841
11150TIP3    H154941   1.840   4.767  15.298 -1.8620  0.1250  0.3415
11150TIP3    H254942   1.831   4.821  15.158  1.3064 -1.2034 -0.4614
11151TIP3   OH254943   1.563   4.639   2.153  0.2707  0.2559 -0.2348
11151TIP3    H154944   1.624   4.585   2.103 -0.7124 -2.5597  1.3616
11151TIP3    H254945   1.477   4.619   2.116 -0.4812 -1.8724  2.2985
11152TIP3   OH254946   0.810   5.911   4.071 -0.0182  0.9830  0.4955
11152TIP3    H154947   0.796   5.840   4.133 -0.2506  1.0964  0.5712
11152TIP3    H254948   0.749   5.894   4.000  0.8553  0.3561 -0.1346
11153TIP3   OH254949   0.767   4.673  15.309  0.2204  0.0203  0.1462
11153TIP3    H154950   0.806   4.587  15.325 -0.5604 -0.4152 -0.2170
11153TIP3    H254951   0.726   4.665  15.223 -1.5986  0.0917  0.9598
11154TIP3   OH254952   1.823   1.902   5.528 -0.0311 -1.0944 -0.1261
11154TIP3    H154953   1.917   1.910   5.543  0.2170 -1.6261 -1.3415
11154TIP3    H254954   1.790   1.991   5.540  0.5974 -0.9277  0.4375
11155TIP3   OH254955   0.290   5.954  13.931 -0.2604 -0.4775 -0.2952
11155TIP3    H154956   0.239   5.883  13.894 -2.8877  1.2805 -0.3035
11155TIP3    H254957   0.305   6.014  13.858  0.1439 -0.0707  0.1100
11156TIP3   OH254958   3.524   0.490   3.993 -0.0923  0.2525 -0.1670
11156TIP3    H154959   3.526   0.415   4.052 -0.4056 -0.8844 -1.5449
11156TIP3    H254960   3.431   0.508   3.978 -0.0563 -0.6910 -1.7524
11157TIP3   OH254961   2.988   0.599  12.843  0.1200 -0.0719 -0.0597
11157TIP3    H154962   2.943   0.596  12.927  2.6623  1.2025  1.4721
11157TIP3    H254963   2.960   0.681  12.803 -0.3650 -0.2221 -0.0353
11158TIP3   OH254964   2.096   6.710  15.595  0.0528  0.3521 -0.0772
11158TIP3    H154965   2.066   6.646  15.659 -0.3856 -0.0121 -0.6425
11158TIP3    H254966   2.165   6.759  15.641 -0.1320 -0.0185  0.6081
11159TIP3   OH254967   3.245   6.568  17.196 -0.2596  0.0936 -0.2953
11159TIP3    H154968   3.313   6.627  17.165 -1.9130  2.3530  0.1201
11159TIP3    H254969   3.188   6.554  17.120 -0.9882  0.7382  0.1095
11160TIP3   OH254970   6.710   2.694   4.368 -0.4156 -0.2443 -1.3023
11160TIP3    H154971   6.772   2.731   4.431  0.6027  0.6888 -2.7644
11160TIP3    H254972   6.667   2.623   4.415  2.3009 -1.4588 -0.4104
11161TIP3   OH254973   1.800   3.386   1.588 -0.0552  0.3800 -0.2164
11161TIP3    H154974   1.755   3.328   1.526  0.5617 -0.4292  0.0869
11161TIP3    H254975   1.825   3.462   1.536 -1.8501  0.9039 -0.3779
11162TIP3   OH254976   1.860   0.781  16.564 -0.5898 -0.6104 -0.1621
11162TIP3    H154977   1.915   0.793  16.641 -0.1904  1.0216 -0.6819
11162TIP3    H254978   1.912   0.814  16.491 -1.4925 -0.8809 -0.9524
11163TIP3   OH254979   6.805   2.392  12.628  0.0166 -0.2856 -0.2021
11163TIP3    H154980   6.791   2.328  12.698 -1.1329 -0.5296 -0.6331
11163TIP3    H254981   6.779   2.346  12.548  0.5958  0.2410 -0.6970
11164TIP3   OH254982   4.221   2.386  11.154  0.7432 -0.1913  0.4195
11164TIP3    H154983   4.273   2.369  11.076 -0.0945 -0.4929 -0.0923
11164TIP3    H254984   4.255   2.468  11.189  1.5970 -0.4177  0.1430
11165TIP3   OH254985   3.872   5.448  15.871  0.1621  0.3496 -0.0489
11165TIP3    H154986   3.939   5.495  15.821  0.1025 -1.6543 -2.2115
11165TIP3    H254987   3.912   5.363  15.891 -0.5721  0.3543  1.6276
11166TIP3   OH254988   0.429   4.031   3.972 -0.0989  0.0549  0.8486
11166TIP3    H154989   0.367   4.006   4.041 -0.9788 -0.1783 -0.0079
11166TIP3    H254990   0.383   4.099   3.923  0.1741 -0.3858 -0.0311
11167TIP3   OH254991   1.148   2.566   3.106  0.2823 -0.2212 -0.6410
11167TIP3    H154992   1.062   2.557   3.146  1.0684  1.4134  1.6876
11167TIP3    H254993   1.173   2.477   3.082 -0.8909 -1.1614  1.3332
11168TIP3   OH254994   5.832   3.314   5.832  0.3875  0.2947  0.6588
11168TIP3    H154995   5.867   3.263   5.758  1.9187  1.2595  0.6848
11168TIP3    H254996   5.738   3.322   5.813  0.8276  0.9935 -1.4977
11169TIP3   OH254997   2.736   0.112   4.040  0.6587  0.0991 -0.4681
11169TIP3    H154998   2.745   0.038   3.980 -0.4290 -1.3919  1.1285
11169TIP3    H254999   2.818   0.114   4.089 -0.4209 -2.0664  1.5995
11170TIP3   OH255000   2.016   2.599  15.773 -0.3432  0.6620  0.1555
11170TIP3    H155001   1.934   2.647  15.764  0.5681  2.2544  0.0092
11170TIP3    H255002   2.081   2.665  15.799  0.8030 -0.6364  0.7605
11171TIP3   OH255003   6.333   0.783   4.511 -0.0226  0.4252  0.0321
11171TIP3    H155004   6.394   0.734   4.566  0.1727  0.3458 -0.2479
11171TIP3    H255005   6.385   0.805   4.433  0.1258  1.7851  0.5027
11172TIP3   OH255006   3.283   4.361  17.207 -0.7690  0.0988  0.0841
11172TIP3    H155007   3.318   4.412  17.280  1.1610  0.6994 -1.1545
11172TIP3    H255008   3.274   4.425  17.136 -4.0838 -0.1308  0.1380
11173TIP3   OH255009   0.672   1.110  16.350 -0.1602  0.5524 -0.4654
11173TIP3    H155010   0.721   1.110  16.432  0.3293 -0.8957 -0.7326
11173TIP3    H255011   0.586   1.143  16.373  0.2820  1.1319  0.4240
11174TIP3   OH255012   6.030   4.455  11.944 -0.0168 -0.3097  0.5436
11174TIP3    H155013   6.076   4.490  11.868 -0.7989 -1.0522 -0.2934
11174TIP3    H255014   6.094   4.398  11.986  0.6316  0.6031  0.8255
11175TIP3   OH255015   1.894   1.122   1.871  0.0162  0.3425 -0.1492
11175TIP3    H155016   1.827   1.055   1.886  0.4286 -0.5572 -1.9543
11175TIP3    H255017   1.959   1.107   1.939 -0.0111 -0.9994 -0.3858
11176TIP3   OH255018   6.794   4.469   5.421 -0.1008 -0.0524 -0.1143
11176TIP3    H155019   6.868   4.456   5.480  0.2932 -0.2414 -0.6497
11176TIP3    H255020   6.803   4.401   5.355 -0.7316 -0.0505 -0.2041
11177TIP3   OH255021   5.826   6.610   5.382  0.2385  0.0688 -0.4111
11177TIP3    H155022   5.736   6.582   5.362  1.2352 -3.7094 -0.4276
11177TIP3    H255023   5.852   6.664   5.307 -2.0349  1.5081 -0.2649
11178TIP3   OH255024   4.544   4.039   3.249 -0.6594 -0.8667  0.3671
11178TIP3    H155025   4.557   4.131   3.223 -0.1237 -1.3194 -1.0592
11178TIP3    H255026   4.631   4.008   3.272 -0.9080 -0.9038  1.2812
11179TIP3   OH255027   0.591   6.387   6.189 -0.1439  0.0671  0.5306
11179TIP3    H155028   0.631   6.379   6.276  0.8074 -0.9600  0.0322
11179TIP3    H255029   0.666   6.392   6.129 -0.7894  0.8805 -0.2276
11180TIP3   OH255030   3.520   2.010  11.474  0.2137 -0.0562 -0.4017
11180TIP3    H155031   3.601   1.960  11.456  0.0369  0.0456 -1.5534
11180TIP3    H255032   3.539   2.058  11.554  1.0936 -0.4917 -0.3343
11181TIP3   OH255033   5.814   3.259   6.156 -0.1360 -0.4944 -0.3032
11181TIP3    H155034   5.838   3.329   6.095  3.6172  0.2050  1.6887
11181TIP3    H255035   5.870   3.273   6.232 -0.8561 -4.3625  1.1627
11182TIP3   OH255036   6.772   2.939  13.898  0.0316 -0.0213 -0.1861
11182TIP3    H155037   6.705   2.897  13.845 -1.2632  1.0441  0.5517
11182TIP3    H255038   6.817   2.999  13.837 -0.0359 -0.3368 -0.5515
11183TIP3   OH255039   0.278   5.221   2.792 -0.1954 -0.0016 -0.1932
11183TIP3    H155040   0.338   5.178   2.730  1.5921  1.1787  0.6526
11183TIP3    H255041   0.313   5.309   2.802 -3.4005  1.5423 -1.3815
11184TIP3   OH255042   4.347   5.259   5.165  0.2472  0.1163  0.0505
11184TIP3    H155043   4.338   5.196   5.237  1.5460  1.6440  1.6288
11184TIP3    H255044   4.289   5.332   5.190  2.4023  1.6787  0.8002
11185TIP3   OH255045   0.584   1.815  15.953  0.6120 -0.8467  0.3409
11185TIP3    H155046   0.674   1.788  15.974  0.5650 -1.1485  0.1425
11185TIP3    H255047   0.571   1.789  15.862 -0.0901 -1.8766  0.7270
11186TIP3   OH255048   5.040   3.237   2.962 -0.4071 -0.0112  0.2927
11186TIP3    H155049   5.005   3.300   2.899 -1.1092 -0.3149  0.3752
11186TIP3    H255050   5.086   3.291   3.026  1.0563  0.2473 -0.9240
11187TIP3   OH255051   0.154   1.125   2.953 -0.1477 -0.6874 -0.1594
11187TIP3    H155052   0.067   1.149   2.986 -0.2960  1.6239 -1.9697
11187TIP3    H255053   0.213   1.191   2.988  1.0074 -2.3556  1.2176
11188TIP3   OH255054   1.173   4.166   2.759  0.3637 -0.0066 -0.0737
11188TIP3    H155055   1.149   4.144   2.849 -0.7831 -1.7405 -0.7493
11188TIP3    H255056   1.097   4.215   2.726  0.6073  0.2637 -0.2348
11189TIP3   OH255057   0.611   4.573  15.073  0.3143 -0.1477 -0.3744
11189TIP3    H155058   0.531   4.577  15.019  0.1606 -1.4319 -0.2675
11189TIP3    H255059   0.657   4.496  15.041  0.9188 -0.1085  0.3869
11190TIP3   OH255060   4.227   1.199   6.286 -0.0480  0.0619 -0.2760
11190TIP3    H155061   4.274   1.212   6.204 -0.9761  1.0811 -0.6775
11190TIP3    H255062   4.140   1.170   6.259 -0.1215 -0.3395  0.3829
11191TIP3   OH255063   4.059   0.211  12.095 -0.2332  0.7952  0.5988
11191TIP3    H155064   4.146   0.225  12.133  0.5778  1.4509 -1.3417
11191TIP3    H255065   4.044   0.117  12.102  0.3756  0.7489  1.4597
11192TIP3   OH255066   4.889   5.689  11.572 -0.0144  0.4859  0.2355
11192TIP3    H155067   4.859   5.644  11.651  0.0275 -1.7163 -0.9285
11192TIP3    H255068   4.983   5.673  11.570 -0.2496 -0.8333 -1.0557
11193TIP3   OH255069   4.842   5.669   6.418  0.2412  0.0362 -1.1371
11193TIP3    H155070   4.934   5.676   6.443  0.1972  0.8104 -1.1536
11193TIP3    H255071   4.813   5.586   6.454  1.2915 -0.8599 -2.2610
11194TIP3   OH255072   4.336   1.505   2.185  0.3492 -0.3303 -0.2272
11194TIP3    H155073   4.285   1.587   2.183  0.1633 -0.2321  2.8311
11194TIP3    H255074   4.427   1.533   2.180  0.4602  0.5090  3.3413
11195TIP3   OH255075   6.092   1.328   4.295  0.3097  0.2638  0.3086
11195TIP3    H155076   6.034   1.364   4.362  1.2531  1.8119  0.3526
11195TIP3    H255077   6.164   1.290   4.344  1.1708  1.6980  0.2215
11196TIP3   OH255078   1.109   3.116  13.545  0.6097 -0.7640 -0.0013
11196TIP3    H155079   1.128   3.022  13.548 -0.2043 -0.9321  0.5628
11196TIP3    H255080   1.013   3.121  13.554  0.6201  0.1067 -0.2741
11197TIP3   OH255081   0.776   5.002   6.256  0.5282  0.3683  0.3825
11197TIP3    H155082   0.864   5.029   6.282  0.6228  0.1236  0.3113
11197TIP3    H255083   0.774   4.908   6.270  0.8274  0.1018 -1.2394
11198TIP3   OH255084   6.113   2.917  14.486  0.9598 -0.0479  0.1240
11198TIP3    H155085   6.021   2.908  14.459  0.8712  3.1422 -1.0646
11198TIP3    H255086   6.160   2.855  14.429 -0.2102 -0.0240 -0.9188
11199TIP3   OH255087   4.838   3.447   3.188 -0.9014 -0.2479  0.0358
11199TIP3    H155088   4.851   3.539   3.162  0.9227 -0.0520  1.4425
11199TIP3    H255089   4.830   3.451   3.283  2.3247 -1.7526  0.5064
11200TIP3   OH255090   1.905   0.729  11.507  0.4235  0.2273  0.3668
11200TIP3    H155091   1.952   0.722  11.589  0.0526  0.4628  0.6069
11200TIP3    H255092   1.817   0.698  11.527  0.4440 -0.1022 -0.0446
11201TIP3   OH255093   5.793   5.803  14.881 -0.3839 -0.6195 -0.2961
11201TIP3    H155094   5.707   5.834  14.853  1.0163  2.4878 -1.6391
11201TIP3    H255095   5.803   5.836  14.970 -1.5567 -3.4086  0.9974
11202TIP3   OH255096   2.621   3.139  10.214 -0.1045 -0.3036 -0.4251
11202TIP3    H155097   2.540   3.091  10.234  0.2578  0.0587  2.4091
11202TIP3    H255098   2.596   3.231  10.221  0.5406 -0.1894  0.6905
11203TIP3   OH255099   6.256   2.847   3.516 -0.6865  0.1945  0.4461
11203TIP3    H155100   6.213   2.923   3.477 -0.1333  0.9772  1.2989
11203TIP3    H255101   6.216   2.772   3.473 -0.9221  0.9761 -0.7529
11204TIP3   OH255102   0.816   0.246   3.977 -0.7912  0.7663 -0.5222
11204TIP3    H155103   0.812   0.278   3.886 -1.3070 -0.5482 -0.9813
11204TIP3    H255104   0.872   0.168   3.972 -1.4338  0.2454  0.1469
11205TIP3   OH255105   3.093   1.207  14.027 -0.7503  0.3898  0.7799
11205TIP3    H155106   3.052   1.249  13.952 -0.9040 -0.0571  0.6119
11205TIP3    H255107   3.156   1.271  14.059 -0.3552  0.4103 -0.0103
11206TIP3   OH255108   0.932   6.623  14.323 -0.5515  0.1708  0.2155
11206TIP3    H155109   1.013   6.647  14.368 -0.7273  1.1560  0.0307
11206TIP3    H255110   0.938   6.528  14.312 -0.5507 -0.1445  2.4038
11207TIP3   OH255111   1.337   0.082   4.885  0.5726 -0.2753  0.2076
11207TIP3    H155112   1.300   0.093   4.797 -0.3837  1.6539  0.8200
11207TIP3    H255113   1.310  -0.006   4.911 -1.3939  0.1062 -0.4122
11208TIP3   OH255114   3.467   4.081  14.955 -0.1603 -0.7051  0.0693
11208TIP3    H155115   3.536   4.015  14.953 -0.6753 -1.3206  1.4876
11208TIP3    H255116   3.420   4.068  14.872  1.8670  0.2911 -1.3376
11209TIP3   OH255117   1.344   2.860   0.159  0.0477  0.4965  0.2139
11209TIP3    H155118   1.423   2.906   0.188  0.4079 -1.0473  1.8327
11209TIP3    H255119   1.377   2.778   0.120 -0.7039  0.4063 -0.2582
11210TIP3   OH255120   6.752   0.223  12.603 -0.0364  0.1222 -0.5657
11210TIP3    H155121   6.726   0.144  12.650 -0.2774 -0.2371 -1.2860
11210TIP3    H255122   6.778   0.191  12.516  0.5473  0.7515 -0.6270
11211TIP3   OH255123   3.483   6.064  13.459  0.3396  0.2039  0.5136
11211TIP3    H155124   3.428   6.070  13.537 -0.2400  0.2799  0.1074
11211TIP3    H255125   3.455   6.137  13.404  1.7549  1.0315  0.8534
11212TIP3   OH255126   3.950   6.288   5.940 -0.0733  0.1572  0.3062
11212TIP3    H155127   3.888   6.265   5.870 -0.2640 -1.8109  1.0399
11212TIP3    H255128   3.911   6.249   6.018  1.3581  0.1861  1.0551
11213TIP3   OH255129   1.366   4.804  11.658  0.0849  0.0401 -0.3269
11213TIP3    H155130   1.274   4.830  11.648  0.0658 -0.3949 -1.3397
11213TIP3    H255131   1.411   4.886  11.680 -0.1840  0.7329 -2.1721
11214TIP3   OH255132   4.767   6.576  12.415 -0.2949 -0.5134  0.3723
11214TIP3    H155133   4.805   6.488  12.414  1.4721  0.1555  2.0058
11214TIP3    H255134   4.783   6.608  12.504 -1.5799  1.1938  0.0490
11215TIP3   OH255135   4.902   4.849   3.500 -0.2718  0.1558 -0.0383
11215TIP3    H155136   4.955   4.777   3.466  0.3204 -0.0769  1.3254
11215TIP3    H255137   4.937   4.927   3.457  1.2482  0.0130  0.8841
11216TIP3   OH255138   5.663   0.385  11.944  0.2551  1.0044  1.0479
11216TIP3    H155139   5.575   0.420  11.927 -0.4046 -1.0312 -0.1831
11216TIP3    H255140   5.722   0.448  11.903 -0.8626  0.8481 -0.9657
11217TIP3   OH255141   1.349   4.490  15.600 -0.1997 -0.2578  0.4735
11217TIP3    H155142   1.360   4.411  15.653  0.5390 -0.6109 -0.1712
11217TIP3    H255143   1.397   4.558  15.647  0.5979 -0.6082  0.1816
11218TIP3   OH255144   1.689   3.243   3.063  0.4846 -0.6627  0.1519
11218TIP3    H155145   1.755   3.312   3.067  0.5695 -0.5869 -1.6797
11218TIP3    H255146   1.622   3.271   3.126 -0.0265  1.7000 -1.3126
11219TIP3   OH255147   1.221   1.229  11.243 -0.4880  0.0106 -0.0602
11219TIP3    H155148   1.236   1.147  11.196 -3.4802 -1.2902  0.9846
11219TIP3    H255149   1.302   1.279  11.232  0.9445 -2.5055 -1.8654
11220TIP3   OH255150   4.799   1.804  15.112  0.4248  0.0704 -0.2525
11220TIP3    H155151   4.849   1.759  15.044  1.3553  0.9606 -0.1760
11220TIP3    H255152   4.824   1.761  15.194  1.4013  0.7655 -0.1661
11221TIP3   OH255153   2.381   4.317  14.232 -0.0070 -0.1085  0.1603
11221TIP3    H155154   2.316   4.359  14.176  0.1691  1.1999  0.8911
11221TIP3    H255155   2.451   4.291  14.173 -0.5247 -0.1681 -0.4330
11222TIP3   OH255156   1.153   5.412  12.536  0.0661 -0.2931 -0.1313
11222TIP3    H155157   1.236   5.399  12.490 -1.1513 -1.0323 -2.2596
11222TIP3    H255158   1.173   5.392  12.628  2.0893 -1.0180 -0.6792
11223TIP3   OH255159   0.525   0.959   5.214  0.6617  0.5632  0.1612
11223TIP3    H155160   0.443   1.007   5.202 -0.2346 -0.8855  0.2339
11223TIP3    H255161   0.541   0.918   5.129  1.5341  1.1484  0.0311
11224TIP3   OH255162   4.821   4.751  12.595  0.5439 -0.0888 -0.2313
11224TIP3    H155163   4.821   4.832  12.646  0.3869 -0.5266  0.4880
11224TIP3    H255164   4.908   4.714  12.609  0.7579  0.1607 -0.8968
11225TIP3   OH255165   2.012   0.291   1.517  0.1759  0.1816 -0.0943
11225TIP3    H155166   1.933   0.313   1.468 -0.3497 -0.4638  0.4284
11225TIP3    H255167   2.010   0.349   1.593 -0.3516 -0.5257  0.4471
11226TIP3   OH255168   6.567   2.575  15.832  0.4427  0.1195 -0.2303
11226TIP3    H155169   6.613   2.528  15.902  0.6824  0.2843 -0.2767
11226TIP3    H255170   6.525   2.649  15.877 -0.0485 -0.2175 -0.1349
11227TIP3   OH255171   2.772   4.892  11.193  0.0007 -0.0130  0.6228
11227TIP3    H155172   2.749   4.824  11.130  0.4321  0.0583  0.3864
11227TIP3    H255173   2.865   4.908  11.178 -0.2705  1.1711  0.1524
11228TIP3   OH255174   4.284   2.341   3.636  0.1681 -0.2274 -0.1160
11228TIP3    H155175   4.247   2.345   3.548  0.4439 -2.2498 -0.3544
11228TIP3    H255176   4.356   2.405   3.635  0.3137 -0.3920 -1.4199
11229TIP3   OH255177   1.586   6.384   2.071  0.6500 -0.7077 -0.6275
11229TIP3    H155178   1.635   6.357   2.149  0.2758 -1.2127 -0.5602
11229TIP3    H255179   1.645   6.369   1.998  0.2727 -2.2443 -0.6468
11230TIP3   OH255180   2.653   2.442  15.435 -0.5153  0.0138  0.1277
11230TIP3    H155181   2.584   2.406  15.491  0.9125 -1.6689  0.8746
11230TIP3    H255182   2.607   2.502  15.377 -2.3317  0.4278  1.8699
11231TIP3   OH255183   5.901   6.691  14.325  0.9096  0.5577  0.1671
11231TIP3    H155184   5.928   6.783  14.315  1.4853  0.3896  0.1574
11231TIP3    H255185   5.819   6.685  14.276  1.0567  0.9834 -0.1421
11232TIP3   OH255186   0.968   0.045   2.587  0.0683 -0.5974 -0.1777
11232TIP3    H155187   0.935   0.016   2.672 -0.1360 -1.7644 -0.6366
11232TIP3    H255188   0.889   0.054   2.533  0.2030  0.0828 -0.2725
11233TIP3   OH255189   2.898   5.345  13.029 -0.0060  0.1352 -0.1555
11233TIP3    H155190   2.932   5.432  13.048  0.6963 -0.2432  0.3945
11233TIP3    H255191   2.816   5.340  13.078 -0.1390  0.5530 -0.3385
11234TIP3   OH255192   6.662   0.785   1.531  0.3050 -0.2704 -0.0581
11234TIP3    H155193   6.662   0.719   1.600  1.2878  1.4484  1.6994
11234TIP3    H255194   6.735   0.760   1.474 -0.7725 -1.9358 -0.7871
11235TIP3   OH255195   4.500   4.349  11.408  0.0569  0.0280  0.6195
11235TIP3    H155196   4.560   4.373  11.337 -0.5735  1.2031  0.4601
11235TIP3    H255197   4.460   4.267  11.379  0.3745  0.0936 -0.0247
11236TIP3   OH255198   2.252   1.020   5.998  0.4519 -0.2307  0.7964
11236TIP3    H155199   2.247   1.068   6.080  0.6656 -0.9791  1.2536
11236TIP3    H255200   2.256   0.928   6.024 -1.5898 -0.6189 -0.1031
11237TIP3   OH255201   4.262   5.591   5.110  0.2813 -0.2614  0.2775
11237TIP3    H155202   4.337   5.646   5.088 -0.2539  0.3444 -0.0730
11237TIP3    H255203   4.259   5.590   5.205  1.1551 -0.8782  0.3077
11238TIP3   OH255204   2.901   6.304   3.775 -0.3864  0.0624 -0.4959
11238TIP3    H155205   2.815   6.328   3.741 -1.2449 -1.6379  0.3789
11238TIP3    H255206   2.952   6.385   3.771 -2.6995  1.6829  1.1025
11239TIP3   OH255207   6.345   2.417   4.344  0.3319 -0.0484 -0.0169
11239TIP3    H155208   6.363   2.327   4.315 -0.9360 -1.0724  2.1306
11239TIP3    H255209   6.276   2.448   4.285  1.8031  0.1651 -1.7459
11240TIP3   OH255210   2.245   1.722  13.732 -0.1448  0.2541 -0.9799
11240TIP3    H155211   2.175   1.760  13.785 -0.0116 -1.2923  0.3930
11240TIP3    H255212   2.319   1.782  13.744  0.1955 -0.5361  1.4955
11241TIP3   OH255213   0.489   3.284   6.421  0.0360  0.4280 -0.1047
11241TIP3    H155214   0.521   3.329   6.499 -2.0374  2.3389 -0.2578
11241TIP3    H255215   0.500   3.348   6.350 -1.1435 -0.0351 -0.7315
11242TIP3   OH255216   0.450   1.266   2.117  0.0558 -0.7447  0.2247
11242TIP3    H155217   0.398   1.228   2.187 -0.8045 -0.4793 -0.2581
11242TIP3    H255218   0.531   1.214   2.115 -0.2658 -1.2664  0.8654
11243TIP3   OH255219   1.553   1.922   3.533  0.5486  0.1631 -0.2131
11243TIP3    H155220   1.523   1.833   3.550 -0.6706  0.6773  0.4821
11243TIP3    H255221   1.485   1.960   3.477 -0.9076  1.7550  2.3888
11244TIP3   OH255222   0.769   1.217   4.572  0.3506  0.1491 -0.4020
11244TIP3    H155223   0.824   1.143   4.599  0.1552  0.9214  2.4084
11244TIP3    H255224   0.802   1.291   4.622  0.1411  1.9111 -2.6847
11245TIP3   OH255225   0.662   1.065   3.604  0.6631 -0.1608 -0.4195
11245TIP3    H155226   0.712   1.137   3.568  0.6007 -0.2430 -0.6699
11245TIP3    H255227   0.608   1.105   3.673  2.3180 -0.3287  1.0687
11246TIP3   OH255228   5.831   1.795   1.391 -0.0212 -0.6581  0.0110
11246TIP3    H155229   5.831   1.864   1.326 -0.5124 -1.3438 -0.7293
11246TIP3    H255230   5.759   1.737   1.366  0.3811 -1.4454  0.6090
11247TIP3   OH255231   4.871   2.897   2.628  0.3872  0.2995 -0.0242
11247TIP3    H155232   4.822   2.819   2.603  0.5968  0.7784 -2.1426
11247TIP3    H255233   4.808   2.969   2.620  0.7667  0.6068 -0.3139
11248TIP3   OH255234   2.646   5.426  16.616  0.3236  0.4100 -0.0958
11248TIP3    H155235   2.728   5.390  16.583 -0.1643  0.6099 -1.6371
11248TIP3    H255236   2.671   5.483  16.688  1.6735  1.3677 -1.2697
11249TIP3   OH255237   6.755   1.293   5.100 -0.8374  0.2656  0.3509
11249TIP3    H155238   6.696   1.265   5.170 -1.2747 -2.0930 -0.8374
11249TIP3    H255239   6.790   1.211   5.064 -0.2267  1.3892 -1.8349
11250TIP3   OH255240   2.092   1.972  13.981  0.0474  0.6590 -0.0987
11250TIP3    H155241   2.060   2.023  13.907 -0.6176  0.3574 -0.0212
11250TIP3    H255242   2.145   2.034  14.031 -0.5380  1.2090 -0.1471
11251TIP3   OH255243   1.539   3.598   0.273 -0.8298 -0.2754  0.3177
11251TIP3    H155244   1.566   3.611   0.182 -0.7279 -1.0666  0.2301
11251TIP3    H255245   1.547   3.685   0.313  2.7012 -0.5765  0.5442
11252TIP3   OH255246   3.907   6.546   4.531 -0.4160 -0.0939 -0.3713
11252TIP3    H155247   3.907   6.450   4.538  1.1005 -0.2102 -1.3864
11252TIP3    H255248   3.863   6.576   4.610 -1.3621 -1.6322 -0.2657
11253TIP3   OH255249   0.653   3.422  15.379  0.3415 -0.8625 -0.4088
11253TIP3    H155250   0.709   3.460  15.311 -0.1610  0.0620 -0.3217
11253TIP3    H255251   0.687   3.456  15.461  1.1942 -2.2965 -0.1410
11254TIP3   OH255252   0.211   3.137  15.680 -0.2464  0.0033  0.4374
11254TIP3    H155253   0.216   3.186  15.598 -0.8708  0.3471  0.6046
11254TIP3    H255254   0.296   3.092  15.686 -0.2155 -0.0649 -0.4174
11255TIP3   OH255255   6.791   4.054  16.306  0.9779 -0.1788 -0.1365
11255TIP3    H155256   6.748   4.139  16.303 -0.2839 -0.8183 -2.2662
11255TIP3    H255257   6.828   4.049  16.394 -0.6440  1.7241  0.7340
11256TIP3   OH255258   5.601   0.137  10.993 -0.1216  0.3268  0.4646
11256TIP3    H155259   5.659   0.201  11.034 -1.5772  1.9199  0.1246
11256TIP3    H255260   5.556   0.185  10.923 -2.1371 -0.7219  0.9534
11257TIP3   OH255261   4.984   3.543  12.082 -0.3273 -0.2068 -0.2295
11257TIP3    H155262   5.074   3.513  12.075  0.3041  1.0250  1.7796
11257TIP3    H255263   4.938   3.471  12.124  0.0551 -0.2814  0.0672
11258TIP3   OH255264   0.383   6.824  11.592  0.5727  0.1689 -0.4433
11258TIP3    H155265   0.311   6.774  11.631  1.4314 -0.4680  0.3751
11258TIP3    H255266   0.461   6.794  11.639  1.1180  2.3357  0.1304
11259TIP3   OH255267   1.823   4.602  16.302  0.4511 -0.0050 -0.1953
11259TIP3    H155268   1.863   4.534  16.357  0.1247  0.7721  1.0350
11259TIP3    H255269   1.838   4.684  16.350  0.6190  0.7786 -1.5273
11260TIP3   OH255270   6.389   3.849   0.586 -0.1716 -0.1584  0.0096
11260TIP3    H155271   6.425   3.914   0.525 -1.1517  0.7932  0.4040
11260TIP3    H255272   6.465   3.804   0.621  0.4919  0.2762 -0.8244
11261TIP3   OH255273   6.023   5.052  17.088  0.0198 -0.5859 -0.2555
11261TIP3    H155274   6.096   5.098  17.130  0.6846 -1.5455 -0.3307
11261TIP3    H255275   6.050   5.040  16.998  0.2599 -1.9199 -0.0248
11262TIP3   OH255276   5.831   3.157  12.677  0.1899  0.4036 -0.7991
11262TIP3    H155277   5.877   3.237  12.702  0.7679 -0.2539  0.3444
11262TIP3    H255278   5.750   3.188  12.636  0.0985  1.5829  0.1990
11263TIP3   OH255279   1.208   6.572   6.121  0.1435  0.1751  0.6048
11263TIP3    H155280   1.241   6.483   6.111  0.6624  0.4790 -0.5691
11263TIP3    H255281   1.144   6.582   6.051 -0.6163  0.4153  1.3228
11264TIP3   OH255282   2.249   4.190   0.788  0.3452  0.1887  0.1811
11264TIP3    H155283   2.245   4.172   0.882 -2.8010  1.6918  0.4632
11264TIP3    H255284   2.334   4.233   0.775 -0.7039  3.6542  3.1722
11265TIP3   OH255285   2.975   3.990  12.872  0.6218  0.3700 -0.4421
11265TIP3    H155286   2.979   4.032  12.786 -0.6329  0.9099 -0.2601
11265TIP3    H255287   3.028   4.046  12.928  1.9303 -0.3016 -0.9616
11266TIP3   OH255288   1.488   3.311  13.244 -0.1226  0.4338 -0.3855
11266TIP3    H155289   1.572   3.270  13.263 -0.3301  0.4348  0.5783
11266TIP3    H255290   1.497   3.401  13.277 -1.2832 -0.2369  1.9702
11267TIP3   OH255291   4.517   3.911   1.549  0.2366  0.1787  0.1920
11267TIP3    H155292   4.610   3.924   1.568  0.4601 -1.7205  0.6562
11267TIP3    H255293   4.514   3.891   1.455  0.2955  0.3003  0.1647
11268TIP3   OH255294   3.026   2.490  15.098 -0.2100  0.3390 -0.0028
11268TIP3    H155295   2.931   2.493  15.108 -0.0671  0.1849  1.5953
11268TIP3    H255296   3.061   2.498  15.187  1.3434  2.3225 -0.6993
11269TIP3   OH255297   4.695   1.118   5.111 -0.3858  0.6029  0.1884
11269TIP3    H155298   4.775   1.163   5.082 -0.4220  0.7423  0.3025
11269TIP3    H255299   4.713   1.096   5.203 -0.9787  1.7703  0.5935
11270TIP3   OH255300   0.107   1.201   4.073 -0.0936 -0.3361  0.1166
11270TIP3    H155301   0.063   1.229   4.153  0.2992 -0.2720  0.3101
11270TIP3    H255302   0.122   1.281   4.024  1.6949 -0.0862  1.0027
11271TIP3   OH255303   4.701   6.207  12.243 -0.5668  0.1634  0.4627
11271TIP3    H155304   4.657   6.137  12.290 -0.4238 -0.5110 -0.3800
11271TIP3    H255305   4.646   6.285  12.258 -0.4589  0.0031  1.8132
11272TIP3   OH255306   0.265   1.899  12.999 -0.0710  0.0877 -0.3354
11272TIP3    H155307   0.197   1.947  12.953 -0.1968  0.5801  0.3521
11272TIP3    H255308   0.225   1.814  13.020  0.2560 -0.4685 -1.8244
11273TIP3   OH255309   4.853   0.209  13.391 -0.0907 -0.3310 -0.4509
11273TIP3    H155310   4.776   0.265  13.401 -0.5201 -1.2730  2.1293
11273TIP3    H255311   4.926   0.271  13.380 -0.8199  0.6824  0.2013
11274TIP3   OH255312   6.077   6.199   4.746 -0.1668 -0.6099 -1.1274
11274TIP3    H155313   6.055   6.216   4.837 -0.7409  1.1696 -1.5553
11274TIP3    H255314   6.081   6.104   4.739 -0.0717 -0.7713  0.7457
11275TIP3   OH255315   4.873   5.689  11.258  0.1931  0.4162  0.5649
11275TIP3    H155316   4.816   5.697  11.181 -0.0861 -0.6793  0.6421
11275TIP3    H255317   4.883   5.594  11.271  3.4641  0.4642 -0.5313
11276TIP3   OH255318   2.434   6.784  16.551  0.1469 -0.1884  1.1931
11276TIP3    H155319   2.482   6.861  16.520 -0.0019 -0.3171  0.6237
11276TIP3    H255320   2.448   6.783  16.645 -1.2500  1.5192  1.4678
11277TIP3   OH255321   1.714   4.816   1.592  0.3427  0.6089  0.4928
11277TIP3    H155322   1.756   4.730   1.584 -0.4848  0.3420 -1.6637
11277TIP3    H255323   1.740   4.846   1.679 -1.2493 -2.8075  2.3744
11278TIP3   OH255324   1.268   2.447   1.288  0.1858 -0.3380 -0.7236
11278TIP3    H155325   1.356   2.428   1.254  0.7980  2.1688 -0.7366
11278TIP3    H255326   1.219   2.477   1.212  0.1423  0.8093 -0.2546
11279TIP3   OH255327   2.625   3.161   4.762  0.0374  0.3119 -0.2002
11279TIP3    H155328   2.546   3.111   4.738 -0.9163  1.9298 -0.5761
11279TIP3    H255329   2.595   3.222   4.829  0.8729  1.2271 -0.6325
11280TIP3   OH255330   0.093   2.224  16.523  0.2594  0.3166  0.5095
11280TIP3    H155331   0.083   2.139  16.480  0.6938  0.4048  0.2298
11280TIP3    H255332   0.173   2.261  16.485 -0.6789  1.4637 -0.3896
11281TIP3   OH255333   6.533   3.677  16.009  0.3634  0.6227 -0.1757
11281TIP3    H155334   6.543   3.617  16.082  0.3470  0.3116 -0.4269
11281TIP3    H255335   6.614   3.729  16.008  0.2495  0.8092  0.2214
11282TIP3   OH255336   5.067   4.491   4.338  0.1581  0.0195  0.4010
11282TIP3    H155337   5.157   4.523   4.339  0.3239 -0.4393  1.6784
11282TIP3    H255338   5.025   4.537   4.410 -0.2142 -0.9040  0.7870
11283TIP3   OH255339   1.140   2.020  13.265  0.2107  0.1369 -0.1942
11283TIP3    H155340   1.127   2.077  13.190 -0.1343 -0.6468 -0.7476
11283TIP3    H255341   1.101   1.937  13.239  3.4991 -1.4181 -0.7522
11284TIP3   OH255342   3.221   1.082  14.513  0.0233  0.6682 -0.1184
11284TIP3    H155343   3.144   1.135  14.536  0.9402  2.5451 -1.0713
11284TIP3    H255344   3.191   1.026  14.442 -0.9206  0.0633  0.7360
11285TIP3   OH255345   2.756   6.315  10.523 -0.3942  0.4118  0.7282
11285TIP3    H155346   2.741   6.366  10.443  1.7181  0.4861  0.3066
11285TIP3    H255347   2.675   6.268  10.538 -1.1636  1.1468 -0.9202
11286TIP3   OH255348   4.590   0.229  16.920 -0.3103 -0.2548 -0.5032
11286TIP3    H155349   4.547   0.304  16.878  0.1251 -0.2236 -0.9036
11286TIP3    H255350   4.567   0.237  17.013  0.0961  0.6250 -0.4707
11287TIP3   OH255351   3.674   2.913   5.798 -0.2035  0.0812 -0.1296
11287TIP3    H155352   3.593   2.895   5.847  0.6666 -4.0783  0.1617
11287TIP3    H255353   3.720   2.978   5.851 -1.5723 -0.4496  1.8471
11288TIP3   OH255354   5.748   6.443  13.458 -0.1876  0.4829  0.2542
11288TIP3    H155355   5.809   6.461  13.387 -0.9005  0.0817 -0.4794
11288TIP3    H255356   5.718   6.529  13.486 -0.1380  0.6314 -0.1436
11289TIP3   OH255357   1.920   4.476  13.973 -0.0425 -0.1433  0.1560
11289TIP3    H155358   1.911   4.530  13.895 -0.3972 -0.3240  0.0700
11289TIP3    H255359   1.932   4.387  13.939 -1.8066 -0.4655  0.3229
11290TIP3   OH255360   0.660   6.459  12.583 -0.4344  0.0770 -0.3728
11290TIP3    H155361   0.620   6.421  12.504 -0.1605 -0.6913 -0.1568
11290TIP3    H255362   0.592   6.514  12.621 -0.6503  0.2612 -1.0121
11291TIP3   OH255363   1.490   0.634   2.234 -0.1557  0.4964  0.0971
11291TIP3    H155364   1.483   0.563   2.298 -3.7683 -0.5642 -1.2082
11291TIP3    H255365   1.550   0.696   2.274 -0.1216 -1.3246  3.2602
11292TIP3   OH255366   2.071   2.786  13.331  0.2451  0.5178  0.1080
11292TIP3    H155367   2.025   2.779  13.247  1.0980 -0.8151 -0.2798
11292TIP3    H255368   2.021   2.732  13.391 -0.6772  1.9090  0.6319
11293TIP3   OH255369   2.147   2.015   0.355  0.3338 -0.1167  0.5490
11293TIP3    H155370   2.106   2.099   0.336  1.4078  0.4345  0.6089
11293TIP3    H255371   2.101   1.983   0.433 -0.4541  0.1401  0.2060
11294TIP3   OH255372   2.623   2.169  12.021 -0.3802  0.4697  0.1261
11294TIP3    H155373   2.704   2.120  12.007 -0.2423 -0.0253  2.2171
11294TIP3    H255374   2.633   2.248  11.969  0.6025 -0.4558 -1.1508
11295TIP3   OH255375   0.289   0.339   5.558  0.1398 -0.0301  0.1373
11295TIP3    H155376   0.355   0.280   5.595  0.1106 -0.5064 -0.5498
11295TIP3    H255377   0.213   0.284   5.541 -0.5687  0.5839  1.2289
11296TIP3   OH255378   1.917   1.629  16.239  0.1300 -0.2866 -0.4711
11296TIP3    H155379   1.851   1.604  16.174 -1.8955 -0.0403  1.3730
11296TIP3    H255380   1.886   1.713  16.274  1.1165 -0.4404  0.8472
11297TIP3   OH255381   5.660   0.176   5.508 -0.3181  0.1709 -0.3884
11297TIP3    H155382   5.633   0.229   5.434 -0.6024 -1.4107 -1.4758
11297TIP3    H255383   5.756   0.172   5.502 -0.3205  0.2958 -0.4985
11298TIP3   OH255384   6.748   6.138  10.310  0.3422  0.1020  0.3349
11298TIP3    H155385   6.674   6.196  10.327 -0.2719 -0.7367  0.6297
11298TIP3    H255386   6.822   6.180  10.353 -0.0221  0.8086  0.2906
11299TIP3   OH255387   6.353   1.470  13.340  1.0729 -0.3425  0.3764
11299TIP3    H155388   6.292   1.472  13.414 -1.5073  0.8850 -1.5799
11299TIP3    H255389   6.438   1.491  13.377 -0.0957  0.1221  2.9978
11300TIP3   OH255390   6.055   0.987  16.334 -0.3412 -0.1708 -0.2916
11300TIP3    H155391   6.098   0.909  16.300 -1.6161 -1.7703  1.5507
11300TIP3    H255392   6.000   1.017  16.261 -1.0977 -2.0034 -0.5414
11301TIP3   OH255393   2.862   4.475   6.110 -0.1298 -0.3160 -0.0684
11301TIP3    H155394   2.827   4.487   6.198  1.3368  1.8422  0.2878
11301TIP3    H255395   2.924   4.403   6.118  0.0726 -0.0625  0.6935
11302TIP3   OH255396   4.375   5.461   2.079 -0.2897  0.2585 -0.4776
11302TIP3    H155397   4.442   5.491   2.141 -1.9865  0.5322  1.3093
11302TIP3    H255398   4.425   5.424   2.006  1.8298 -0.9566  1.4621
11303TIP3   OH255399   2.233   3.838  14.208 -0.3371 -0.0844  0.2478
11303TIP3    H155400   2.273   3.920  14.236 -0.3348  0.0100 -0.0338
11303TIP3    H255401   2.214   3.792  14.290  1.0482 -0.4641  0.3752
11304TIP3   OH255402   6.514   2.909  15.539  0.0358 -0.6711 -0.0791
11304TIP3    H155403   6.594   2.901  15.592 -0.8778  0.3631  1.5367
11304TIP3    H255404   6.459   2.837  15.569 -0.3369 -0.3108  0.1001
11305TIP3   OH255405   0.973   1.421  14.443  0.0182 -0.3533 -0.2806
11305TIP3    H155406   0.878   1.408  14.442 -0.1771  0.7236  1.1603
11305TIP3    H255407   1.000   1.393  14.530  1.2041 -1.6176 -1.0116
11306TIP3   OH255408   5.657   6.805  15.710 -0.1569 -0.2579 -0.0034
11306TIP3    H155409   5.571   6.765  15.696  0.1676 -0.7686 -0.5514
11306TIP3    H255410   5.643   6.898  15.692 -0.3441 -0.5100 -1.2528
11307TIP3   OH255411   4.308   0.793   2.832 -0.9549  0.1818  0.4183
11307TIP3    H155412   4.384   0.767   2.884 -0.6221  1.7431  0.7729
11307TIP3    H255413   4.345   0.830   2.752 -1.4337 -1.0490 -0.4021
11308TIP3   OH255414   2.597   0.643  10.395 -0.5616  0.5394 -0.2750
11308TIP3    H155415   2.684   0.684  10.402  0.1953 -0.8177 -1.1391
11308TIP3    H255416   2.541   0.697  10.450  0.6073  2.0471 -0.4678
11309TIP3   OH255417   4.668   0.225  11.090  0.3012  0.1369 -0.6985
11309TIP3    H155418   4.746   0.252  11.041  0.0870 -0.4529 -1.3821
11309TIP3    H255419   4.595   0.257  11.037  0.0473  1.9624  0.6490
11310TIP3   OH255420   0.570   1.332  14.356  0.3781  0.3493  0.7315
11310TIP3    H155421   0.511   1.347  14.283  0.3946  2.4602  1.0871
11310TIP3    H255422   0.521   1.277  14.417 -0.7909  1.1303  0.5108
11311TIP3   OH255423   3.633   1.468   1.233  0.4269 -0.0186 -0.7128
11311TIP3    H155424   3.586   1.415   1.169  0.9510 -1.0873 -0.2425
11311TIP3    H255425   3.565   1.506   1.289  0.0465 -0.2862 -0.9950
11312TIP3   OH255426   5.689   2.119  14.527  0.0017  0.4998  0.1758
11312TIP3    H155427   5.599   2.112  14.560  0.1203 -1.7328  0.1988
11312TIP3    H255428   5.717   2.207  14.551 -1.9213  0.9911  0.8176
11313TIP3   OH255429   3.235   5.388   3.690 -0.1792 -0.2494 -1.3149
11313TIP3    H155430   3.198   5.468   3.653  0.5026  0.3371 -0.7597
11313TIP3    H255431   3.292   5.418   3.760 -0.0860 -1.2432 -0.9499
11314TIP3   OH255432   5.519   3.965   4.379 -0.2791  0.0240  0.1460
11314TIP3    H155433   5.509   4.056   4.350  1.7911 -0.4022 -2.1719
11314TIP3    H255434   5.583   3.971   4.451 -1.3152  0.5044  1.0679
11315TIP3   OH255435   1.526   4.558   0.500 -0.6514  0.3493  0.8345
11315TIP3    H155436   1.615   4.588   0.479 -0.8876 -0.3399 -1.4926
11315TIP3    H255437   1.471   4.603   0.436 -1.5520 -1.6360  0.1506
11316TIP3   OH255438   4.612   0.282   2.162  0.0213  0.3577 -0.1801
11316TIP3    H155439   4.657   0.287   2.247  0.8079  0.3576 -0.5888
11316TIP3    H255440   4.597   0.188   2.148  1.3502  0.2128 -0.7768
11317TIP3   OH255441   6.818   2.492   5.593  0.4052 -0.3703  0.3957
11317TIP3    H155442   6.787   2.582   5.607  1.1048 -0.1471  0.5368
11317TIP3    H255443   6.738   2.443   5.572  0.3401  0.9875 -3.4276
11318TIP3   OH255444   0.944   4.966  16.830  0.0707 -0.2804 -0.7368
11318TIP3    H155445   0.885   4.933  16.898  0.0273 -0.3409 -0.8049
11318TIP3    H255446   0.934   4.904  16.757  2.0589 -1.7148  0.1361
11319TIP3   OH255447   0.950   1.129   0.881 -0.0145  0.0896  0.1041
11319TIP3    H155448   0.921   1.219   0.868 -0.9513 -0.2709 -0.4341
11319TIP3    H255449   0.948   1.116   0.976 -0.6143  0.3962  0.1346
11320TIP3   OH255450   4.235   5.437   5.425  0.2176 -0.0931 -0.2507
11320TIP3    H155451   4.154   5.396   5.396 -1.3455  1.8762  1.0156
11320TIP3    H255452   4.226   5.445   5.520  1.4388  1.0368 -0.1850
11321TIP3   OH255453   5.360   2.664  13.486  0.0218 -0.3767  0.2026
11321TIP3    H155454   5.284   2.656  13.428  0.5515 -1.8467 -0.3338
11321TIP3    H255455   5.382   2.757  13.483 -0.9356 -0.1557 -0.7075
11322TIP3   OH255456   3.281   1.515  13.038  0.1841  0.5636  0.0869
11322TIP3    H155457   3.213   1.550  12.981 -0.3438 -1.2664 -0.4875
11322TIP3    H255458   3.234   1.484  13.116  0.5705  0.7370  0.3940
11323TIP3   OH255459   4.431   6.308  12.777 -0.4241  0.4031  0.0473
11323TIP3    H155460   4.340   6.291  12.803  0.2666 -0.7988  1.9476
11323TIP3    H255461   4.481   6.237  12.818  1.4684  1.4226 -0.3689
11324TIP3   OH255462   2.532   3.708   3.418 -0.1718 -0.1691 -0.4983
11324TIP3    H155463   2.621   3.728   3.387  0.4663 -0.6962  0.9090
11324TIP3    H255464   2.504   3.634   3.364  0.9659 -1.1612  0.2150
11325TIP3   OH255465   5.145   2.290  14.226 -0.2702  0.1587  0.4972
11325TIP3    H155466   5.157   2.371  14.276 -0.6901 -0.3231  1.3960
11325TIP3    H255467   5.051   2.276  14.225 -0.2703  0.1495 -0.4325
11326TIP3   OH255468   5.124   2.817   1.617 -0.4446  0.3003  0.0646
11326TIP3    H155469   5.085   2.735   1.587 -1.0179  0.2620  0.8649
11326TIP3    H255470   5.060   2.884   1.594  0.2195  0.5928 -0.9811
11327TIP3   OH255471   2.740   4.744   1.418  0.3568 -0.1017  0.3835
11327TIP3    H155472   2.783   4.758   1.334 -0.6551 -1.0887 -0.3314
11327TIP3    H255473   2.699   4.657   1.410 -2.5571  1.1347  0.6431
11328TIP3   OH255474   1.048   2.731   0.808 -0.0243 -0.1259 -0.5663
11328TIP3    H155475   1.003   2.749   0.891 -1.1540 -0.2338 -1.1318
11328TIP3    H255476   1.105   2.807   0.794 -0.0083  0.0069  0.1857
11329TIP3   OH255477   5.415   3.557   1.056  0.3633  0.3725  0.3735
11329TIP3    H155478   5.360   3.625   1.017  1.4666  0.4964 -1.0166
11329TIP3    H255479   5.389   3.477   1.011  0.0217  0.0956  1.0495
11330TIP3   OH255480   6.014   5.962   0.235  0.6657  0.2144 -0.2735
11330TIP3    H155481   5.964   5.987   0.158 -0.2101  1.4939  0.6748
11330TIP3    H255482   6.071   6.037   0.252  0.0643  0.4083  0.9564
11331TIP3   OH255483   6.752   6.803  12.674 -0.1708 -0.2267  0.8454
11331TIP3    H155484   6.696   6.725  12.674 -0.6721  0.1333  0.6412
11331TIP3    H255485   6.841   6.768  12.666 -0.4089 -0.7664  0.5003
11332TIP3   OH255486   5.666   5.576  15.373 -0.2667  0.5428 -0.5384
11332TIP3    H155487   5.572   5.575  15.391 -0.2462 -1.2478 -0.3089
11332TIP3    H255488   5.678   5.646  15.309 -1.9220  0.0610 -1.4320
11333TIP3   OH255489   3.680   4.598  11.518  0.7235  0.5884  0.2881
11333TIP3    H155490   3.588   4.574  11.510  0.6919 -0.4764  2.6862
11333TIP3    H255491   3.680   4.692  11.534  0.3818  1.2785 -3.0640
11334TIP3   OH255492   2.596   3.751  17.050  0.2403  0.4083 -0.4188
11334TIP3    H155493   2.644   3.726  16.971  2.7982  2.3056  0.4201
11334TIP3    H255494   2.601   3.673  17.106 -1.4449 -0.8940 -1.9621
11335TIP3   OH255495   0.337   0.850  16.331  0.0491 -0.1871 -0.0525
11335TIP3    H155496   0.290   0.767  16.321 -0.3336 -0.0138  0.2666
11335TIP3    H255497   0.302   0.907  16.263  0.8017 -0.4983 -0.7159
11336TIP3   OH255498   5.158   4.473  11.569 -0.4578 -0.6566 -0.4630
11336TIP3    H155499   5.146   4.526  11.648  0.0528 -0.4097 -0.5484
11336TIP3    H255500   5.071   4.435  11.552 -0.5261 -0.8603  0.3175
11337TIP3   OH255501   6.114   3.197   4.712  0.1633 -0.0575 -0.5473
11337TIP3    H155502   6.083   3.286   4.694 -0.3492  0.1773  1.2839
11337TIP3    H255503   6.037   3.151   4.746  0.9971 -0.4481  0.9080
11338TIP3   OH255504   6.521   0.584  15.847  0.5160 -0.1498  0.2949
11338TIP3    H155505   6.550   0.631  15.769 -0.7486  0.6802  0.2988
11338TIP3    H255506   6.473   0.650  15.898 -0.5559 -1.2232  0.7176
11339TIP3   OH255507   0.755   5.912   5.241 -0.5762 -0.3253  0.0583
11339TIP3    H155508   0.712   5.997   5.230 -2.8696 -1.0217  2.4983
11339TIP3    H255509   0.684   5.849   5.234  0.8849 -1.9702 -0.4666
11340TIP3   OH255510   3.574   6.534  12.701  0.4271  0.3102 -0.4496
11340TIP3    H155511   3.530   6.470  12.757  2.4117  0.9679  2.0575
11340TIP3    H255512   3.504   6.592  12.671 -1.1416 -1.8511 -1.2653
11341TIP3   OH255513   0.273   4.147   1.782 -0.0364 -0.2697 -0.3721
11341TIP3    H155514   0.322   4.105   1.853 -0.8351  1.1427  1.0730
11341TIP3    H255515   0.321   4.229   1.766 -1.5187  0.8575  0.6719
11342TIP3   OH255516   1.500   5.811  14.229 -0.1383  0.3503  0.4001
11342TIP3    H155517   1.497   5.891  14.282  0.5718  0.9772 -0.4553
11342TIP3    H255518   1.594   5.798  14.213 -0.1701 -1.2391  1.3550
11343TIP3   OH255519   3.925   1.378  11.249 -0.2087  0.0805 -0.3339
11343TIP3    H155520   4.014   1.409  11.265  0.3189 -1.1128 -0.8318
11343TIP3    H255521   3.934   1.315  11.178 -1.9251  2.3818 -2.8113
11344TIP3   OH255522   0.004   2.491   4.613 -0.9266  0.2043 -0.0511
11344TIP3    H155523  -0.090   2.473   4.608 -1.6753  3.5964 -0.8174
11344TIP3    H255524   0.010   2.571   4.665  1.7766 -0.9850  1.6699
11345TIP3   OH255525   3.059   3.765  12.560 -0.0134  0.9344 -0.0120
11345TIP3    H155526   3.104   3.847  12.539 -0.0930  1.0766  0.3652
11345TIP3    H255527   3.007   3.745  12.482  0.3933  0.9760 -0.3020
11346TIP3   OH255528   5.716   2.634  14.127 -0.0543 -0.2474  0.3428
11346TIP3    H155529   5.677   2.663  14.210  0.5403 -1.5163  1.0915
11346TIP3    H255530   5.705   2.709  14.069 -0.0710  0.8588  1.7030
11347TIP3   OH255531   5.191   5.186   1.508 -0.1428 -0.0074  0.1068
11347TIP3    H155532   5.195   5.103   1.556 -0.1750 -1.1796 -1.8166
11347TIP3    H255533   5.167   5.250   1.574 -0.6202 -1.6064  1.5670
11348TIP3   OH255534   6.742   2.750   5.372  0.7477  0.1823 -0.3381
11348TIP3    H155535   6.770   2.671   5.325 -1.4844 -0.5805 -0.5072
11348TIP3    H255536   6.671   2.720   5.429  0.5523  1.8912  0.3792
11349TIP3   OH255537   6.732   6.807   1.353 -0.1580 -0.0679 -0.1241
11349TIP3    H155538   6.684   6.849   1.282  0.5227  0.9331 -0.0116
11349TIP3    H255539   6.812   6.859   1.363 -0.5516  0.2582  1.8405
11350TIP3   OH255540   6.151   6.711   2.724 -0.0143  0.2954 -0.3162
11350TIP3    H155541   6.091   6.688   2.653  0.8749  0.1914 -1.0591
11350TIP3    H255542   6.124   6.656   2.797 -1.1052  0.5807 -0.4882
11351TIP3   OH255543   2.251   2.032   2.096 -0.1709  0.4683 -0.2454
11351TIP3    H155544   2.243   2.088   2.019  0.2428  1.8782  0.6993
11351TIP3    H255545   2.223   1.946   2.066 -0.0450  0.9878 -1.9591
11352TIP3   OH255546   0.337   4.399  13.916  0.5914  0.2401  0.2763
11352TIP3    H155547   0.327   4.316  13.870  0.1351  0.2961  0.2663
11352TIP3    H255548   0.426   4.428  13.895  0.2301  0.5082 -0.9863
11353TIP3   OH255549   3.521   1.353   5.694 -0.0644 -0.3650 -0.5625
11353TIP3    H155550   3.447   1.316   5.647  1.1810 -2.5806 -0.9140
11353TIP3    H255551   3.501   1.339   5.787 -0.0383 -1.0664 -0.6625
11354TIP3   OH255552   3.229   1.807   4.152  0.4813 -0.1672  0.5696
11354TIP3    H155553   3.245   1.876   4.088 -0.2113 -0.6167 -0.1046
11354TIP3    H255554   3.232   1.726   4.101 -0.4822 -0.5028  1.0187
11355TIP3   OH255555   4.882   4.939   5.370 -0.3333 -0.4329  0.1244
11355TIP3    H155556   4.864   5.031   5.349 -2.7768 -0.8957 -0.1135
11355TIP3    H255557   4.861   4.892   5.289  0.3928 -1.2646  0.4080
11356TIP3   OH255558   1.295   6.568  15.533  0.0420 -0.2360  0.3190
11356TIP3    H155559   1.318   6.503  15.600  0.0972  0.8114  1.3463
11356TIP3    H255560   1.296   6.652  15.580 -3.2251  0.2041 -0.1825
11357TIP3   OH255561   1.359   1.994   3.361  0.1085 -0.3956  0.4665
11357TIP3    H155562   1.376   1.997   3.266  0.1576 -0.4321  0.4741
11357TIP3    H255563   1.266   2.015   3.369  0.4075  0.9899  0.5091
11358TIP3   OH255564   4.561   2.434   0.828  0.1944 -0.4009 -0.2483
11358TIP3    H155565   4.556   2.524   0.796 -1.2230  0.0928  1.2246
11358TIP3    H255566   4.499   2.385   0.773 -1.5381  0.2510  1.0401
11359TIP3   OH255567   4.314   0.693   3.216 -0.2960 -0.6782 -0.2034
11359TIP3    H155568   4.313   0.765   3.153  0.2904 -0.8403 -0.3968
11359TIP3    H255569   4.405   0.664   3.219  0.0942  0.5118  2.0811
11360TIP3   OH255570   3.600   4.121  10.240  0.0532 -0.3226 -0.1482
11360TIP3    H155571   3.596   4.026  10.250  0.5727 -0.4301 -0.8845
11360TIP3    H255572   3.675   4.148  10.293  0.8268 -0.5108 -1.1151
11361TIP3   OH255573   0.352   3.224  11.529  0.0387  0.0318 -0.2565
11361TIP3    H155574   0.401   3.191  11.604  1.5415 -1.1405 -1.6563
11361TIP3    H255575   0.330   3.314  11.551  1.8086  0.2120  0.9441
11362TIP3   OH255576   5.731   3.621   4.564  0.1822  0.5496 -0.0826
11362TIP3    H155577   5.759   3.530   4.551  0.8129  0.5231  1.3282
11362TIP3    H255578   5.641   3.623   4.531  0.6023 -0.2433 -1.3688
11363TIP3   OH255579   5.861   3.615  16.634 -0.4631 -0.1497 -0.6112
11363TIP3    H155580   5.769   3.640  16.638 -0.3241  0.4200 -0.8735
11363TIP3    H255581   5.902   3.684  16.582  0.4318  0.5843  1.0055
11364TIP3   OH255582   5.613   6.583   5.210  0.3566  0.0072  0.3361
11364TIP3    H155583   5.523   6.554   5.200  1.2152 -2.7195 -0.2374
11364TIP3    H255584   5.658   6.548   5.133  2.0966  0.5777  1.0383
11365TIP3   OH255585   0.594   3.720   0.384  0.1796  0.6357  0.0744
11365TIP3    H155586   0.501   3.706   0.403 -0.0524  0.1024 -1.3315
11365TIP3    H255587   0.604   3.690   0.294  1.6161  1.1806  0.0392
11366TIP3   OH255588   3.122   0.495   4.379  0.0350  0.5532  0.3312
11366TIP3    H155589   3.111   0.411   4.423  0.7379 -0.0655 -0.6297
11366TIP3    H255590   3.143   0.557   4.450  0.5518 -0.2934  0.9397
11367TIP3   OH255591   3.287   3.161   3.130  0.0496  0.3719  0.2274
11367TIP3    H155592   3.282   3.071   3.097  1.7177  0.5332 -0.6047
11367TIP3    H255593   3.240   3.159   3.213  1.7051 -1.7878  1.2151
11368TIP3   OH255594   2.287   5.688   0.270 -0.5873 -0.1277  0.2185
11368TIP3    H155595   2.306   5.605   0.314 -1.0972 -0.1635  0.3726
11368TIP3    H255596   2.341   5.752   0.317  0.4097 -0.4885 -0.4008
11369TIP3   OH255597   6.255   1.064   5.513  0.0536  0.0760 -0.3474
11369TIP3    H155598   6.206   1.058   5.596 -0.9719  1.3286 -0.8196
11369TIP3    H255599   6.347   1.057   5.539 -0.3293 -2.3858  0.5746
11370TIP3   OH255600   2.053   1.368   0.837 -0.4183  0.0750  0.6526
11370TIP3    H155601   1.961   1.352   0.856  0.2861 -2.8160  2.0569
11370TIP3    H255602   2.099   1.290   0.867  2.3566  0.6823 -1.5000
11371TIP3   OH255603   4.847   5.165   1.118 -0.0578  0.4101  0.5758
11371TIP3    H155604   4.798   5.246   1.103 -0.1626  0.3734  0.7122
11371TIP3    H255605   4.938   5.190   1.109  0.0541  1.0633  2.8241
11372TIP3   OH255606   4.513   5.686   5.022  0.4871 -0.7210  0.0908
11372TIP3    H155607   4.508   5.694   4.926 -1.3744 -3.1819 -0.0918
11372TIP3    H255608   4.596   5.641   5.037  0.9471 -0.0373 -0.2983
11373TIP3   OH255609   3.746   6.538  15.690  0.2249 -0.1542 -0.8625
11373TIP3    H155610   3.741   6.565  15.782 -2.5149  0.9882 -1.2465
11373TIP3    H255611   3.833   6.564  15.662 -0.1174  2.8600  0.5011
11374TIP3   OH255612   2.735   2.531  14.158 -0.0856  0.6179 -0.4155
11374TIP3    H155613   2.766   2.508  14.070  1.3428  1.8603 -0.2791
11374TIP3    H255614   2.725   2.447  14.203  2.7035  0.0751 -0.6419
11375TIP3   OH255615   1.240   6.257   0.680  0.2943 -0.2779 -0.2856
11375TIP3    H155616   1.312   6.320   0.683  0.2830 -0.2879  0.9287
11375TIP3    H255617   1.278   6.179   0.639  0.3452  0.4524 -1.6714
11376TIP3   OH255618   3.099   2.314   0.995  0.1354 -0.4922  0.0652
11376TIP3    H155619   3.076   2.237   0.944 -2.3761  0.9206 -1.1389
11376TIP3    H255620   3.041   2.310   1.071 -0.8952  0.7344 -0.6070
11377TIP3   OH255621   2.908   4.371   5.148 -0.0286  0.3569 -0.0254
11377TIP3    H155622   2.944   4.427   5.079  2.3470 -0.6750  0.2808
11377TIP3    H255623   2.930   4.282   5.120  0.6133 -0.1105  1.8237
11378TIP3   OH255624   0.088   6.230  14.534 -0.0871 -0.0699  0.1393
11378TIP3    H155625   0.108   6.221  14.441 -0.4002  1.5350 -0.1244
11378TIP3    H255626   0.036   6.310  14.539  1.6020  1.0188  1.9130
11379TIP3   OH255627   3.620   5.917   1.189 -0.3873 -0.3516  0.5107
11379TIP3    H155628   3.619   6.011   1.172  1.1785 -0.0574  1.8071
11379TIP3    H255629   3.630   5.877   1.102 -1.1324  0.6656 -0.0573
11380TIP3   OH255630   5.753   5.812   1.122 -0.4924  0.0756 -0.1915
11380TIP3    H155631   5.776   5.843   1.035 -1.2699  1.0965 -0.0552
11380TIP3    H255632   5.666   5.772   1.111 -0.2697 -0.4686 -0.0217
11381TIP3   OH255633   3.100   5.336   4.020 -0.3826  0.2406 -0.0953
11381TIP3    H155634   3.130   5.427   4.015  2.0983 -0.5475 -1.1346
11381TIP3    H255635   3.086   5.310   3.929  1.9568 -1.2612 -0.1062
11382TIP3   OH255636   4.426   3.640  15.819  0.3528 -0.5382 -0.7937
11382TIP3    H155637   4.422   3.639  15.724 -0.9818 -1.7673 -0.7653
11382TIP3    H255638   4.351   3.586  15.847  2.0729 -2.2244  0.9068
11383TIP3   OH255639   5.726   6.422   2.318  0.3459 -0.0942  0.2147
11383TIP3    H155640   5.806   6.475   2.317  0.4489 -0.2492  0.0864
11383TIP3    H255641   5.705   6.411   2.410  0.4010  0.0548  0.2457
11384TIP3   OH255642   0.102   2.129  15.168  0.8643 -0.3865 -0.1017
11384TIP3    H155643   0.063   2.168  15.090 -0.2627 -1.9421 -0.3778
11384TIP3    H255644   0.191   2.163  15.171  1.5414 -1.5884 -3.0588
11385TIP3   OH255645   1.669   0.683  11.120 -0.5412  0.0948  0.1348
11385TIP3    H155646   1.653   0.602  11.169  2.3798 -0.6703  0.0214
11385TIP3    H255647   1.695   0.747  11.187  1.0939 -0.2689 -0.1065
11386TIP3   OH255648   3.374   3.353  10.379  0.0251 -0.1292  0.3979
11386TIP3    H155649   3.313   3.282  10.401  0.4548 -0.7379 -0.3620
11386TIP3    H255650   3.437   3.354  10.451 -1.0560  0.7377  1.3785
11387TIP3   OH255651   2.852   1.198  16.103  0.8417 -0.3069 -0.0461
11387TIP3    H155652   2.783   1.160  16.048 -0.3652 -0.6898  1.6304
11387TIP3    H255653   2.911   1.124  16.121  0.5078 -0.5132  0.2296
11388TIP3   OH255654   0.872   2.892  13.421  0.1662  0.1032 -0.0915
11388TIP3    H155655   0.920   2.940  13.354  2.5208 -0.5923  0.9964
11388TIP3    H255656   0.829   2.960  13.473  0.7411  0.8340 -0.5504
11389TIP3   OH255657   2.995   0.681   5.588 -0.4255  0.1204 -0.3355
11389TIP3    H155658   3.013   0.587   5.582  0.4571  0.1250  1.4312
11389TIP3    H255659   2.948   0.691   5.672  0.1998  1.3276 -0.1070
11390TIP3   OH255660   5.245   5.138  14.019  0.4253  0.2578  0.1205
11390TIP3    H155661   5.245   5.233  14.030  0.2799  0.3858 -0.9061
11390TIP3    H255662   5.156   5.117  13.993  0.3640 -0.2176  0.6873
11391TIP3   OH255663   0.171   2.399   0.605 -0.1893 -0.0424 -0.6823
11391TIP3    H155664   0.263   2.409   0.631  0.4742 -2.2542 -1.9460
11391TIP3    H255665   0.122   2.409   0.687  1.3519 -0.8436  0.3904
11392TIP3   OH255666   0.230   0.410   1.446 -0.2373 -0.8677 -0.2338
11392TIP3    H155667   0.166   0.411   1.517 -1.2307 -0.6469 -1.1091
11392TIP3    H255668   0.311   0.380   1.487 -0.8060 -0.8138  0.9700
11393TIP3   OH255669   5.324   4.353  16.561  0.1495 -0.1885 -0.1362
11393TIP3    H155670   5.310   4.354  16.655 -0.3747 -1.2437 -0.1895
11393TIP3    H255671   5.316   4.444  16.534  1.4795  0.2994  0.9927
11394TIP3   OH255672   0.404   6.378  10.588 -0.1218 -0.0249 -0.7863
11394TIP3    H155673   0.414   6.312  10.520  2.4982  0.8295 -1.3524
11394TIP3    H255674   0.380   6.458  10.540 -0.4070  0.0924 -0.4506
11395TIP3   OH255675   2.720   3.086   1.523  0.0342 -0.4520 -0.0432
11395TIP3    H155676   2.734   3.157   1.461 -0.7716  0.6957  1.0376
11395TIP3    H255677   2.625   3.075   1.526  0.1412 -1.5057 -0.0916
11396TIP3   OH255678   5.776   4.387  13.513 -0.0566 -0.1548  0.3386
11396TIP3    H155679   5.755   4.462  13.458 -1.2970 -1.0142 -0.4171
11396TIP3    H255680   5.843   4.340  13.463 -0.1717 -0.1973  0.2226
11397TIP3   OH255681   2.514   4.000   4.801  0.5029  0.4344  0.3104
11397TIP3    H155682   2.460   4.052   4.861 -0.0413  1.9798 -1.4046
11397TIP3    H255683   2.496   3.909   4.824 -1.8832  0.9243  0.6337
11398TIP3   OH255684   3.228   2.824  16.289 -0.0939 -0.1558 -0.4978
11398TIP3    H155685   3.184   2.907  16.274  0.1985  0.0139 -0.4336
11398TIP3    H255686   3.299   2.845  16.350  0.4156 -0.3139 -1.0184
11399TIP3   OH255687   1.549   4.590  13.661 -0.0213 -0.1104 -0.4819
11399TIP3    H155688   1.550   4.606  13.567 -2.8544 -1.4366 -0.8508
11399TIP3    H255689   1.466   4.628  13.691 -0.7230 -2.4527  0.8287
11400TIP3   OH255690   4.178   1.797   0.331 -0.0916 -0.0031  0.4571
11400TIP3    H155691   4.113   1.784   0.262  0.2664 -1.2065  0.3359
11400TIP3    H255692   4.140   1.754   0.408  0.1489  0.0981  0.6331
11401TIP3   OH255693   1.625   3.661   3.800  0.4226  0.4021  0.1585
11401TIP3    H155694   1.611   3.575   3.839 -0.9171  0.1168 -0.8925
11401TIP3    H255695   1.716   3.659   3.769  0.5635 -0.4321  0.5869
11402TIP3   OH255696   5.825   5.657  13.965  0.0825 -0.1531  0.4286
11402TIP3    H155697   5.857   5.638  13.876 -1.2352  0.4713 -0.2046
11402TIP3    H255698   5.877   5.600  14.021  1.2128 -0.2907 -0.7004
11403TIP3   OH255699   1.687   0.210   5.425  0.1632  0.3912  0.4405
11403TIP3    H155700   1.605   0.260   5.424 -0.8552 -1.1456 -2.2588
11403TIP3    H255701   1.665   0.129   5.471  0.3303  0.2248  0.2272
11404TIP3   OH255702   2.911   4.310   1.397 -0.0492 -0.3066 -0.3196
11404TIP3    H155703   2.855   4.293   1.473  0.9222 -0.8337  0.2999
11404TIP3    H255704   2.858   4.365   1.340 -1.4728 -1.4262 -0.1147
11405TIP3   OH255705   6.769   3.422   2.802 -0.2626 -0.4539  0.4372
11405TIP3    H155706   6.736   3.511   2.788  1.0401  0.3298  1.9872
11405TIP3    H255707   6.772   3.383   2.715 -1.1785  0.9017 -0.2256
11406TIP3   OH255708   1.159   3.812  12.610  0.4352 -0.1144 -0.5000
11406TIP3    H155709   1.115   3.863  12.542 -1.2446 -1.0705 -0.2077
11406TIP3    H255710   1.154   3.867  12.688  1.6614  0.6519 -0.9345
11407TIP3   OH255711   4.897   6.300  16.150  0.2950  0.1136  0.2832
11407TIP3    H155712   4.944   6.376  16.184  0.5743  0.3843 -0.6557
11407TIP3    H255713   4.909   6.306  16.055 -0.5895 -0.5092  0.1208
11408TIP3   OH255714   4.149   4.220  15.524  0.2519  0.0573 -0.6854
11408TIP3    H155715   4.236   4.255  15.505  0.8689 -0.7880  0.4258
11408TIP3    H255716   4.098   4.237  15.445  1.6103 -0.0070 -1.6050
11409TIP3   OH255717   6.226   5.046   1.493  0.0918 -0.2063  0.2730
11409TIP3    H155718   6.310   5.007   1.518  1.0813  2.1383  0.9105
11409TIP3    H255719   6.249   5.118   1.435 -1.5182  0.1754  0.0504
11410TIP3   OH255720   4.361   3.431   5.947 -0.3420 -0.7165  0.1593
11410TIP3    H155721   4.376   3.347   5.904  0.8828 -0.3895 -0.0995
11410TIP3    H255722   4.301   3.478   5.890 -0.7237 -1.2632  0.1077
11411TIP3   OH255723   1.949   1.335  15.541  0.0497 -0.3896 -0.3894
11411TIP3    H155724   1.885   1.379  15.486  1.0883 -0.7736 -1.9956
11411TIP3    H255725   2.017   1.307  15.479  0.0365 -3.1242  0.7088
11412TIP3   OH255726   3.349   1.044  16.395  0.0381 -0.4372  0.2639
11412TIP3    H155727   3.415   1.073  16.332 -0.1054 -2.1623 -0.7486
11412TIP3    H255728   3.395   1.043  16.479  1.3583 -1.6470 -0.4227
11413TIP3   OH255729   3.429   3.158  13.802 -0.4993  0.1473 -0.5463
11413TIP3    H155730   3.483   3.224  13.846 -0.1597 -0.5543  0.1347
11413TIP3    H255731   3.489   3.115  13.741 -0.4461 -0.1961 -0.2596
11414TIP3   OH255732   1.040   4.637   2.454  0.7565  0.1353  0.3781
11414TIP3    H155733   0.950   4.622   2.426  0.0212  1.4097  1.9394
11414TIP3    H255734   1.090   4.568   2.410 -0.9876 -0.7108 -0.3779
11415TIP3   OH255735   3.799   6.625  12.575  0.0256 -0.0992  0.0325
11415TIP3    H155736   3.816   6.618  12.481  1.9647 -0.6541  0.3679
11415TIP3    H255737   3.719   6.574  12.588  1.0361 -2.1199 -1.0229
11416TIP3   OH255738   2.380   1.069  16.789 -0.0998  0.8773 -0.0848
11416TIP3    H155739   2.450   1.007  16.809 -2.1829 -1.1445  1.4762
11416TIP3    H255740   2.380   1.129  16.864  0.6016  1.5643 -0.6119
11417TIP3   OH255741   1.352   0.758  11.597  0.1028  0.5973  0.6985
11417TIP3    H155742   1.445   0.762  11.576 -0.1591  0.2306 -0.6643
11417TIP3    H255743   1.316   0.698  11.531 -1.0883  0.7290  1.2142
11418TIP3   OH255744   2.921   5.298   5.159  0.2061 -0.0123 -0.0893
11418TIP3    H155745   2.830   5.282   5.135 -0.2641 -1.2322  2.1784
11418TIP3    H255746   2.918   5.376   5.213  0.5580  0.1559 -0.3146
11419TIP3   OH255747   1.986   0.738   0.800 -0.0973  0.9098 -0.0412
11419TIP3    H155748   2.045   0.663   0.796 -0.0403  0.8626  1.4265
11419TIP3    H255749   1.956   0.741   0.891 -2.6768  0.6906 -0.7919
11420TIP3   OH255750   3.105   3.885  11.196  0.3279 -0.3957  0.1529
11420TIP3    H155751   3.109   3.806  11.143  0.3345 -0.0151 -0.4187
11420TIP3    H255752   3.013   3.891  11.223 -0.2168  0.6526 -1.7521
11421TIP3   OH255753   6.830   4.411  14.852  0.1195 -0.2848 -0.7354
11421TIP3    H155754   6.843   4.486  14.795 -2.2342  0.4280 -0.4460
11421TIP3    H255755   6.853   4.444  14.940  2.6423 -1.0531 -1.0273
11422TIP3   OH255756   4.410   3.484  17.215  0.2716 -0.3020 -0.1999
11422TIP3    H155757   4.329   3.457  17.173  0.8282  0.3228 -1.7313
11422TIP3    H255758   4.478   3.432  17.173  0.9035  0.7223 -0.4933
11423TIP3   OH255759   6.756   5.692  15.857  0.4881  0.4528  0.2668
11423TIP3    H155760   6.683   5.724  15.909  0.4793  1.3784 -0.2828
11423TIP3    H255761   6.716   5.658  15.777  0.6827  1.4685 -0.2763
11424TIP3   OH255762   1.703   1.127  15.130 -0.0302 -0.0452 -0.0946
11424TIP3    H155763   1.628   1.134  15.071 -1.3818  0.7332  1.6175
11424TIP3    H255764   1.682   1.055  15.188  0.2507  0.5726  0.7932
11425TIP3   OH255765   0.125   4.194  11.361  0.0492  0.6203 -0.2146
11425TIP3    H155766   0.119   4.177  11.267 -1.8080  0.6322 -0.1465
11425TIP3    H255767   0.198   4.140  11.391 -0.3973 -0.7175 -1.4111
11426TIP3   OH255768   1.356   5.253   4.812 -0.2591 -0.5552  0.0862
11426TIP3    H155769   1.358   5.348   4.803 -1.0693 -0.4643  0.7944
11426TIP3    H255770   1.374   5.237   4.905 -3.4499 -0.8952  0.7699
11427TIP3   OH255771   2.726   6.328   5.383  0.0043  0.0579  0.0407
11427TIP3    H155772   2.717   6.354   5.291 -1.3797  0.8678  0.3839
11427TIP3    H255773   2.786   6.253   5.380 -3.4269 -2.9138 -2.0714
11428TIP3   OH255774   0.934   0.212   2.326  0.0852  0.4203  0.0443
11428TIP3    H155775   0.851   0.175   2.358  0.7191  0.2458  1.5542
11428TIP3    H255776   0.980   0.137   2.288 -0.3679  0.4918 -0.6804
11429TIP3   OH255777   0.742   5.265  15.977  0.0327 -0.5404  0.6112
11429TIP3    H155778   0.790   5.336  15.935  1.2938 -1.1398  0.9790
11429TIP3    H255779   0.692   5.225  15.906 -1.8281  1.5507  0.6535
11430TIP3   OH255780   4.640   4.826  15.302 -0.1718  0.5653  0.3702
11430TIP3    H155781   4.647   4.734  15.280 -0.7658  0.3931  0.8957
11430TIP3    H255782   4.547   4.842  15.314 -0.2306  1.5729 -1.1302
11431TIP3   OH255783   0.415   6.812  15.703 -0.1695 -0.1535  0.3244
11431TIP3    H155784   0.455   6.727  15.686 -0.9968 -0.7234  1.1196
11431TIP3    H255785   0.468   6.875  15.654 -0.1703 -1.2455 -1.1157
11432TIP3   OH255786   5.088   1.458   2.206  0.0712  0.3762  0.2044
11432TIP3    H155787   5.025   1.386   2.216  0.6831 -0.1645  0.2330
11432TIP3    H255788   5.171   1.414   2.187  0.6459  1.0299  1.1565
11433TIP3   OH255789   5.409   5.348   2.227  0.4487  1.1762 -0.7335
11433TIP3    H155790   5.413   5.286   2.154 -2.5433 -0.3583  0.2329
11433TIP3    H255791   5.497   5.349   2.264  0.7147 -2.3622 -0.9938
11434TIP3   OH255792   1.634   0.796   4.521  0.1586 -0.4432  0.0876
11434TIP3    H155793   1.704   0.777   4.584 -2.5989 -2.2700  2.9682
11434TIP3    H255794   1.553   0.778   4.570 -2.2984 -0.7606 -3.6671
11435TIP3   OH255795   1.802   5.085  14.808  0.0863 -0.9727 -0.6391
11435TIP3    H155796   1.774   5.057  14.895 -1.0852  1.9970  0.0523
11435TIP3    H255797   1.859   5.161  14.824  2.4628 -2.2593 -2.3914
11436TIP3   OH255798   1.816   2.087  14.903 -0.3791  0.1084  0.7253
11436TIP3    H155799   1.912   2.087  14.898 -0.3981 -1.1514 -0.2036
11436TIP3    H255800   1.793   2.177  14.927  0.9827  0.7442 -0.2182
11437TIP3   OH255801   3.380   3.918  14.086  0.6864 -0.1164 -0.3264
11437TIP3    H155802   3.307   3.858  14.097  0.6608  0.1190  0.9259
11437TIP3    H255803   3.426   3.915  14.170 -0.4040  3.0363  0.5073
11438TIP3   OH255804   2.269   1.508  11.672 -0.3344  0.7530 -0.9105
11438TIP3    H155805   2.231   1.595  11.676 -1.9068  0.0769 -0.3850
11438TIP3    H255806   2.364   1.523  11.674 -0.4972  2.3407  2.8912
11439TIP3   OH255807   1.838   2.612   3.996  0.4548  0.8757  0.1389
11439TIP3    H155808   1.862   2.520   4.003  2.0558  1.2477 -0.1775
11439TIP3    H255809   1.745   2.615   4.021  0.9676 -0.4820  2.4967
11440TIP3   OH255810   3.552   2.758   1.718 -0.0303  0.2796 -0.5476
11440TIP3    H155811   3.468   2.751   1.674  0.3181 -0.2482 -1.1430
11440TIP3    H255812   3.564   2.674   1.761 -1.0395  1.2625  1.8482
11441TIP3   OH255813   1.282   6.348  14.409  0.3402  0.6420 -0.3046
11441TIP3    H155814   1.204   6.333  14.462  0.8340  0.1791  0.3089
11441TIP3    H255815   1.300   6.263  14.369  0.9076  0.5726  0.0849
11442TIP3   OH255816   5.051   4.031   3.769  0.1000  0.1426 -0.2074
11442TIP3    H155817   5.095   4.022   3.684 -0.8947  2.6892 -1.1057
11442TIP3    H255818   5.094   4.106   3.809 -0.3157 -0.2464  0.9872
11443TIP3   OH255819   2.267   1.509  12.851 -0.2947 -0.4415 -0.6524
11443TIP3    H155820   2.354   1.545  12.833 -0.0864  0.7624  2.2815
11443TIP3    H255821   2.208   1.585  12.846 -0.8330 -0.8365 -0.4501
11444TIP3   OH255822   6.758   0.444   3.550 -0.1537 -0.0442  0.3321
11444TIP3    H155823   6.741   0.384   3.477  1.3750  0.0682 -0.1552
11444TIP3    H255824   6.679   0.499   3.554 -1.3836 -1.7432  0.4957
11445TIP3   OH255825   4.660   6.352  15.774  0.1797 -0.7403  0.3482
11445TIP3    H155826   4.749   6.380  15.794  0.3108 -1.5673  0.9887
11445TIP3    H255827   4.635   6.297  15.848 -0.9290 -0.3899  0.2614
11446TIP3   OH255828   2.173   4.648   4.306 -0.1979  0.4431  0.3321
11446TIP3    H155829   2.120   4.568   4.305 -0.6483  0.7446 -0.1981
11446TIP3    H255830   2.110   4.718   4.324 -0.1312  0.8985 -1.0901
11447TIP3   OH255831   5.054   6.337  12.103 -0.4189  0.1185  0.0132
11447TIP3    H155832   5.010   6.254  12.086 -0.6172  0.1099  0.5368
11447TIP3    H255833   5.147   6.315  12.105 -0.4844 -0.1414  0.4050
11448TIP3   OH255834   5.740   2.859   2.931  0.0660 -0.3325 -0.6354
11448TIP3    H155835   5.700   2.835   2.848 -0.7436  2.1825 -1.0525
11448TIP3    H255836   5.754   2.953   2.925  1.6795 -0.3692  1.3933
11449TIP3   OH255837   2.474   1.182  15.143  0.0856 -0.0843 -0.1785
11449TIP3    H155838   2.562   1.144  15.136  0.6304  1.2030 -0.4942
11449TIP3    H255839   2.485   1.274  15.119 -1.5376 -0.1325 -1.3096
11450TIP3   OH255840   1.325   4.361   1.418  0.3488  0.4396  0.5542
11450TIP3    H155841   1.288   4.300   1.481  1.0503 -0.2241  0.3425
11450TIP3    H255842   1.287   4.335   1.334  0.1034  0.7538  0.5641
11451TIP3   OH255843   6.788   2.873  15.405  0.0524 -0.1924  0.0209
11451TIP3    H155844   6.745   2.812  15.345  0.2378 -1.9724  1.6186
11451TIP3    H255845   6.811   2.820  15.481  1.2146  1.6577  1.0295
11452TIP3   OH255846   6.161   4.016   4.261  0.4136  0.6500  0.1780
11452TIP3    H155847   6.180   3.984   4.173 -2.1758 -1.1635  0.1816
11452TIP3    H255848   6.214   3.961   4.318 -0.5097 -0.5674 -0.0982
11453TIP3   OH255849   1.473   1.084   0.929  0.2840  0.0649  0.3794
11453TIP3    H155850   1.551   1.054   0.883 -0.2812 -0.9198  0.0239
11453TIP3    H255851   1.400   1.057   0.872 -0.3328  0.6426  0.8738
11454TIP3   OH255852   6.560   6.138   3.653 -0.6273 -0.3041  0.4723
11454TIP3    H155853   6.639   6.133   3.707  0.5038  1.6521 -0.8759
11454TIP3    H255854   6.506   6.204   3.696 -0.3478  0.2475 -0.0161
11455TIP3   OH255855   6.676   4.852  12.566  0.1095 -0.4396  0.3004
11455TIP3    H155856   6.680   4.883  12.657 -0.7299  0.9354 -0.1002
11455TIP3    H255857   6.583   4.832  12.552  0.3146 -1.1269 -0.1094
11456TIP3   OH255858   0.549   6.120  16.904  0.1908  0.1751 -0.4657
11456TIP3    H155859   0.459   6.108  16.871  0.2107 -0.7795 -0.2112
11456TIP3    H255860   0.540   6.116  16.999  0.7491 -2.0840 -0.4593
11457TIP3   OH255861   5.199   6.473   3.575 -0.0166 -0.7501 -0.7453
11457TIP3    H155862   5.289   6.504   3.575 -0.2817  0.0715  0.3591
11457TIP3    H255863   5.185   6.440   3.663 -1.5442  1.4398 -0.0975
11458TIP3   OH255864   2.579   1.970  16.316 -0.5237 -0.2307 -0.1433
11458TIP3    H155865   2.527   1.925  16.249 -0.8698  1.0508 -0.7705
11458TIP3    H255866   2.515   2.011  16.373 -0.2112 -0.4092  0.3455
11459TIP3   OH255867   2.900   6.693  15.714  1.1385 -0.2163 -0.5390
11459TIP3    H155868   2.937   6.731  15.634 -1.5499  2.1967 -0.7933
11459TIP3    H255869   2.844   6.621  15.683  0.0946  0.7178 -0.8901
11460TIP3   OH255870   3.150   2.558  14.135  0.3173  0.0015  0.2000
11460TIP3    H155871   3.107   2.506  14.203 -0.2122 -0.2568 -0.3211
11460TIP3    H255872   3.242   2.531  14.139  0.0286 -1.0895 -0.1501
11461TIP3   OH255873   6.330   3.161  13.905  0.9952  0.5859  0.9339
11461TIP3    H155874   6.351   3.071  13.932  1.1146  0.8054  1.5958
11461TIP3    H255875   6.236   3.169  13.919  1.1620  0.9083  1.9476
11462TIP3   OH255876   3.268   1.519  11.123 -0.3413  0.4837  0.9298
11462TIP3    H155877   3.220   1.565  11.192 -0.3702 -0.0220  1.2514
11462TIP3    H255878   3.248   1.568  11.043 -0.4969  0.9325  1.2414
11463TIP3   OH255879   5.046   3.552   4.156  0.3726  0.4139  0.0365
11463TIP3    H155880   5.125   3.507   4.185  0.0010  0.2513  0.8076
11463TIP3    H255881   4.988   3.551   4.232  0.2567  1.9840  0.0058
11464TIP3   OH255882   0.704   1.280   0.762 -0.3778  0.8537  0.4005
11464TIP3    H155883   0.705   1.187   0.739 -0.3683  0.8426  0.4460
11464TIP3    H255884   0.611   1.305   0.756 -0.3930  0.8167  0.4884
11465TIP3   OH255885   3.571   6.068  12.392  0.2371 -0.4746  0.0248
11465TIP3    H155886   3.547   5.976  12.383 -0.0539 -0.4414  0.4196
11465TIP3    H255887   3.520   6.113  12.324  0.6856 -0.6488 -0.4370
11466TIP3   OH255888   5.942   0.583  11.500  0.2222  0.0763  0.2340
11466TIP3    H155889   5.903   0.588  11.413  1.7771 -0.4272 -0.5265
11466TIP3    H255890   5.886   0.638  11.555 -0.6645  0.5631 -1.1205
11467TIP3   OH255891   5.735   6.301   3.979 -0.1744  0.3150  0.0401
11467TIP3    H155892   5.735   6.296   4.075 -2.8557 -0.4893  0.0991
11467TIP3    H255893   5.729   6.210   3.950  0.2893  0.5689 -0.8869
11468TIP3   OH255894   3.238   4.736   5.381 -0.4863 -0.5756 -0.2216
11468TIP3    H155895   3.153   4.736   5.337 -0.8351 -1.5127  0.4201
11468TIP3    H255896   3.217   4.755   5.473  0.1851  0.9172 -0.3523
11469TIP3   OH255897   2.238   3.011  13.042  0.1032  0.0680  0.1210
11469TIP3    H155898   2.226   2.962  13.124 -1.5243 -0.0052 -0.1298
11469TIP3    H255899   2.170   2.977  12.984  2.0155 -0.7723 -1.7217
11470TIP3   OH255900   1.397   4.918   4.399 -0.2636 -0.0775  0.0469
11470TIP3    H155901   1.333   4.863   4.353  1.1996 -0.6719 -1.3718
11470TIP3    H255902   1.344   4.971   4.459 -1.9590 -1.3295 -0.2689
11471TIP3   OH255903   2.278   3.175   1.550 -0.0454 -0.1042 -0.2084
11471TIP3    H155904   2.273   3.264   1.583  1.4820  0.0570 -0.3243
11471TIP3    H255905   2.243   3.181   1.461  2.0537  0.8864 -1.0421
11472TIP3   OH255906   2.807   0.390  16.659 -0.2200 -0.1062  0.1766
11472TIP3    H155907   2.738   0.408  16.596  0.3561  2.1312  0.0605
11472TIP3    H255908   2.879   0.447  16.631  0.5839 -0.1649  1.9785
11473TIP3   OH255909   5.511   3.037  15.539  0.5373 -0.5944 -0.1912
11473TIP3    H155910   5.432   2.985  15.522  1.1713 -1.5493 -0.2747
11473TIP3    H255911   5.575   2.973  15.571  0.5844  0.5307  2.1229
11474TIP3   OH255912   3.621   2.338   6.037  0.5543 -0.2479 -0.2638
11474TIP3    H155913   3.712   2.347   6.065  0.4451  2.2298 -0.5488
11474TIP3    H255914   3.624   2.345   5.942  0.2317 -2.2672 -0.4763
11475TIP3   OH255915   5.522   2.801  12.063  0.0464  0.3328  0.0661
11475TIP3    H155916   5.572   2.762  11.992 -0.2827  1.4462 -0.8029
11475TIP3    H255917   5.505   2.729  12.123 -1.3232 -1.0911 -1.9073
11476TIP3   OH255918   2.549   4.340  15.741  0.3735  0.1086  0.3559
11476TIP3    H155919   2.583   4.361  15.654 -1.1904 -0.4780 -0.4444
11476TIP3    H255920   2.621   4.359  15.800  1.4295  0.6812 -1.0506
11477TIP3   OH255921   0.670   1.715   2.520  0.1596 -0.0124 -0.0352
11477TIP3    H155922   0.733   1.788   2.514 -2.0759  1.9139 -2.7417
11477TIP3    H255923   0.722   1.637   2.502  2.2229  1.1836  0.4341
11478TIP3   OH255924   2.501   0.520   4.366 -0.0410 -0.3982  0.4355
11478TIP3    H155925   2.449   0.469   4.304 -0.6705  0.4885  0.2171
11478TIP3    H255926   2.457   0.507   4.450 -1.9213  1.9925 -0.0833
11479TIP3   OH255927   4.312   0.459  14.861 -0.0807 -0.5589  0.0479
11479TIP3    H155928   4.343   0.380  14.905  0.5001  0.0290  0.7121
11479TIP3    H255929   4.226   0.475  14.900  0.0690 -0.5155  0.3657
11480TIP3   OH255930   6.327   4.420  14.736 -0.3471 -0.2650 -0.0028
11480TIP3    H155931   6.339   4.412  14.831  2.5219  0.2219 -0.2136
11480TIP3    H255932   6.261   4.355  14.714 -0.0061 -1.4413  2.1516
11481TIP3   OH255933   2.791   0.133   2.039 -0.7226  0.1148 -0.5488
11481TIP3    H155934   2.759   0.109   1.952  1.7871 -0.4251 -1.4108
11481TIP3    H255935   2.794   0.051   2.088  1.3594 -0.2817 -1.2374
11482TIP3   OH255936   1.068   4.335   1.985  0.1795 -0.2921  0.0771
11482TIP3    H155937   1.020   4.259   1.952  0.7192 -0.8314  0.5100
11482TIP3    H255938   1.004   4.381   2.040 -0.6015  0.3938 -1.3718
11483TIP3   OH255939   2.606   0.381   5.697 -0.3102  0.3073  0.0515
11483TIP3    H155940   2.571   0.292   5.705 -1.2733  0.5127 -1.4542
11483TIP3    H255941   2.697   0.368   5.669 -0.5149 -0.2212 -0.4020
11484TIP3   OH255942   6.335   6.518  15.693  0.2922  0.5580  0.6314
11484TIP3    H155943   6.302   6.429  15.693 -0.5398  0.8602  0.5327
11484TIP3    H255944   6.363   6.534  15.783  4.0552 -1.0790 -0.0427
11485TIP3   OH255945   5.405   2.502   5.533  0.3605  0.1979  0.6326
11485TIP3    H155946   5.493   2.520   5.568  1.4380 -1.8245 -0.8746
11485TIP3    H255947   5.350   2.496   5.611  1.6016  1.1290  1.6429
11486TIP3   OH255948   0.801   6.076   4.665  0.7897 -0.0753 -0.0013
11486TIP3    H155949   0.836   6.057   4.578 -0.8345 -2.5923 -0.2019
11486TIP3    H255950   0.721   6.024   4.671  1.5595 -1.1275  3.5272
11487TIP3   OH255951   3.226   5.436   1.597  0.2227 -0.6581 -1.0989
11487TIP3    H155952   3.155   5.371   1.593  0.6992 -1.5313  1.8258
11487TIP3    H255953   3.300   5.387   1.633  0.6345  1.4235  1.1096
11488TIP3   OH255954   4.874   0.706  14.571 -0.2719 -0.0018  0.1137
11488TIP3    H155955   4.925   0.627  14.587 -1.5876 -0.8125  0.4689
11488TIP3    H255956   4.926   0.757  14.509  0.9530 -0.7839  0.4780
11489TIP3   OH255957   6.114   3.284   3.061  0.8207 -0.6801  0.1518
11489TIP3    H155958   6.069   3.367   3.043 -0.6239 -1.4861 -0.1170
11489TIP3    H255959   6.191   3.286   3.004  0.0618 -0.1068 -0.9011
11490TIP3   OH255960   5.803   1.541  15.919  0.5461 -0.2589  0.6434
11490TIP3    H155961   5.715   1.539  15.883  0.7189  0.7783  0.1329
11490TIP3    H255962   5.807   1.466  15.978 -0.7551 -0.1720  0.8569
11491TIP3   OH255963   6.095   2.330  15.057  0.4331 -0.3876 -0.7859
11491TIP3    H155964   6.190   2.341  15.055  0.6064 -1.0895  1.3548
11491TIP3    H255965   6.082   2.237  15.074 -0.5276  0.1354  1.7943
11492TIP3   OH255966   1.725   5.041   4.617 -0.0777 -0.5320 -0.2853
11492TIP3    H155967   1.711   5.055   4.524  2.1484 -1.0847 -0.7573
11492TIP3    H255968   1.665   4.969   4.640  0.8764 -1.8762 -1.8132
11493TIP3   OH255969   6.212   5.507   3.594 -0.2104  0.2266  0.7901
11493TIP3    H155970   6.194   5.516   3.501 -2.2118 -0.0320  1.1176
11493TIP3    H255971   6.209   5.413   3.611 -1.3904  0.3531  1.3725
11494TIP3   OH255972   0.916   1.704   4.156  0.5699  0.2699  0.2186
11494TIP3    H155973   0.984   1.663   4.209 -0.0411 -0.6217  0.3537
11494TIP3    H255974   0.962   1.745   4.083  1.1747 -1.3044 -0.3246
11495TIP3   OH255975   1.267   0.526   5.454  0.4251  0.1726 -0.4047
11495TIP3    H155976   1.248   0.610   5.414  1.3867  1.3975  1.5600
11495TIP3    H255977   1.193   0.509   5.512  1.9629  1.7036  2.2094
11496TIP3   OH255978   1.739   4.420  12.577 -0.0554 -0.1964  0.3011
11496TIP3    H155979   1.659   4.413  12.524  0.4015  4.7153 -1.4954
11496TIP3    H255980   1.807   4.380  12.523 -0.3925  0.5417 -0.6984
11497TIP3   OH255981   4.845   6.377  14.181 -0.7482  0.2403 -0.1492
11497TIP3    H155982   4.758   6.372  14.221 -1.2017 -2.2894 -1.3056
11497TIP3    H255983   4.877   6.287  14.181  1.5549  0.9868 -0.5177
11498TIP3   OH255984   6.546   0.884   2.537 -0.0587  0.7181  0.0444
11498TIP3    H155985   6.508   0.956   2.486 -2.1954  0.6129  1.3687
11498TIP3    H255986   6.512   0.805   2.495  2.3680  0.3849 -1.4728
11499TIP3   OH255987   1.777   6.126  14.228 -0.0900 -0.2398  0.0268
11499TIP3    H155988   1.871   6.138  14.243  0.2366 -2.0664 -0.3717
11499TIP3    H255989   1.771   6.071  14.150 -1.5341  0.7311 -0.5961
11500TIP3   OH255990   3.123   6.221   4.531  0.3941 -0.3206  0.0493
11500TIP3    H155991   3.090   6.309   4.509 -0.1794 -0.6338 -0.3669
11500TIP3    H255992   3.058   6.161   4.494  2.1114 -1.0192 -2.0762
11501TIP3   OH255993   5.226   4.079   5.541 -0.0709 -0.2231 -0.0591
11501TIP3    H155994   5.256   4.116   5.624  1.4413 -1.2307 -0.1075
11501TIP3    H255995   5.133   4.098   5.539  0.3752  2.4448  0.4689
11502TIP3   OH255996   1.539   2.128  17.164 -0.5033 -0.3553 -0.2347
11502TIP3    H155997   1.506   2.061  17.105  0.2948 -0.5478 -0.4751
11502TIP3    H255998   1.546   2.206  17.109  2.8425 -1.1807 -1.2039
11503TIP3   OH255999   2.114   5.493   1.874  0.2832 -0.2117  0.1991
11503TIP3    H156000   2.198   5.500   1.829  0.3235 -1.8841 -0.0481
11503TIP3    H256001   2.120   5.412   1.924 -0.3615  0.8123  2.0082
11504TIP3   OH256002   2.995   0.576   2.811  0.1312  0.0751 -0.1389
11504TIP3    H156003   2.967   0.486   2.825  0.0520 -0.0205 -0.8641
11504TIP3    H256004   2.964   0.597   2.723 -0.2459  0.9609  0.1970
11505TIP3   OH256005   2.661   3.450   5.365 -0.4644  0.5503 -0.2003
11505TIP3    H156006   2.618   3.481   5.445 -0.6591  0.9062 -0.4337
11505TIP3    H256007   2.626   3.507   5.297  0.5575  0.9954 -0.3689
11506TIP3   OH256008   0.224   1.786   2.681 -0.1316 -0.8280 -0.1200
11506TIP3    H156009   0.235   1.727   2.606  2.1697 -2.2985  1.2656
11506TIP3    H256010   0.181   1.732   2.747  1.2406 -0.7446  0.8788
11507TIP3   OH256011   0.059   1.260   2.207  0.4371 -0.1647  0.4590
11507TIP3    H156012  -0.032   1.283   2.189  0.7585  1.4801  0.8472
11507TIP3    H256013   0.063   1.247   2.302  0.5125 -0.7035  0.3856
11508TIP3   OH256014   6.384   3.714   6.896  0.6500 -0.0983 -0.0059
11508TIP3    H156015   6.442   3.664   6.839  0.2277 -1.2937  0.5582
11508TIP3    H256016   6.421   3.802   6.898  1.1561 -0.2520 -1.4150
11509TIP3   OH256017   1.437   1.621   2.385  0.1315 -0.7190  0.0407
11509TIP3    H156018   1.442   1.716   2.382  0.2226 -0.7211  0.1376
11509TIP3    H256019   1.517   1.591   2.341 -0.7645 -0.7576 -1.6493
11510TIP3   OH256020   2.583   0.739   4.965  0.3638 -0.2566 -0.0642
11510TIP3    H156021   2.591   0.721   4.872 -1.6910  2.3570 -0.8700
11510TIP3    H256022   2.542   0.825   4.969 -0.2758 -0.5982  3.2741
11511TIP3   OH256023   4.312   3.017   5.396 -0.5996  0.2995  0.0696
11511TIP3    H156024   4.328   2.993   5.305 -1.0004  1.0394 -0.2045
11511TIP3    H256025   4.391   3.063   5.423  0.5792 -2.0584  0.8954
11512TIP3   OH256026   5.296   1.415   5.508  0.5692  0.3311  0.3026
11512TIP3    H156027   5.330   1.391   5.594  0.8812 -1.3030 -0.2441
11512TIP3    H256028   5.346   1.361   5.446 -1.7348 -0.8275 -0.6685
11513TIP3   OH256029   5.129   3.012   6.229  0.6209  0.4890  0.2353
11513TIP3    H156030   5.099   2.934   6.182  0.6217  0.4531  0.2944
11513TIP3    H256031   5.095   3.085   6.178 -0.8464  0.4577  1.1116
11514TIP3   OH256032   5.869   0.021   4.226  0.2366  0.1298 -0.5680
11514TIP3    H156033   5.775   0.039   4.228  0.5864  2.0798 -0.1769
11514TIP3    H256034   5.879  -0.045   4.157 -1.5656 -1.3058  0.4314
11515TIP3   OH256035   1.840   3.734   1.429  0.1108 -0.1152 -0.6125
11515TIP3    H156036   1.908   3.744   1.363 -1.2933 -0.4123 -2.1702
11515TIP3    H256037   1.760   3.767   1.387 -0.7309  0.2416  1.1552
11516TIP3   OH256038   1.142   2.125   1.115  0.4764 -0.9563  0.0482
11516TIP3    H156039   1.224   2.143   1.162 -0.6853  0.7956  1.5704
11516TIP3    H256040   1.145   2.184   1.039  0.9236 -1.4280 -0.3093
11517TIP3   OH256041   4.573   0.560  16.267  0.5270  0.2612  0.0366
11517TIP3    H156042   4.541   0.632  16.320  2.1301 -0.0716  1.5448
11517TIP3    H256043   4.616   0.602  16.192  0.3145  0.8230  0.2313
11518TIP3   OH256044   5.521   6.707   1.377 -0.4201  0.3000  0.2707
11518TIP3    H156045   5.589   6.640   1.389  0.8159  1.1533 -1.5535
11518TIP3    H256046   5.569   6.790   1.375 -1.9313  1.3616  2.7043
11519TIP3   OH256047   2.765   3.257   1.873 -0.3124  0.1724  0.3062
11519TIP3    H156048   2.733   3.242   1.784  0.6461  1.2454 -0.2527
11519TIP3    H256049   2.860   3.269   1.862  0.0663 -1.2251  1.6806
11520TIP3   OH256050   1.159   0.512   3.552 -0.1732 -0.0552 -0.1927
11520TIP3    H156051   1.196   0.555   3.475  0.9411 -0.7282 -0.0610
11520TIP3    H256052   1.226   0.523   3.619 -0.5551 -0.6393  0.2900
11521TIP3   OH256053   0.053   6.202   4.616  0.7806  0.3548  0.1291
11521TIP3    H156054   0.007   6.121   4.593  0.2699  0.5926  0.2901
11521TIP3    H256055   0.092   6.184   4.702 -0.1963  0.6118  0.6452
11522TIP3   OH256056   4.005   5.415   0.142  0.5282 -0.4899 -0.1003
11522TIP3    H156057   4.040   5.355   0.208  0.6574  0.0713  0.3500
11522TIP3    H256058   3.971   5.358   0.073 -1.8578 -1.1834  1.5317
11523TIP3   OH256059   6.591   1.281  11.495  0.6598  0.2353  0.3782
11523TIP3    H156060   6.520   1.303  11.434  0.0038 -0.9442  0.6853
11523TIP3    H256061   6.566   1.324  11.577 -0.2535 -1.0000  0.7755
11524TIP3   OH256062   0.703   0.820  15.296 -0.4139 -0.4732 -0.2790
11524TIP3    H156063   0.788   0.836  15.256 -0.0507  3.2222  1.4776
11524TIP3    H256064   0.722   0.794  15.386 -1.1725 -1.2274 -0.3186
11525TIP3   OH256065   4.108   4.831   0.965 -0.6642  0.2207 -0.4678
11525TIP3    H156066   4.060   4.807   1.045 -0.4806 -0.0664 -0.4388
11525TIP3    H256067   4.043   4.872   0.909 -0.7747  0.5034 -0.1322
11526TIP3   OH256068   4.982   3.965  15.211  0.1048 -0.3718  0.6936
11526TIP3    H156069   5.041   3.983  15.138  2.3395 -0.1847  2.4377
11526TIP3    H256070   4.990   3.871  15.225  1.3474 -0.1142  1.9579
11527TIP3   OH256071   5.929   5.168   5.410  0.0255 -0.0035 -0.1338
11527TIP3    H156072   5.841   5.176   5.373 -0.0745 -1.6717 -0.3026
11527TIP3    H256073   5.947   5.074   5.412  2.5305  0.3284 -1.8306
11528TIP3   OH256074   1.438   0.773  13.095  0.1993  0.6610  0.4353
11528TIP3    H156075   1.489   0.802  13.019 -1.0499 -0.0939 -0.7174
11528TIP3    H256076   1.351   0.753  13.060 -0.2664 -0.1752  1.9857
11529TIP3   OH256077   0.506   5.672  15.524  0.3120 -0.0288  0.2110
11529TIP3    H156078   0.571   5.602  15.528  0.2216 -0.0985  0.4981
11529TIP3    H256079   0.424   5.630  15.550  0.4576  0.4152  1.4989
11530TIP3   OH256080   5.770   4.385  15.836 -0.1566 -0.2390 -0.5510
11530TIP3    H156081   5.732   4.472  15.825 -1.1397 -0.2627  2.0248
11530TIP3    H256082   5.787   4.355  15.747 -0.3960  2.2968 -1.5440
11531TIP3   OH256083   4.487   3.007  16.471 -0.5681  0.3114 -0.0276
11531TIP3    H156084   4.455   2.931  16.521 -0.8664  0.9512  0.7862
11531TIP3    H256085   4.562   2.974  16.422 -1.1025 -0.6731 -0.2044
11532TIP3   OH256086   5.032   1.248  15.792  0.2505 -0.3718  0.3617
11532TIP3    H156087   5.125   1.267  15.804 -0.2525  1.4366  1.7731
11532TIP3    H256088   5.029   1.153  15.778  2.1672 -0.7163  1.8625
11533TIP3   OH256089   2.988   6.448   0.130  0.1013 -0.6571  0.7835
11533TIP3    H156090   2.978   6.392   0.053  1.0318 -2.7501  2.0774
11533TIP3    H256091   3.073   6.491   0.117  0.3341 -1.1311  0.6940
11534TIP3   OH256092   3.928   0.870  16.285  0.0036 -0.1340  0.6159
11534TIP3    H156093   3.868   0.933  16.323  0.3773 -0.8656  2.4965
11534TIP3    H256094   4.014   0.892  16.321  0.5629 -0.2896 -0.5399
11535TIP3   OH256095   0.310   2.672  15.070 -0.1243 -0.4725 -0.3112
11535TIP3    H156096   0.282   2.762  15.052 -0.6229 -0.5561  0.0460
11535TIP3    H256097   0.260   2.646  15.146 -0.2634 -1.1944 -0.6430
11536TIP3   OH256098   1.688   0.271   6.657  0.4770 -0.1788  0.3606
11536TIP3    H156099   1.600   0.270   6.619 -0.6993  0.1502  2.8462
11536TIP3    H256100   1.691   0.193   6.712  0.3221  1.5967  3.0794
11537TIP3   OH256101   4.820   2.561  17.205  0.4271 -0.2090 -0.1891
11537TIP3    H156102   4.844   2.561  17.112 -0.2388 -0.4531 -0.3656
11537TIP3    H256103   4.878   2.497  17.245  0.5767 -0.2517 -0.4730
11538TIP3   OH256104   3.369   0.517  13.493 -0.3282  0.2085  0.4008
11538TIP3    H156105   3.296   0.499  13.435 -1.2458 -0.1391  1.6106
11538TIP3    H256106   3.435   0.451  13.471  0.5404  1.7768 -2.1139
11539TIP3   OH256107   3.971   3.736  10.747 -0.1200  0.3500 -0.3233
11539TIP3    H156108   4.043   3.793  10.719 -1.0007  1.2753 -0.8096
11539TIP3    H256109   3.962   3.672  10.676  1.0033 -0.5422  0.3178
11540TIP3   OH256110   3.103   0.373  15.609  0.4924 -0.7067 -0.4696
11540TIP3    H156111   3.098   0.327  15.693 -0.3262 -1.1938 -0.7725
11540TIP3    H256112   3.108   0.303  15.543  2.1192 -0.3392 -0.8028
11541TIP3   OH256113   2.911   4.254  12.949  0.2083  0.5971 -0.1226
11541TIP3    H156114   2.853   4.271  13.023 -0.3970 -0.0954 -0.4341
11541TIP3    H256115   2.990   4.217  12.989 -0.8619 -1.6482  0.0703
11542TIP3   OH256116   2.195   6.811   4.330  0.1562  0.0060 -0.3514
11542TIP3    H156117   2.288   6.791   4.335  0.1136 -2.5255 -4.5213
11542TIP3    H256118   2.153   6.726   4.321 -2.4184  1.1527 -0.0052
11543TIP3   OH256119   6.800   4.050   6.033  0.5208 -0.2847 -0.3316
11543TIP3    H156120   6.884   4.004   6.040  0.5147 -0.3498 -0.6543
11543TIP3    H256121   6.784   4.085   6.120  0.4569 -1.0284 -0.0354
11544TIP3   OH256122   3.732   3.923  10.659 -0.3747  0.0759 -0.3019
11544TIP3    H156123   3.752   3.918  10.566 -0.5908  0.8944 -0.3973
11544TIP3    H256124   3.645   3.884  10.667 -0.1697 -0.4106 -0.3665
11545TIP3   OH256125   6.258   4.626   0.787  0.3411  0.8502  0.0515
11545TIP3    H156126   6.317   4.555   0.761  0.3880  0.7031  0.5455
11545TIP3    H256127   6.194   4.632   0.716  0.8590  0.9048 -0.4161
11546TIP3   OH256128   5.714   3.620   3.479 -0.1616  0.0062 -0.6459
11546TIP3    H156129   5.620   3.631   3.473 -0.9429 -3.1880  2.2255
11546TIP3    H256130   5.744   3.693   3.534 -1.5521 -0.5542  0.9459
11547TIP3   OH256131   5.597   0.596   0.024  0.3498  0.7181  0.3641
11547TIP3    H156132   5.564   0.515   0.061 -0.3690 -1.6911 -4.6747
11547TIP3    H256133   5.521   0.634  -0.022  1.7899  1.4550 -1.5688
11548TIP3   OH256134   4.026   3.957  16.511  0.3330 -0.3972 -0.5998
11548TIP3    H156135   4.106   3.912  16.539 -0.2577 -0.0038  2.0677
11548TIP3    H256136   3.959   3.888  16.509  0.0359 -0.1760  0.6731
11549TIP3   OH256137   4.361   1.244  11.687 -0.6377 -0.3906 -0.3056
11549TIP3    H156138   4.434   1.257  11.749 -0.5456 -1.5318 -0.1566
11549TIP3    H256139   4.283   1.254  11.741 -0.5591 -1.1679 -0.0365
11550TIP3   OH256140   1.346   3.360  11.939  0.2662  0.0918  0.1916
11550TIP3    H156141   1.319   3.438  11.888 -1.7119 -0.3632  0.4357
11550TIP3    H256142   1.268   3.337  11.989  0.9837 -1.7523  0.5298
11551TIP3   OH256143   0.521   0.649  15.398  0.5409  0.2312  0.7736
11551TIP3    H156144   0.522   0.563  15.356  1.4660  0.2158  0.8007
11551TIP3    H256145   0.584   0.701  15.347  1.1828  0.4094  1.7326
11552TIP3   OH256146   3.040   4.117   1.644  0.2475  0.2189  0.9344
11552TIP3    H156147   3.115   4.174   1.628  0.2619 -0.2569 -0.9290
11552TIP3    H256148   2.966   4.163   1.603  0.2945 -1.1151 -0.7438
11553TIP3   OH256149   6.598   2.489  16.721 -0.2668  0.4140  0.0414
11553TIP3    H156150   6.540   2.430  16.672 -0.1041 -1.1191  1.5955
11553TIP3    H256151   6.585   2.465  16.812  0.6057  2.1200  0.6671
11554TIP3   OH256152   3.756   6.746  16.254  0.3215  0.2225  0.1283
11554TIP3    H156153   3.820   6.732  16.324 -0.6487  1.0461  1.2121
11554TIP3    H256154   3.672   6.725  16.294 -0.2926  1.0881 -0.6710
11555TIP3   OH256155   6.447   5.172  14.146  0.0281  0.2343  0.0103
11555TIP3    H156156   6.475   5.263  14.145 -0.6177  0.4571 -1.6491
11555TIP3    H256157   6.355   5.174  14.173  0.4786 -0.1182  1.6606
11556TIP3   OH256158   0.398   5.582  12.650  0.0181  0.6861  0.5416
11556TIP3    H156159   0.368   5.519  12.585 -2.6776  0.8890  1.4849
11556TIP3    H256160   0.393   5.667  12.606  0.7367  0.5635  0.2142
11557TIP3   OH256161   5.336   5.578  13.207 -0.4181 -0.1940  0.1388
11557TIP3    H156162   5.303   5.548  13.122 -0.4219  2.6903 -0.9900
11557TIP3    H256163   5.429   5.592  13.193 -0.4644  0.5433  0.5194
11558TIP3   OH256164   2.905   1.374  12.787 -0.9425  0.2064  0.5068
11558TIP3    H156165   2.936   1.446  12.841  2.8194 -0.9399  0.2102
11558TIP3    H256166   2.894   1.412  12.700 -3.7718  1.3209  1.2341
11559TIP3   OH256167   3.794   3.576  16.263 -0.1214  0.9321 -0.3287
11559TIP3    H156168   3.837   3.619  16.190 -1.2013  0.4534 -1.2750
11559TIP3    H256169   3.842   3.606  16.340  1.4490  0.9383 -1.2633
11560TIP3   OH256170   3.089   0.950   4.071  0.0168 -0.3206  0.1207
11560TIP3    H156171   3.163   1.007   4.048 -0.2236 -0.3522 -0.7730
11560TIP3    H256172   3.068   0.973   4.161  1.3529 -0.5652  0.5179
11561TIP3   OH256173   1.694   2.444   0.023  0.4491 -0.1861  0.0652
11561TIP3    H156174   1.674   2.420  -0.068  1.9889  1.8068 -0.8809
11561TIP3    H256175   1.781   2.408   0.039  0.3220 -0.2454  0.6408
11562TIP3   OH256176   6.587   1.913   2.799  0.0692 -0.5700 -0.6539
11562TIP3    H156177   6.648   1.840   2.810  0.6899  0.1448  1.1021
11562TIP3    H256178   6.509   1.887   2.849  0.1987 -0.1412 -0.2250
11563TIP3   OH256179   2.607   1.044  13.271  0.4189 -0.0978  0.0161
11563TIP3    H156180   2.607   0.973  13.206  1.0888  0.7392 -0.9385
11563TIP3    H256181   2.585   1.122  13.221  0.7871  0.5433  0.8306
11564TIP3   OH256182   2.543   4.586  12.342 -0.0484 -0.4556 -0.1141
11564TIP3    H156183   2.563   4.496  12.316 -0.5748 -0.8955  0.9145
11564TIP3    H256184   2.557   4.586  12.437 -0.6749  0.3658 -0.0129
11565TIP3   OH256185   0.256   3.192  16.600  0.9350  0.9147 -0.3541
11565TIP3    H156186   0.341   3.175  16.641  0.8202  0.4915 -0.2824
11565TIP3    H256187   0.196   3.205  16.673  1.0223  1.6653 -0.4113
11566TIP3   OH256188   4.408   3.091  12.106  0.3791  0.5126 -0.1059
11566TIP3    H156189   4.498   3.078  12.074  0.2699  0.2224 -0.3004
11566TIP3    H256190   4.360   3.126  12.031  0.7514  2.4969  0.5020
11567TIP3   OH256191   5.016   0.358  13.080 -0.2337 -0.0979  0.6976
11567TIP3    H156192   5.096   0.357  13.027  0.4208  1.6747  1.5844
11567TIP3    H256193   4.967   0.433  13.047 -0.8334 -0.2811  1.1628
11568TIP3   OH256194   2.371   0.198  11.714 -0.4532 -0.0561  0.1813
11568TIP3    H156195   2.329   0.123  11.756  0.1079 -1.2516 -1.3129
11568TIP3    H256196   2.445   0.161  11.666  0.5241  1.6140  0.3072
11569TIP3   OH256197   5.252   2.988  13.079 -0.1858  0.7111 -0.2965
11569TIP3    H156198   5.310   3.002  13.153  0.9195  1.4824 -1.2786
11569TIP3    H256199   5.246   2.893  13.071 -1.1541  0.5812  1.3764
11570TIP3   OH256200   5.195   0.900  15.000 -0.1983  0.0417 -0.0271
11570TIP3    H156201   5.214   0.832  15.064 -0.8317  0.2401  0.3803
11570TIP3    H256202   5.107   0.878  14.968 -0.4314  0.6982  0.1516
11571TIP3   OH256203   5.653   5.570   4.002  0.3225 -0.4585 -0.3504
11571TIP3    H156204   5.689   5.538   3.919  0.6319  0.2295 -0.4815
11571TIP3    H256205   5.572   5.615   3.978  0.5578 -0.0129 -0.3131
11572TIP3   OH256206   2.364   4.371  11.893 -0.3461 -0.1084 -0.1177
11572TIP3    H156207   2.309   4.444  11.922 -0.2973 -0.2648  0.3770
11572TIP3    H256208   2.355   4.305  11.962 -0.2297 -0.4916 -0.4630
11573TIP3   OH256209   5.739   3.428   3.670 -0.1649  0.2291 -0.1784
11573TIP3    H156210   5.704   3.341   3.650 -0.4536  0.1842  0.4915
11573TIP3    H256211   5.718   3.480   3.592  0.3818 -0.3983 -0.7591
11574TIP3   OH256212   1.334   1.999  16.302 -0.0937  0.0276  0.0748
11574TIP3    H156213   1.288   2.039  16.375  0.6824 -1.3163  1.3527
11574TIP3    H256214   1.268   1.948  16.256 -0.7989  1.6445 -0.7879
11575TIP3   OH256215   0.352   6.439  13.013  0.2489  0.3699  0.0256
11575TIP3    H156216   0.260   6.421  13.033 -0.6207  1.7765 -2.2620
11575TIP3    H256217   0.382   6.362  12.966 -0.0065  0.2338  0.0857
11576TIP3   OH256218   4.465   3.373   4.185  0.1676 -0.1313 -0.1376
11576TIP3    H156219   4.465   3.468   4.196 -1.2928 -0.1182 -0.0383
11576TIP3    H256220   4.378   3.345   4.214  1.0710 -1.6792  1.2212
11577TIP3   OH256221   2.887   3.623  11.259 -0.0146  0.0029 -0.5489
11577TIP3    H156222   2.891   3.716  11.236 -0.9765  0.1737 -0.0567
11577TIP3    H256223   2.909   3.577  11.178  1.6361  0.6587 -0.5207
11578TIP3   OH256224   1.839   4.306  13.005  0.2027  0.5559  0.0485
11578TIP3    H156225   1.824   4.372  13.073 -1.9635 -0.3803  0.5535
11578TIP3    H256226   1.780   4.234  13.028  1.1284 -0.7731 -1.5453
11579TIP3   OH256227   0.862   0.357  13.072  0.0035  0.0316 -0.9716
11579TIP3    H156228   0.903   0.317  13.149 -0.5191 -1.5979 -1.4905
11579TIP3    H256229   0.911   0.438  13.058  2.7716 -1.5511 -1.2390
11580TIP3   OH256230   1.450   0.279   6.503 -0.5494 -0.0298  0.0798
11580TIP3    H156231   1.474   0.340   6.433  0.1445 -0.3444  0.0336
11580TIP3    H256232   1.362   0.251   6.481 -0.0361 -0.7834 -1.1583
11581TIP3   OH256233   0.989   3.269  16.061 -0.2468  0.2160  0.4558
11581TIP3    H156234   0.918   3.311  16.012 -0.8686  1.3545  2.2308
11581TIP3    H256235   0.947   3.238  16.142  0.5106 -2.6015 -0.1146
11582TIP3   OH256236   5.369   3.288   4.622 -0.3031 -0.0701 -0.0350
11582TIP3    H156237   5.413   3.204   4.636 -1.0343 -0.6004 -0.8064
11582TIP3    H256238   5.396   3.314   4.534 -1.0342 -0.0996 -0.2695
11583TIP3   OH256239   5.987   1.468  13.572 -0.0034  0.0297  0.4794
11583TIP3    H156240   6.045   1.405  13.528  0.2154  0.0354  0.7556
11583TIP3    H256241   6.045   1.517  13.631 -0.3289 -0.1219  0.9326
11584TIP3   OH256242   1.136   3.069  16.542 -0.4316  0.2297  0.1928
11584TIP3    H156243   1.221   3.037  16.511  0.6485  1.7380  1.4249
11584TIP3    H256244   1.157   3.148  16.591 -2.9230  3.4258 -3.3124
11585TIP3   OH256245   6.572   6.344  10.403 -0.1778 -0.2434  0.8901
11585TIP3    H156246   6.556   6.418  10.345 -0.5707 -0.8197  0.2409
11585TIP3    H256247   6.654   6.365  10.447  0.5861 -0.1526 -0.4912
11586TIP3   OH256248   3.389   6.075   3.146  0.0115 -0.2163  0.6163
11586TIP3    H156249   3.472   6.040   3.178  0.6852  2.5930  2.2793
11586TIP3    H256250   3.346   6.111   3.224 -0.9961  1.7504 -0.7690
11587TIP3   OH256251   5.721   5.145   0.542  0.5372 -0.3116  0.3481
11587TIP3    H156252   5.779   5.182   0.475 -1.2711  1.0178 -0.5860
11587TIP3    H256253   5.646   5.113   0.493 -1.4627  1.9114  1.7375
11588TIP3   OH256254   5.790   0.870   4.107  0.0970 -0.1150 -0.3322
11588TIP3    H156255   5.837   0.939   4.061  1.0216 -1.0895 -0.8880
11588TIP3    H256256   5.826   0.789   4.072 -1.0231 -0.8919  0.2477
11589TIP3   OH256257   1.386   3.632   2.331  0.1064 -0.5619  0.2012
11589TIP3    H156258   1.444   3.688   2.382 -0.6806 -0.7442  1.3383
11589TIP3    H256259   1.317   3.690   2.299  0.6204 -0.4418 -0.6874
11590TIP3   OH256260   4.636   1.070   1.152  0.8262 -0.1950 -0.0697
11590TIP3    H156261   4.620   1.018   1.074 -1.5167  1.2218 -0.6346
11590TIP3    H256262   4.580   1.031   1.219 -0.5711  1.2026 -0.3651
11591TIP3   OH256263   1.135   6.192  16.776 -1.2749 -0.4173  0.0744
11591TIP3    H156264   1.211   6.145  16.812 -0.8773  0.6887  0.7351
11591TIP3    H256265   1.144   6.182  16.681 -0.1700 -0.1278  0.1283
11592TIP3   OH256266   5.075   4.646  12.639  0.3763 -0.0425  0.4522
11592TIP3    H156267   5.167   4.670  12.654  0.5216 -1.0930  1.3864
11592TIP3    H256268   5.069   4.555  12.668 -0.4446 -0.7427 -1.7800
11593TIP3   OH256269   0.636   4.426   1.332 -0.0596 -0.2584  0.1334
11593TIP3    H156270   0.679   4.511   1.339 -0.8641  0.2569 -0.9184
11593TIP3    H256271   0.576   4.435   1.259  0.4079 -1.9886 -0.5204
11594TIP3   OH256272   6.815   4.557   4.856  0.5831 -0.3068  0.1926
11594TIP3    H156273   6.811   4.653   4.861  1.1222 -0.2001 -0.9684
11594TIP3    H256274   6.872   4.540   4.781  1.5959 -1.5571  1.2114
11595TIP3   OH256275   6.638   0.440  13.375 -0.1552  0.6067 -0.2765
11595TIP3    H156276   6.561   0.401  13.334 -1.1424  0.2539  1.8294
11595TIP3    H256277   6.712   0.398  13.330 -1.1662 -2.3739  0.5934
11596TIP3   OH256278   2.135   2.716  10.841  0.4085  0.1137 -0.0012
11596TIP3    H156279   2.169   2.772  10.771  1.9245 -1.5934 -0.7059
11596TIP3    H256280   2.208   2.658  10.864 -0.1805  0.3257  2.7371
11597TIP3   OH256281   5.974   0.392   5.002  0.9852  0.5193  0.6329
11597TIP3    H156282   5.928   0.429   4.926  1.3199 -0.0341  0.1503
11597TIP3    H256283   5.953   0.451   5.074  1.3024  1.5045 -0.0598
11598TIP3   OH256284   3.340   3.702  17.032 -0.5706  0.0008 -0.0317
11598TIP3    H156285   3.410   3.659  17.080 -0.2570  0.7484  0.1884
11598TIP3    H256286   3.278   3.731  17.099 -0.9428 -0.3863 -0.2009
11599TIP3   OH256287   3.414   6.785  17.114 -0.3030 -0.5222 -0.1829
11599TIP3    H156288   3.330   6.819  17.084 -0.3953 -0.2627  0.3596
11599TIP3    H256289   3.477   6.815  17.048 -0.2942  1.1788  0.5598
11600TIP3   OH256290   5.270   0.243   2.425 -0.2173 -0.2791  0.1473
11600TIP3    H156291   5.280   0.201   2.340 -1.3237  3.0280 -1.7812
11600TIP3    H256292   5.353   0.225   2.470  0.8096 -1.3138 -1.9949
11601TIP3   OH256293   2.424   1.230   2.554 -0.2121 -0.4520 -0.5830
11601TIP3    H156294   2.480   1.258   2.482  0.0892 -0.2204 -0.2580
11601TIP3    H256295   2.482   1.184   2.614  0.4260  2.6589  1.4620
11602TIP3   OH256296   4.740   3.456   0.263 -0.7517 -0.6122  0.8267
11602TIP3    H156297   4.668   3.518   0.272 -0.9660 -0.8473  0.7549
11602TIP3    H256298   4.769   3.466   0.173 -1.3759 -1.2492  0.5459
11603TIP3   OH256299   6.273   6.554   3.763 -0.4297  0.0636 -0.4405
11603TIP3    H156300   6.367   6.571   3.770 -0.2226 -1.0173 -0.3851
11603TIP3    H256301   6.267   6.460   3.745 -1.5708 -0.4796  2.2593
11604TIP3   OH256302   0.672   2.943  11.837  0.2639  0.7485  0.2946
11604TIP3    H156303   0.669   2.888  11.915  1.3929  0.7858  0.3859
11604TIP3    H256304   0.582   2.946  11.806  0.2513 -1.8663 -0.1982
11605TIP3   OH256305   5.281   2.699  13.057  0.2674 -0.6868  0.3209
11605TIP3    H156306   5.282   2.672  12.966  0.2429  0.7102 -0.1232
11605TIP3    H256307   5.299   2.619  13.107  1.7266 -1.1949 -0.9663
11606TIP3   OH256308   1.740   5.097  10.746 -0.4224  0.2638  0.3660
11606TIP3    H156309   1.700   5.177  10.711 -1.8845 -0.8431 -0.6313
11606TIP3    H256310   1.704   5.027  10.692  1.0777 -1.0604  1.0016
11607TIP3   OH256311   6.505   3.878  15.619  0.8083 -0.0586  0.2938
11607TIP3    H156312   6.535   3.790  15.643 -0.1238 -0.3108  0.5474
11607TIP3    H256313   6.463   3.911  15.698  3.6107  1.7579  1.1817
11608TIP3   OH256314   5.633   0.251   1.206 -0.0538  0.2598  0.2524
11608TIP3    H156315   5.624   0.346   1.219  0.3188  0.1615  1.3210
11608TIP3    H256316   5.648   0.217   1.293 -1.7909 -0.9854  0.1246
11609TIP3   OH256317   3.305   5.217   2.690  0.2787  0.6370  0.4610
11609TIP3    H156318   3.397   5.214   2.666  0.1084  1.4514 -0.3306
11609TIP3    H256319   3.287   5.309   2.708 -0.4890  0.5493  0.2001
11610TIP3   OH256320   4.457   3.446  15.378  0.3357  0.1673  0.6760
11610TIP3    H156321   4.526   3.394  15.420  0.7259  0.4522  0.3945
11610TIP3    H256322   4.435   3.398  15.299 -0.3936 -0.3652  1.1873
11611TIP3   OH256323   2.458   2.329  13.063  0.9091 -0.1695 -0.1289
11611TIP3    H156324   2.373   2.305  13.026  1.3082  1.8704 -2.6022
11611TIP3    H256325   2.522   2.299  12.999  2.0829 -0.9938  1.3423
11612TIP3   OH256326   1.754   3.818   0.415  0.2452  0.2608  0.0198
11612TIP3    H156327   1.668   3.801   0.451  1.1299  2.2288  3.5824
11612TIP3    H256328   1.797   3.733   0.412 -1.2567 -0.5075 -0.2533
11613TIP3   OH256329   6.575   0.290   6.076  0.0999 -0.3485  0.0981
11613TIP3    H156330   6.559   0.212   6.024 -0.0391 -0.8648  0.9074
11613TIP3    H256331   6.536   0.271   6.161  0.2123  0.5347  0.3566
11614TIP3   OH256332   6.524   0.958  12.850  0.5714  0.2194 -0.0886
11614TIP3    H156333   6.507   0.981  12.759 -1.1780 -0.7692 -0.0756
11614TIP3    H256334   6.562   0.870  12.846 -0.9087 -0.4616  0.1519
11615TIP3   OH256335   4.205   6.841  16.867  0.2175 -0.0995  0.1054
11615TIP3    H156336   4.297   6.821  16.887  0.7510  0.4357 -1.5863
11615TIP3    H256337   4.185   6.919  16.918 -0.1773 -1.6626  2.5286
11616TIP3   OH256338   1.295   0.643  10.534 -0.8521  0.1451 -0.5110
11616TIP3    H156339   1.279   0.727  10.490  0.0143  0.6379  0.0959
11616TIP3    H256340   1.297   0.664  10.627  0.5147 -0.3354 -0.4074
11617TIP3   OH256341   5.200   4.480   0.910 -0.1193  0.4811 -1.1449
11617TIP3    H156342   5.116   4.516   0.939  0.1651 -0.1521  0.6094
11617TIP3    H256343   5.254   4.477   0.990 -0.0353 -3.5402 -1.1410
11618TIP3   OH256344   2.517   0.290   6.730 -0.0639 -0.0223  0.6725
11618TIP3    H156345   2.578   0.219   6.707  1.0377  0.7593  1.0618
11618TIP3    H256346   2.534   0.357   6.664 -1.8787 -0.5018 -0.3633
11619TIP3   OH256347   2.904   1.883   1.051 -0.4050  0.0596 -0.2012
11619TIP3    H156348   2.997   1.892   1.031  0.0904  0.3964  1.9750
11619TIP3    H256349   2.900   1.812   1.115 -1.8552 -1.0147 -1.4232
11620TIP3   OH256350   2.813   3.038  10.698 -0.0750 -0.5306  0.1897
11620TIP3    H156351   2.786   2.950  10.723  4.0178 -1.1311  3.8346
11620TIP3    H256352   2.898   3.027  10.657  0.2091  1.6907  0.0207
11621TIP3   OH256353   1.218   3.538   4.718  0.0837  0.1648  0.0471
11621TIP3    H156354   1.231   3.500   4.630 -0.3792  0.6448 -0.2371
11621TIP3    H256355   1.192   3.464   4.772 -1.0019  0.0911 -0.5509
11622TIP3   OH256356   4.451   1.739   1.807  0.1257  0.2338  0.0088
11622TIP3    H156357   4.521   1.674   1.817  0.6360  0.7794  0.0472
11622TIP3    H256358   4.371   1.691   1.827  0.2723 -0.9128 -1.8409
11623TIP3   OH256359   4.024   3.420  12.997 -0.0448 -0.4222 -0.0086
11623TIP3    H156360   3.942   3.449  12.958  0.6525  0.7815 -0.6551
11623TIP3    H256361   4.004   3.405  13.089 -1.0375 -0.3861 -0.2120
11624TIP3   OH256362   5.950   0.550  11.821  0.0689 -0.1489 -0.1950
11624TIP3    H156363   5.985   0.563  11.909  2.7021 -0.5995 -1.0670
11624TIP3    H256364   5.994   0.470  11.790 -2.1760 -1.0297 -1.3012
11625TIP3   OH256365   5.888   2.320   4.045  0.0541  0.4130 -0.1197
11625TIP3    H156366   5.891   2.338   3.951  0.4971 -1.0377 -0.4144
11625TIP3    H256367   5.832   2.243   4.053  0.0201  0.5211  0.8093
11626TIP3   OH256368   0.602   5.006   6.683 -0.4057 -0.1520 -0.1047
11626TIP3    H156369   0.543   4.979   6.612 -1.2125  1.1009  0.0583
11626TIP3    H256370   0.621   5.098   6.665 -0.5193  0.1543  1.2239
11627TIP3   OH256371   6.322   1.578   3.740 -0.0087  0.7841  0.1169
11627TIP3    H156372   6.347   1.590   3.648 -1.4018 -0.0771 -0.4019
11627TIP3    H256373   6.233   1.542   3.736  0.7084 -1.3414  1.7489
11628TIP3   OH256374   0.083   0.436   3.770  0.1331 -0.8202 -0.6215
11628TIP3    H156375   0.022   0.451   3.698 -0.2210 -1.1844 -0.4005
11628TIP3    H256376   0.089   0.340   3.777  0.3675 -0.7860 -0.3396
11629TIP3   OH256377   6.487   1.882   0.223  0.5018  0.4253 -0.1907
11629TIP3    H156378   6.558   1.939   0.196  1.3589 -0.8248 -0.6625
11629TIP3    H256379   6.524   1.794   0.219 -1.8280 -0.5828 -3.2529
11630TIP3   OH256380   5.231   2.718   3.231 -0.6353 -0.0944  0.1525
11630TIP3    H156381   5.184   2.648   3.276 -1.0392  0.9953  1.5193
11630TIP3    H256382   5.300   2.743   3.292  0.3807 -0.2168 -0.9157
11631TIP3   OH256383   1.525   1.892   1.895 -0.5280  0.2988 -0.0669
11631TIP3    H156384   1.563   1.979   1.879 -1.5270  0.9816  1.0645
11631TIP3    H256385   1.589   1.831   1.859 -0.7050  1.5348 -2.7262
11632TIP3   OH256386   5.729   2.116   0.960 -0.0586  0.7506  0.4116
11632TIP3    H156387   5.696   2.096   0.873  0.0282 -0.0470  0.5480
11632TIP3    H256388   5.794   2.184   0.947  2.0176 -1.2685 -0.5250
11633TIP3   OH256389   5.990   0.708  13.250 -0.6026 -0.2252  0.1553
11633TIP3    H156390   5.906   0.754  13.248 -1.3941 -1.6501 -1.4255
11633TIP3    H256391   6.044   0.755  13.187  0.2133  1.3141  1.8845
11634TIP3   OH256392   1.882   2.240  15.763  0.3693  0.5626 -0.1781
11634TIP3    H156393   1.951   2.295  15.800  0.9357  1.4107 -2.3240
11634TIP3    H256394   1.801   2.290  15.778  0.7312  1.4454 -1.0213
11635TIP3   OH256395   0.250   5.953   2.687  0.3339 -0.0508 -0.4510
11635TIP3    H156396   0.323   5.950   2.625  0.1141  0.7591 -0.7581
11635TIP3    H256397   0.291   5.964   2.772  0.6185 -0.7248 -0.4949
11636TIP3   OH256398   4.334   2.118  11.867  0.0284  0.0252  0.2299
11636TIP3    H156399   4.337   2.123  11.772  1.5136  0.8606  0.2921
11636TIP3    H256400   4.425   2.132  11.895 -0.1730 -1.3089  1.7262
11637TIP3   OH256401   0.895   4.918  11.406  0.2458 -0.9868  0.3491
11637TIP3    H156402   0.806   4.897  11.378  0.3555  0.7933 -1.6489
11637TIP3    H256403   0.951   4.863  11.350  0.4225  1.0972 -1.6648
11638TIP3   OH256404   6.806   0.467  11.279  0.2044  0.7001  0.1240
11638TIP3    H156405   6.893   0.435  11.303 -0.0571 -0.5792 -0.5500
11638TIP3    H256406   6.763   0.392  11.237 -1.6683  0.9092  1.5068
11639TIP3   OH256407   1.075   0.910  11.850 -0.2540 -0.1839  0.9098
11639TIP3    H156408   1.015   0.838  11.870  0.1890 -0.8667 -0.1170
11639TIP3    H256409   1.044   0.944  11.766  0.7239 -0.4986  0.3962
11640TIP3   OH256410   1.581   6.137  12.078 -0.1495 -0.0787  0.1841
11640TIP3    H156411   1.659   6.142  12.134  0.0981 -1.6791  0.0220
11640TIP3    H256412   1.517   6.089  12.130 -0.6965  0.3830 -0.0601
11641TIP3   OH256413   1.867   5.674   0.951 -0.0349  0.4185 -0.2500
11641TIP3    H156414   1.777   5.656   0.923 -0.4855  2.9516 -0.6713
11641TIP3    H256415   1.864   5.763   0.985  1.9880 -0.0506  1.4088
11642TIP3   OH256416   4.340   2.020  12.217 -0.4464  0.6376  0.0551
11642TIP3    H156417   4.277   1.949  12.227  1.0055 -0.5778  0.9995
11642TIP3    H256418   4.384   2.003  12.134  1.0297 -0.5535  1.0415
11643TIP3   OH256419   6.049   3.741   5.437  0.3220 -0.0176 -0.1911
11643TIP3    H156420   5.983   3.794   5.392 -1.1748 -0.4154  1.4312
11643TIP3    H256421   6.126   3.747   5.381 -0.5648  1.8152 -1.3258
11644TIP3   OH256422   2.316   2.889  16.305  0.3631 -0.2840 -0.3022
11644TIP3    H156423   2.247   2.823  16.319 -1.5314  1.5794 -0.4178
11644TIP3    H256424   2.318   2.901  16.210  0.5400 -0.0015 -0.2617
11645TIP3   OH256425   1.573   5.304  12.248  0.1648 -0.2313 -0.0869
11645TIP3    H156426   1.629   5.246  12.301  1.3842  0.6885 -0.3509
11645TIP3    H256427   1.536   5.246  12.181 -0.7995 -1.2603  1.2706
11646TIP3   OH256428   5.600   5.218  14.109  0.5982 -0.4191 -0.3478
11646TIP3    H156429   5.674   5.164  14.082 -0.4373 -1.3958 -1.3488
11646TIP3    H256430   5.562   5.250  14.027 -1.1968 -1.5066 -0.0040
11647TIP3   OH256431   0.958   4.414   3.886  0.1644 -0.4815 -0.0383
11647TIP3    H156432   0.874   4.427   3.929  0.8953  2.2508  0.7139
11647TIP3    H256433   1.000   4.344   3.936 -0.8057 -0.4131  0.8978
11648TIP3   OH256434   2.360   3.477   0.733 -0.1441  0.0633 -0.3701
11648TIP3    H156435   2.415   3.458   0.809  0.0681  1.5347 -0.1298
11648TIP3    H256436   2.369   3.399   0.678  0.9748 -0.3656  0.3681
11649TIP3   OH256437   4.977   4.336   1.120 -0.0184 -0.3461 -0.0402
11649TIP3    H156438   5.072   4.332   1.129  0.0341 -2.6934 -0.8948
11649TIP3    H256439   4.960   4.305   1.030 -1.5645  0.7040 -0.1542
11650TIP3   OH256440   2.099   4.011  15.399 -0.9283  0.3329  0.8435
11650TIP3    H156441   2.191   4.026  15.423 -1.4395  0.8641  2.5339
11650TIP3    H256442   2.103   3.990  15.305  0.8580  0.9134  0.7468
11651TIP3   OH256443   3.356   5.711  12.887  0.2962 -0.0767  0.1263
11651TIP3    H156444   3.313   5.680  12.967 -1.2442 -1.3886 -1.1528
11651TIP3    H256445   3.402   5.634  12.853  4.4895  1.3847  1.7839
11652TIP3   OH256446   1.796   1.889  14.719  0.4502  0.7582 -0.8669
11652TIP3    H156447   1.744   1.926  14.789 -1.3017 -0.2452 -1.5839
11652TIP3    H256448   1.876   1.942  14.718  1.0023  0.1813  2.4856
11653TIP3   OH256449   3.632   4.302  16.583  0.1049  0.2018  0.2605
11653TIP3    H156450   3.654   4.395  16.577  3.2077 -0.4643 -1.1836
11653TIP3    H256451   3.583   4.284  16.503  1.8242  0.1739 -0.8490
11654TIP3   OH256452   3.016   6.152   3.311  0.5382 -0.1091  0.0555
11654TIP3    H156453   2.959   6.227   3.292 -0.1179 -0.3423  1.0363
11654TIP3    H256454   3.035   6.114   3.225  0.5488  0.9250 -0.4247
11655TIP3   OH256455   0.851   4.814   5.094  0.3961 -0.1961  0.3099
11655TIP3    H156456   0.807   4.898   5.108  1.4181  0.4553 -0.2139
11655TIP3    H256457   0.910   4.831   5.020  0.1712 -1.5541 -0.2086
11656TIP3   OH256458   0.732   2.146  16.093 -0.0732 -0.3811  0.4568
11656TIP3    H156459   0.812   2.190  16.065 -0.5662  0.4139  0.2658
11656TIP3    H256460   0.665   2.176  16.032 -0.7771 -0.0349  1.3659
11657TIP3   OH256461   5.254   1.296   1.589 -0.3536 -0.1020 -0.3955
11657TIP3    H156462   5.197   1.266   1.660 -1.4069  0.7167 -0.8581
11657TIP3    H256463   5.281   1.384   1.616  0.6730 -0.4555 -0.2126
11658TIP3   OH256464   2.464   5.390   1.194  0.2954 -0.0963  0.2183
11658TIP3    H156465   2.369   5.391   1.206  0.4480  3.3608  2.7277
11658TIP3    H256466   2.492   5.308   1.235 -1.5264 -0.8202  0.1196
11659TIP3   OH256467   6.240   6.310   2.665  0.1746  0.2302  0.4200
11659TIP3    H156468   6.171   6.250   2.694  2.2887 -2.7947 -0.3962
11659TIP3    H256469   6.293   6.324   2.743  0.3560  0.0371  0.3326
11660TIP3   OH256470   1.826   3.416  13.832 -0.1365 -0.0288 -0.6884
11660TIP3    H156471   1.854   3.504  13.810 -0.0176 -0.2688 -1.5785
11660TIP3    H256472   1.735   3.426  13.860  0.3181  0.5465  0.6658
11661TIP3   OH256473   6.816   6.278   5.397  0.1333 -0.0288 -0.4116
11661TIP3    H156474   6.725   6.277   5.367  1.0616  0.2092 -3.6506
11661TIP3    H256475   6.847   6.366   5.377  0.7726  0.3164  1.8649
11662TIP3   OH256476   0.730   4.531   1.629  0.5652  0.0796  0.6101
11662TIP3    H156477   0.702   4.591   1.698  1.5672  0.9607  0.2792
11662TIP3    H256478   0.702   4.444   1.659 -0.9539  0.6901  1.0757
11663TIP3   OH256479   3.952   0.851   1.852  0.3290  0.1792 -0.2341
11663TIP3    H156480   3.978   0.923   1.794 -0.8419  1.8565  1.2095
11663TIP3    H256481   3.862   0.832   1.826  0.9510 -1.5077 -1.2720
11664TIP3   OH256482   6.421   2.757   0.955 -0.4183  0.1431 -0.0166
11664TIP3    H156483   6.463   2.788   1.035 -0.4555 -1.3033  0.5969
11664TIP3    H256484   6.332   2.793   0.959 -0.5682 -0.2972  0.8342
11665TIP3   OH256485   1.526   2.006   4.977 -0.6150  0.0399  0.4029
11665TIP3    H156486   1.537   2.047   4.891 -1.3874  1.0975  0.7821
11665TIP3    H256487   1.611   1.968   4.996 -0.3249  0.1051 -0.6680
11666TIP3   OH256488   3.323   3.094  15.680 -0.0030  0.9187 -0.1169
11666TIP3    H156489   3.393   3.036  15.649 -0.5148 -0.1527  0.6639
11666TIP3    H256490   3.246   3.066  15.631 -0.4143  0.4144  0.7805
11667TIP3   OH256491   1.656   6.796   5.548 -0.0760 -0.1375  0.3313
11667TIP3    H156492   1.725   6.812   5.612  1.2353  0.8457 -1.2629
11667TIP3    H256493   1.618   6.712   5.573  1.6957 -0.6978  1.2464
11668TIP3   OH256494   4.658   1.402   2.484 -0.0749  0.3011 -0.0441
11668TIP3    H156495   4.626   1.346   2.413 -2.4639  2.6803 -0.9960
11668TIP3    H256496   4.611   1.370   2.562  1.4910 -1.4011  0.2717
11669TIP3   OH256497   5.801   2.920  11.427 -0.0667 -0.9622 -0.3749
11669TIP3    H156498   5.710   2.901  11.451 -0.1896  0.8079  0.7191
11669TIP3    H256499   5.796   2.996  11.369  0.7504 -0.1432  0.5781
11670TIP3   OH256500   3.938   3.612  12.605 -0.1086  0.1635  0.4601
11670TIP3    H156501   3.922   3.634  12.514  2.7671  1.3541  0.1270
11670TIP3    H256502   3.929   3.695  12.652 -1.8307 -0.4837  1.3693
11671TIP3   OH256503   5.425   2.453  15.915  1.0225 -0.0457 -0.1151
11671TIP3    H156504   5.484   2.403  15.970  0.1493 -0.9541  0.0272
11671TIP3    H256505   5.343   2.456  15.964  0.7717  0.6990 -0.5560
11672TIP3   OH256506   1.483   6.728  14.669  0.0924  0.3982  0.2361
11672TIP3    H156507   1.485   6.777  14.587  0.8965  1.6579  0.9635
11672TIP3    H256508   1.470   6.796  14.736  0.7148 -0.4456  1.2404
11673TIP3   OH256509   2.701   0.984  16.899 -0.1672  0.5226  0.0332
11673TIP3    H156510   2.676   0.982  16.991  0.1744  0.7502  0.1321
11673TIP3    H256511   2.788   0.944  16.896  0.8047  2.5267  0.1334
11674TIP3   OH256512   1.493   5.993  10.593  0.1608  0.0214 -0.8107
11674TIP3    H156513   1.462   5.959  10.509 -1.2846  0.3520 -0.4335
11674TIP3    H256514   1.417   5.991  10.650  0.3853  2.4130 -0.3076
11675TIP3   OH256515   4.403   2.701   3.149  0.1680  0.0850  0.3836
11675TIP3    H156516   4.379   2.763   3.217  0.3921 -2.0673  2.5936
11675TIP3    H256517   4.497   2.685   3.163  0.2992 -0.1128 -0.6661
11676TIP3   OH256518   5.586   1.947  15.847 -0.7043 -0.0176  0.2976
11676TIP3    H156519   5.543   1.928  15.763 -1.6727 -1.3845  1.0634
11676TIP3    H256520   5.514   1.962  15.908 -0.0254  0.4103  1.0094
11677TIP3   OH256521   6.399   5.233   0.450  0.0280  0.1801  0.0536
11677TIP3    H156522   6.466   5.170   0.424 -0.0237 -0.0038  0.3734
11677TIP3    H256523   6.448   5.302   0.495 -0.2299 -1.0899  2.4484
11678TIP3   OH256524   3.082   4.671   4.779 -0.8433 -0.0461 -0.1631
11678TIP3    H156525   3.087   4.648   4.686  1.7439  0.0166 -0.1244
11678TIP3    H256526   3.062   4.765   4.779 -2.4305 -0.3511 -0.5629
11679TIP3   OH256527   5.177   4.600  14.277 -0.0128  0.5865 -0.5853
11679TIP3    H156528   5.143   4.686  14.251 -1.2270  0.9874  2.0781
11679TIP3    H256529   5.101   4.542  14.275  0.4249  0.0037 -0.5308
11680TIP3   OH256530   6.115   4.668  16.621  0.1622  0.6716 -0.2270
11680TIP3    H156531   6.064   4.732  16.572 -0.0184  1.1179  0.5438
11680TIP3    H256532   6.197   4.661  16.572 -0.0897  0.9777 -0.6967
11681TIP3   OH256533   4.654   6.198  16.017  0.7237  0.0442 -0.4529
11681TIP3    H156534   4.711   6.122  16.026  1.3572  0.7078  1.6449
11681TIP3    H256535   4.691   6.263  16.077 -0.5225  1.5697 -1.2677
11682TIP3   OH256536   1.556   1.900  13.302  0.4972  0.0332 -0.6375
11682TIP3    H156537   1.534   1.936  13.388 -1.2366  2.2021 -1.8811
11682TIP3    H256538   1.627   1.957  13.270  2.0384 -1.5492 -0.2037
11683TIP3   OH256539   5.271   0.837  11.176  0.1880  0.5212  0.0896
11683TIP3    H156540   5.242   0.914  11.128 -0.4703  0.5624  0.5321
11683TIP3    H256541   5.246   0.854  11.267  1.1573  0.3200  0.4075
11684TIP3   OH256542   1.724   0.627   3.855 -0.1735 -0.5125  0.0902
11684TIP3    H156543   1.649   0.684   3.874 -0.8167 -1.1745 -0.3793
11684TIP3    H256544   1.720   0.615   3.760  0.9192 -0.0445 -0.0311
11685TIP3   OH256545   4.593   1.458   5.011 -0.2011 -0.5071 -0.3621
11685TIP3    H156546   4.505   1.486   4.986 -0.0373  0.4096  0.0706
11685TIP3    H256547   4.579   1.398   5.084 -0.5347 -1.4360 -1.1513
11686TIP3   OH256548   0.216   0.805   1.133 -0.1442 -0.5713  0.3043
11686TIP3    H156549   0.163   0.823   1.210  1.5009  2.3042  0.8981
11686TIP3    H256550   0.306   0.818   1.162  0.4941  1.3848 -2.2337
11687TIP3   OH256551   4.022   6.745  16.550 -0.4157  0.2026  0.2547
11687TIP3    H156552   3.955   6.808  16.525 -1.0789 -1.3900 -2.3302
11687TIP3    H256553   4.084   6.744  16.477  1.9420  0.8476  2.0924
11688TIP3   OH256554   4.469   0.755  12.566  0.2663  0.1334 -0.4671
11688TIP3    H156555   4.545   0.784  12.516  1.3047  0.7349  1.3690
11688TIP3    H256556   4.483   0.661  12.579  0.4546  0.1485 -0.5548
11689TIP3   OH256557   0.605   4.943  10.973  0.1395 -0.3050 -0.1522
11689TIP3    H156558   0.631   4.986  10.891 -0.0020  0.6942  0.3116
11689TIP3    H256559   0.685   4.941  11.025  0.3891 -1.5536 -0.5677
11690TIP3   OH256560   5.094   6.645  11.724 -0.0144  0.3590 -0.3008
11690TIP3    H156561   5.007   6.628  11.760 -0.1536  0.6240 -0.5092
11690TIP3    H256562   5.098   6.739  11.712  1.3023  0.6988  2.1952
11691TIP3   OH256563   1.563   3.849  13.168  0.5659  0.1989 -0.0363
11691TIP3    H156564   1.501   3.888  13.105 -0.1722  1.1677  1.2241
11691TIP3    H256565   1.525   3.870  13.253  0.5894 -2.6244  0.7499
11692TIP3   OH256566   5.620   1.761   6.050 -0.7112  0.1885 -0.4909
11692TIP3    H156567   5.684   1.828   6.025  0.3604 -0.4838  0.3511
11692TIP3    H256568   5.552   1.809   6.096  0.4836  0.6404  0.9031
11693TIP3   OH256569   2.976   4.461  14.164  0.0370 -0.3141  0.0375
11693TIP3    H156570   2.976   4.541  14.215  3.1838  0.1904 -0.5342
11693TIP3    H256571   2.983   4.490  14.073 -1.2583 -1.2469 -0.3882
11694TIP3   OH256572   1.841   4.531  16.758 -0.2461  0.1098  0.1554
11694TIP3    H156573   1.920   4.482  16.780 -0.1868  0.3199  0.4075
11694TIP3    H256574   1.815   4.572  16.840 -0.8057 -0.2245  0.1498
11695TIP3   OH256575   1.331   1.293   2.109 -0.2339 -0.0015  0.0872
11695TIP3    H156576   1.383   1.296   2.029 -1.8947 -0.4290 -1.0706
11695TIP3    H256577   1.345   1.379   2.150  1.5658 -0.2060  0.0022
11696TIP3   OH256578   0.343   4.572  17.099  0.8853  0.0524 -0.0310
11696TIP3    H156579   0.395   4.495  17.076  1.6196  0.5651 -0.1058
11696TIP3    H256580   0.407   4.639  17.120  0.2527  0.6802 -0.0682
11697TIP3   OH256581   4.532   1.625   5.822 -0.0743 -0.0469  0.0450
11697TIP3    H156582   4.495   1.579   5.897 -0.3416  0.7048  0.3840
11697TIP3    H256583   4.501   1.575   5.746  0.3004 -0.8809  0.4265
11698TIP3   OH256584   2.008   0.833  11.771  0.1415 -0.2005 -0.4550
11698TIP3    H156585   2.050   0.872  11.848 -0.6511 -0.4548  0.1285
11698TIP3    H256586   1.931   0.888  11.756 -0.1786 -0.6655 -0.5275
11699TIP3   OH256587   0.137   6.573   6.089 -0.0082  0.1595  0.5821
11699TIP3    H156588   0.098   6.656   6.117 -1.5829 -0.4991  0.4029
11699TIP3    H256589   0.142   6.521   6.169 -0.5965 -0.1907  0.3909
11700TIP3   OH256590   4.554   6.059  17.147  0.2660  0.0150  0.5143
11700TIP3    H156591   4.544   6.096  17.235  0.6594 -1.1028  1.0421
11700TIP3    H256592   4.628   6.106  17.109 -1.2896  2.1290 -0.1171
11701TIP3   OH256593   3.096   5.993   2.207  0.4402  0.2335  0.1008
11701TIP3    H156594   3.148   5.950   2.139  0.8342 -0.1055  0.6151
11701TIP3    H256595   3.122   6.085   2.201 -1.1125  0.6160 -1.6490
11702TIP3   OH256596   5.489   5.328   2.585 -0.0221 -0.6468 -0.3576
11702TIP3    H156597   5.566   5.341   2.530 -1.4674  0.4201 -2.2503
11702TIP3    H256598   5.422   5.294   2.526 -1.1470 -1.1857  1.1443
11703TIP3   OH256599   3.538   2.912  15.610  0.2039  0.0976 -0.1980
11703TIP3    H156600   3.564   2.823  15.634 -1.8839 -1.2812 -2.5002
11703TIP3    H256601   3.482   2.900  15.533 -1.5087  3.2880  0.3887
11704TIP3   OH256602   2.331   2.821  12.786  0.1506  0.3377 -0.5670
11704TIP3    H156603   2.258   2.778  12.830  0.1874  1.2310  0.4054
11704TIP3    H256604   2.402   2.819  12.850  0.8791 -0.1899 -1.3629
11705TIP3   OH256605   5.849   2.846  16.077  0.1441  0.2060 -0.4037
11705TIP3    H156606   5.903   2.824  16.002 -0.4273  1.5795 -1.2505
11705TIP3    H256607   5.765   2.873  16.040 -0.2382  0.6818  0.7390
11706TIP3   OH256608   0.289   0.311   0.153  0.1376 -0.4503  0.1825
11706TIP3    H156609   0.260   0.263   0.076  0.4909 -0.3045 -0.0413
11706TIP3    H256610   0.371   0.352   0.127 -0.0355  0.0707  0.4538
11707TIP3   OH256611   6.246   0.326  14.815  0.1090  0.2221  0.0043
11707TIP3    H156612   6.190   0.256  14.850 -0.3941  0.6127 -0.0018
11707TIP3    H256613   6.330   0.314  14.859  0.2501 -0.8108 -0.5103
11708TIP3   OH256614   2.523   3.126   3.251 -0.5097  0.0152 -0.3946
11708TIP3    H156615   2.567   3.047   3.218  2.2619  0.7628  1.2066
11708TIP3    H256616   2.449   3.092   3.302 -0.2239 -1.4737 -0.9003
11709TIP3   OH256617   2.944   5.047   2.984 -0.6968  0.4542  0.2208
11709TIP3    H156618   3.026   5.048   2.935 -0.1147  0.4326  1.1730
11709TIP3    H256619   2.917   4.955   2.983 -1.0079  0.5425 -0.5537
11710TIP3   OH256620   6.577   6.152   4.564 -0.4201  0.1149 -0.1034
11710TIP3    H156621   6.638   6.078   4.567  0.5033  0.8510 -0.2308
11710TIP3    H256622   6.633   6.230   4.571 -1.5767  0.8032  3.3491
11711TIP3   OH256623   3.615   6.442   1.036 -0.1032 -0.2991  0.3303
11711TIP3    H156624   3.642   6.431   1.128  2.1288  1.4345 -0.0173
11711TIP3    H256625   3.689   6.408   0.985 -0.3793  0.7127 -0.7827
11712TIP3   OH256626   0.766   0.492  15.616 -0.0431  0.5151  0.3318
11712TIP3    H156627   0.732   0.436  15.546 -0.3602 -0.6405  1.3773
11712TIP3    H256628   0.759   0.581  15.580 -2.0352  0.1372 -0.3742
11713TIP3   OH256629   6.833   1.656  16.468  0.4251  0.3199 -0.1999
11713TIP3    H156630   6.829   1.733  16.525  1.2464  0.3627 -0.1828
11713TIP3    H256631   6.909   1.608  16.499  0.1745 -0.2767 -0.4978
11714TIP3   OH256632   5.991   4.356   5.188 -0.7525 -0.3581  0.1719
11714TIP3    H156633   5.945   4.403   5.257  0.0137 -0.4614  0.7712
11714TIP3    H256634   6.036   4.285   5.233 -2.2411 -1.9803 -0.7767
11715TIP3   OH256635   4.551   1.868  14.711 -0.1845 -0.2383  0.0954
11715TIP3    H156636   4.529   1.880  14.804  0.1744 -0.2335  0.1828
11715TIP3    H256637   4.496   1.795  14.683 -2.0134  1.2373 -0.3045
11716TIP3   OH256638   1.956   2.900   0.798  0.2548 -0.0376  0.2625
11716TIP3    H156639   1.984   2.815   0.765  0.3626 -0.2998  1.0055
11716TIP3    H256640   1.873   2.917   0.753  0.8016  0.0151 -0.7576
11717TIP3   OH256641   2.553   5.972   5.560 -0.3050 -0.4975 -0.3087
11717TIP3    H156642   2.524   6.029   5.489 -1.2477  1.7618  1.7728
11717TIP3    H256643   2.496   5.994   5.634  0.1086 -3.3179  0.9809
11718TIP3   OH256644   3.759   5.496  12.856  0.2581 -0.1584 -1.0227
11718TIP3    H156645   3.777   5.466  12.945  1.0855 -0.3621 -1.2528
11718TIP3    H256646   3.797   5.584  12.852 -1.3939  0.6113 -0.6235
11719TIP3   OH256647   0.787   5.401  13.204 -0.0755  0.4471  0.0402
11719TIP3    H156648   0.776   5.321  13.256  0.6949  0.9267  0.9809
11719TIP3    H256649   0.710   5.403  13.147 -1.3839  0.2496  1.6796
11720TIP3   OH256650   3.392   2.149   6.375  0.1219 -0.3767  0.0783
11720TIP3    H156651   3.368   2.057   6.390  0.0377 -0.1308  1.6630
11720TIP3    H256652   3.486   2.152   6.393 -0.2972  0.2635  2.5110
11721TIP3   OH256653   5.237   0.839   4.513 -0.6143 -0.7251 -0.4427
11721TIP3    H156654   5.258   0.925   4.548 -1.1455 -1.4076  1.7268
11721TIP3    H256655   5.141   0.838   4.508 -0.7190 -1.6682  1.0288
11722TIP3   OH256656   6.301   0.213  14.291  0.7422  0.3510 -0.0487
11722TIP3    H156657   6.230   0.242  14.347  0.5838 -1.5404  0.7918
11722TIP3    H256658   6.378   0.210  14.348  0.9630  0.0903 -0.3501
11723TIP3   OH256659   6.812   4.247  17.061  0.1821 -0.3563  0.1180
11723TIP3    H156660   6.730   4.226  17.018  1.0689  1.0728 -2.5439
11723TIP3    H256661   6.812   4.343  17.068  1.0028 -0.4216  1.4269
11724TIP3   OH256662   4.113   2.897  12.793  0.0695 -0.1448  0.5744
11724TIP3    H156663   4.074   2.971  12.745  1.3502 -0.1144 -0.4598
11724TIP3    H256664   4.140   2.836  12.725  0.4661 -0.8434  1.3492
11725TIP3   OH256665   4.450   5.801   3.700 -0.8120  0.0715  0.3155
11725TIP3    H156666   4.456   5.788   3.606  0.6579  0.0871  0.3943
11725TIP3    H256667   4.365   5.763   3.724 -1.3202  0.3095 -1.0380
11726TIP3   OH256668   3.534   3.002   4.027 -0.1429 -0.4769 -0.1656
11726TIP3    H156669   3.514   3.018   4.120 -1.9102 -0.7235 -0.4669
11726TIP3    H256670   3.566   3.086   3.995 -1.7874  0.3022  0.1319
11727TIP3   OH256671   0.879   5.830   2.519 -0.0760  0.1233  0.3171
11727TIP3    H156672   0.859   5.738   2.537  0.4475  0.2065  1.4196
11727TIP3    H256673   0.878   5.836   2.424 -2.5805 -0.4543  0.2507
11728TIP3   OH256674   4.824   2.129   4.890 -0.2901  0.3908  0.0967
11728TIP3    H156675   4.856   2.049   4.932 -0.5634  1.8253  3.3173
11728TIP3    H256676   4.827   2.196   4.958 -0.2881  3.1473 -2.3808
11729TIP3   OH256677   4.674   6.635   4.435 -0.2477 -0.0760  0.2188
11729TIP3    H156678   4.716   6.633   4.348 -2.7608 -0.7013 -1.0758
11729TIP3    H256679   4.690   6.549   4.472 -1.2643 -0.6983 -0.7402
11730TIP3   OH256680   6.821   5.016  11.204  0.1494 -0.4569 -0.1082
11730TIP3    H156681   6.768   5.029  11.283 -1.6096 -0.7145 -1.1858
11730TIP3    H256682   6.809   5.098  11.154  0.9525 -0.4340 -0.2740
11731TIP3   OH256683   5.181   5.882   0.965  0.3403  0.2247 -0.1178
11731TIP3    H156684   5.255   5.912   1.018  1.0077 -0.9117 -0.3724
11731TIP3    H256685   5.166   5.953   0.903  2.9641 -0.5707 -1.7976
11732TIP3   OH256686   3.929   4.809  14.299 -0.0606 -0.3113  0.0033
11732TIP3    H156687   4.017   4.843  14.316 -0.1947 -0.5648  1.2432
11732TIP3    H256688   3.879   4.830  14.377 -1.4588  0.8965 -1.1465
11733TIP3   OH256689   2.223   6.428  16.470 -0.0479  0.1093  0.8286
11733TIP3    H156690   2.293   6.462  16.415  0.9328 -0.5775  1.6196
11733TIP3    H256691   2.204   6.499  16.531 -2.2192  1.4876 -1.2639
11734TIP3   OH256692   4.311   4.085   0.423  0.2036  0.4281 -0.1958
11734TIP3    H156693   4.340   4.172   0.450  1.0788 -0.3294  1.3900
11734TIP3    H256694   4.325   4.084   0.328 -0.8990  2.3919 -0.4389
11735TIP3   OH256695   5.938   4.145   1.862 -0.2875 -0.5168  0.1837
11735TIP3    H156696   5.854   4.118   1.826 -0.2562 -1.3435  0.7154
11735TIP3    H256697   5.951   4.234   1.828 -0.7977 -0.8363 -0.8988
11736TIP3   OH256698   3.042   4.700   1.024 -0.0781  0.8794  0.1954
11736TIP3    H156699   2.991   4.758   1.080 -0.9380  1.1859 -0.8639
11736TIP3    H256700   3.120   4.751   1.001 -1.1640  1.9439 -1.3054
11737TIP3   OH256701   1.253   3.587  13.893 -0.0465 -0.0023 -0.1835
11737TIP3    H156702   1.332   3.553  13.935 -0.1976  0.1521  0.2340
11737TIP3    H256703   1.280   3.670  13.854 -0.1463  0.3696  0.5106
11738TIP3   OH256704   4.078   0.067  14.502  0.1789 -0.0500  0.3161
11738TIP3    H156705   4.135   0.127  14.454  0.1530 -0.5558 -0.3509
11738TIP3    H256706   4.016   0.125  14.547 -1.2980  0.3998 -2.1298
11739TIP3   OH256707   4.343   5.078   1.780 -0.3440 -0.4608 -0.4110
11739TIP3    H156708   4.395   5.000   1.795 -0.2712 -0.4478 -0.5973
11739TIP3    H256709   4.381   5.144   1.839 -0.4947 -0.6052 -0.1532
11740TIP3   OH256710   5.645   6.766  17.120 -0.4628  0.1986  0.1218
11740TIP3    H156711   5.627   6.755  17.027  1.4197 -1.6446 -0.1123
11740TIP3    H256712   5.592   6.698  17.163 -0.3079  0.1538  0.2453
11741TIP3   OH256713   2.351   0.940  15.206 -0.0332 -0.1078  0.9988
11741TIP3    H156714   2.325   0.938  15.299  0.8647 -0.2965  1.2582
11741TIP3    H256715   2.404   1.019  15.198  1.0958 -0.8393  0.9992
11742TIP3   OH256716   4.837   1.578   5.369  0.3349 -0.1340  0.3642
11742TIP3    H156717   4.800   1.602   5.455  0.5451 -0.6939  0.6089
11742TIP3    H256718   4.929   1.562   5.386  0.2960 -0.6395  0.1076
11743TIP3   OH256719   3.114   1.879   0.373  0.3768  0.1761 -0.1145
11743TIP3    H156720   3.203   1.843   0.374  0.4161  0.2755  0.9921
11743TIP3    H256721   3.091   1.888   0.465 -0.8964 -0.1190 -0.3871
11744TIP3   OH256722   0.208   5.650   4.097  0.1120  0.0846  0.2165
11744TIP3    H156723   0.130   5.627   4.047 -0.4492  3.4405 -0.6982
11744TIP3    H256724   0.279   5.644   4.034  0.4591 -1.6429  0.7079
11745TIP3   OH256725   2.854   4.167   0.063  0.3295  0.2778  0.3104
11745TIP3    H156726   2.899   4.083   0.052 -0.0182 -0.2050  2.2693
11745TIP3    H256727   2.925   4.229   0.083  0.3072 -0.2288  2.1156
11746TIP3   OH256728   6.692   1.001   1.714 -0.0368  0.2672 -0.4924
11746TIP3    H156729   6.701   1.073   1.651  3.6331 -0.1086 -0.6588
11746TIP3    H256730   6.646   0.932   1.666 -1.1246  1.4873 -1.2666
11747TIP3   OH256731   2.418   1.334   3.789 -1.1232  0.3847 -0.0417
11747TIP3    H156732   2.486   1.345   3.723 -0.7983 -1.6881 -0.1295
11747TIP3    H256733   2.442   1.395   3.859 -0.1694  0.9318 -0.8253
11748TIP3   OH256734   4.794   6.015   4.907  0.2336  0.4825  0.5738
11748TIP3    H156735   4.721   6.023   4.968 -0.7179  1.7270 -0.7074
11748TIP3    H256736   4.851   5.949   4.948 -2.3416 -1.7521  0.8428
11749TIP3   OH256737   6.733   3.689  13.068 -0.3602  0.7919  0.4231
11749TIP3    H156738   6.698   3.635  13.138 -1.1158  1.6129  0.6943
11749TIP3    H256739   6.675   3.673  12.993  0.5566 -0.2290 -0.0917
11750TIP3   OH256740   5.119   0.955   0.594 -0.0662 -0.0368  0.1800
11750TIP3    H156741   5.209   0.938   0.625 -0.0292 -1.8504 -0.7449
11750TIP3    H256742   5.064   0.905   0.654 -0.2665 -0.6883 -0.5334
11751TIP3   OH256743   5.756   1.703  12.113 -0.4534  0.0065  1.1250
11751TIP3    H156744   5.757   1.796  12.137  0.7410 -0.2874  2.3443
11751TIP3    H256745   5.849   1.679  12.110 -0.6077 -0.5982 -1.5692
11752TIP3   OH256746   1.526   0.201   1.276 -0.2979 -0.4431 -0.2940
11752TIP3    H156747   1.593   0.158   1.330 -0.6575  0.0876  0.5885
11752TIP3    H256748   1.525   0.291   1.306 -0.7206 -0.2069 -0.9931
11753TIP3   OH256749   5.115   4.344   1.642 -0.0682  0.3037  0.4796
11753TIP3    H156750   5.161   4.359   1.559  0.3123  0.7418  0.7639
11753TIP3    H256751   5.183   4.347   1.709 -0.5525  1.5297  0.9722
11754TIP3   OH256752   2.151   3.670   3.218 -0.5547  0.3457 -1.0271
11754TIP3    H156753   2.168   3.647   3.126  3.1463 -0.0729 -0.3942
11754TIP3    H256754   2.161   3.587   3.266 -0.3137  0.9257 -0.0476
11755TIP3   OH256755   3.826   3.878  14.645 -0.3255 -0.1438 -0.5741
11755TIP3    H156756   3.782   3.820  14.583  0.7571  0.2368 -1.7257
11755TIP3    H256757   3.844   3.958  14.596  0.3508  0.2579  0.2970
11756TIP3   OH256758   5.574   6.360   5.548 -0.1385 -0.3194 -0.3138
11756TIP3    H156759   5.559   6.338   5.456 -1.1535 -0.2449 -0.1734
11756TIP3    H256760   5.540   6.449   5.557 -2.7439 -1.3349  0.7764
11757TIP3   OH256761   5.186   2.546   5.399  0.5994  0.0014 -0.9297
11757TIP3    H156762   5.152   2.460   5.423  1.9635 -0.7716 -1.6494
11757TIP3    H256763   5.276   2.546   5.432  1.6835 -0.1181 -3.6467
11758TIP3   OH256764   1.873   1.291   3.726 -0.4646 -0.4427  0.3350
11758TIP3    H156765   1.926   1.214   3.746 -0.2134 -0.4089 -0.1970
11758TIP3    H256766   1.847   1.325   3.811 -0.6052 -1.1363  0.5784
11759TIP3   OH256767   5.781   3.239   4.288  0.0302 -0.3674  0.3940
11759TIP3    H156768   5.771   3.305   4.219 -1.4689 -1.4757 -0.5220
11759TIP3    H256769   5.822   3.164   4.244  0.6344 -0.4773  1.1315
11760TIP3   OH256770   5.381   0.198  11.548  0.2308 -0.1384 -0.0597
11760TIP3    H156771   5.400   0.119  11.598 -1.1029 -0.4642 -0.0309
11760TIP3    H256772   5.389   0.270  11.611 -0.7835 -0.4837  0.4977
11761TIP3   OH256773   3.085   0.993  16.489 -0.1271 -0.4324 -0.8467
11761TIP3    H156774   3.165   1.041  16.467 -0.3613  0.3726  0.0046
11761TIP3    H256775   3.099   0.906  16.452  0.0060  0.4739 -3.1010
11762TIP3   OH256776   6.688   6.789   2.499  0.4902  0.5932  0.6143
11762TIP3    H156777   6.655   6.719   2.443 -0.7048  2.5779 -1.3189
11762TIP3    H256778   6.726   6.743   2.574 -0.7438 -2.0785 -0.2550
11763TIP3   OH256779   6.219   1.871   3.259 -0.2259 -0.1297  0.0660
11763TIP3    H156780   6.181   1.861   3.346  0.9062  1.5100  0.8116
11763TIP3    H256781   6.311   1.889   3.275  0.0112  0.2095 -1.4819
11764TIP3   OH256782   6.707   3.197   4.288 -0.4664 -0.4898  0.4058
11764TIP3    H156783   6.797   3.199   4.322 -0.6850 -2.1210  1.1412
11764TIP3    H256784   6.717   3.210   4.194  0.9352 -4.0580 -0.1020
11765TIP3   OH256785   5.221   1.693  12.217  0.4950  0.0313 -0.7980
11765TIP3    H156786   5.166   1.649  12.281  0.0401  2.0842  0.3031
11765TIP3    H256787   5.172   1.687  12.135 -0.8421  0.7865 -0.0839
11766TIP3   OH256788   3.540   5.210  13.719 -0.1481 -0.5432  0.3426
11766TIP3    H156789   3.563   5.302  13.713  1.4702 -0.9285  0.3478
11766TIP3    H256790   3.470   5.199  13.653  0.3491  0.4604 -0.3844
11767TIP3   OH256791   4.625   1.583  12.921 -0.1045 -0.0376  0.4069
11767TIP3    H156792   4.674   1.502  12.902 -0.7288 -0.2068 -0.5182
11767TIP3    H256793   4.693   1.648  12.939  0.5133 -0.1171 -1.4454
11768TIP3   OH256794   4.529   2.805  14.495 -0.2194 -0.1733  0.2193
11768TIP3    H156795   4.474   2.727  14.485  0.4088 -0.4850 -0.9992
11768TIP3    H256796   4.601   2.777  14.551 -1.1964  0.2023  1.7204
11769TIP3   OH256797   6.782   4.075   4.744 -0.1880  1.0385 -0.1114
11769TIP3    H156798   6.691   4.045   4.754  0.7619 -1.9256  0.7477
11769TIP3    H256799   6.801   4.063   4.651 -0.0988 -0.3594  0.0659
11770TIP3   OH256800   4.231   3.810   0.267  0.1783  0.3412 -0.2492
11770TIP3    H156801   4.190   3.778   0.186  1.9643  0.8806 -1.4250
11770TIP3    H256802   4.160   3.855   0.313 -0.3188  2.4547 -2.8536
11771TIP3   OH256803   5.533   2.741   6.494  0.2248 -0.0504 -1.2123
11771TIP3    H156804   5.603   2.755   6.431 -0.1126  0.3457 -1.4996
11771TIP3    H256805   5.554   2.800   6.567  0.5754 -0.4563 -0.9781
11772TIP3   OH256806   3.872   1.212  13.593  0.2208 -0.2549 -0.5483
11772TIP3    H156807   3.896   1.121  13.577  0.7819 -0.3485  0.6815
11772TIP3    H256808   3.931   1.262  13.536  0.9501 -0.6160 -0.1218
11773TIP3   OH256809   5.844   1.029   1.118 -0.0813 -0.0585  0.1007
11773TIP3    H156810   5.914   1.023   1.183 -0.6057  0.2518  0.7083
11773TIP3    H256811   5.889   1.051   1.036  0.5070  0.4079  0.5400
11774TIP3   OH256812   2.144   4.181   3.426 -0.1143 -0.6352  0.7857
11774TIP3    H156813   2.156   4.169   3.520 -0.5384 -1.9182  0.6902
11774TIP3    H256814   2.181   4.102   3.387  2.1885  0.8595 -0.3172
11775TIP3   OH256815   6.698   3.778  11.623 -0.1689 -0.2979 -0.1389
11775TIP3    H156816   6.697   3.809  11.714  0.4453 -1.9792  0.4935
11775TIP3    H256817   6.791   3.779  11.599 -0.0743 -1.7882  0.0181
11776TIP3   OH256818   2.686   0.339  12.934 -0.4852 -0.0241 -0.2955
11776TIP3    H156819   2.616   0.275  12.944 -1.2754  0.9763  0.6598
11776TIP3    H256820   2.669   0.381  12.850 -1.7727  1.0644  0.4761
11777TIP3   OH256821   4.451   1.366  15.112 -0.6982  0.4538  0.1199
11777TIP3    H156822   4.523   1.412  15.155 -1.3092 -1.1171  3.1539
11777TIP3    H256823   4.374   1.421  15.128 -0.6808  0.6272 -0.3802
11778TIP3   OH256824   3.068   6.498  14.496 -0.1653 -0.1626  0.3411
11778TIP3    H156825   3.131   6.551  14.445  0.7471 -0.2299  1.3660
11778TIP3    H256826   3.058   6.418  14.445  1.1088 -0.4334  0.4836
11779TIP3   OH256827   2.950   1.523  11.009 -0.0698 -0.2707 -0.3820
11779TIP3    H156828   2.951   1.428  11.003  0.7501 -0.2959 -0.0244
11779TIP3    H256829   3.036   1.550  10.980 -0.1457  0.3341 -0.0705
11780TIP3   OH256830   2.458   5.675   3.304  0.0659 -0.2706 -0.3581
11780TIP3    H156831   2.423   5.759   3.274 -1.8473 -0.6668  0.6078
11780TIP3    H256832   2.489   5.692   3.393 -0.8789 -0.6976  0.0655
11781TIP3   OH256833   3.845   4.699   2.938  0.0109 -0.2490  0.0371
11781TIP3    H156834   3.888   4.772   2.982 -0.9304 -0.0500  0.6628
11781TIP3    H256835   3.769   4.738   2.895 -0.5041 -0.8514  0.3814
11782TIP3   OH256836   4.471   6.792  15.141  0.2585 -0.5141 -0.6647
11782TIP3    H156837   4.487   6.766  15.051 -0.0624 -0.3405 -0.7723
11782TIP3    H256838   4.389   6.840  15.138  0.4241 -0.2032 -0.3348
11783TIP3   OH256839   2.207   3.913   2.744 -0.3378  0.0146 -0.6380
11783TIP3    H156840   2.161   3.830   2.761  1.4753 -1.1531 -1.1701
11783TIP3    H256841   2.203   3.923   2.649  2.0849 -1.1351 -0.9295
11784TIP3   OH256842   6.632   5.909  15.677 -0.1832  0.0255  0.1348
11784TIP3    H156843   6.556   5.962  15.701 -0.4098  0.4351 -1.4034
11784TIP3    H256844   6.596   5.822  15.659 -0.2108  0.0604  0.0157
11785TIP3   OH256845   4.941   0.876   3.095  0.6403  0.2774  0.1773
11785TIP3    H156846   4.867   0.934   3.110  0.5129  0.2992 -0.4968
11785TIP3    H256847   4.924   0.799   3.150 -0.5995 -0.3337 -1.0174
11786TIP3   OH256848   5.733   2.167   4.932 -0.1938 -0.0727  0.2743
11786TIP3    H156849   5.820   2.131   4.949 -0.2216  0.2130  1.0741
11786TIP3    H256850   5.673   2.098   4.960 -0.2234 -0.4601 -0.7319
11787TIP3   OH256851   5.746   5.196   1.309 -0.4130 -0.0619  0.3296
11787TIP3    H156852   5.781   5.230   1.392  0.5902 -1.8716  0.7027
11787TIP3    H256853   5.755   5.101   1.317  0.3876 -0.2503 -2.1531
11788TIP3   OH256854   2.438   3.767   0.592 -0.0977  0.0155  0.7685
11788TIP3    H156855   2.493   3.747   0.517 -0.6447  0.0918  0.3429
11788TIP3    H256856   2.413   3.682   0.627 -0.2112 -0.0238  0.5915
11789TIP3   OH256857   6.233   1.518   4.705  0.2962 -0.1043 -0.2990
11789TIP3    H156858   6.294   1.590   4.694 -0.5786  1.0000  1.6143
11789TIP3    H256859   6.174   1.524   4.630  1.3313  0.0193 -1.1153
11790TIP3   OH256860   6.218   3.097  15.155  0.1765 -0.3077 -0.9817
11790TIP3    H156861   6.268   3.090  15.237  0.3372  0.5346 -1.0015
11790TIP3    H256862   6.276   3.145  15.096 -0.5372  0.4355 -1.0913
11791TIP3   OH256863   2.405   2.835   5.714 -0.3036  0.1114  0.0453
11791TIP3    H156864   2.336   2.816   5.778 -0.9680 -1.5982 -1.1125
11791TIP3    H256865   2.457   2.755   5.710  0.4250  0.6040 -0.7052
11792TIP3   OH256866   1.492   4.861  16.101 -0.1553  0.3326  0.1034
11792TIP3    H156867   1.469   4.795  16.036  0.0353  0.7379 -0.3749
11792TIP3    H256868   1.451   4.829  16.182  0.2588 -0.5647 -0.0309
11793TIP3   OH256869   0.258   4.651   5.140  0.4733 -0.8046 -0.1553
11793TIP3    H156870   0.172   4.659   5.182  0.7832 -0.0790  0.3591
11793TIP3    H256871   0.321   4.670   5.209  1.1511 -3.0654 -0.0571
11794TIP3   OH256872   2.760   5.341  11.253 -0.3324 -0.1094  0.1431
11794TIP3    H156873   2.688   5.349  11.316 -0.1567  2.2087  0.1135
11794TIP3    H256874   2.835   5.381  11.296  0.4484 -0.7080 -0.6118
11795TIP3   OH256875   1.849   5.156   1.717 -0.5563 -0.5263  0.5072
11795TIP3    H156876   1.934   5.147   1.674 -0.4700  1.6223  0.1053
11795TIP3    H256877   1.868   5.147   1.810 -0.3006 -2.3599  0.3209
11796TIP3   OH256878   0.161   1.404  14.539  0.1607 -0.3099  0.4545
11796TIP3    H156879   0.148   1.326  14.483  0.0785 -0.6596  0.9552
11796TIP3    H256880   0.197   1.470  14.480  0.5121 -0.8248  0.0837
11797TIP3   OH256881   4.012   6.830  11.904  0.3268  0.0910  0.3265
11797TIP3    H156882   3.983   6.775  11.832  1.7813 -0.7223  0.3249
11797TIP3    H256883   4.090   6.875  11.870  1.5109 -0.9132  1.6092
11798TIP3   OH256884   2.452   1.969   5.438 -0.2511  0.3385 -0.1082
11798TIP3    H156885   2.526   1.936   5.386 -0.2958 -0.5340  0.3598
11798TIP3    H256886   2.426   2.050   5.394 -0.2617 -0.3462 -1.4271
11799TIP3   OH256887   5.836   6.072   0.050 -0.4802 -0.5076 -0.0675
11799TIP3    H156888   5.753   6.039   0.084  0.6537  0.2796  4.0242
11799TIP3    H256889   5.818   6.163   0.027 -0.8920 -0.5320  0.1507
11800TIP3   OH256890   0.354   3.572   0.392 -0.8359 -0.3825 -0.5669
11800TIP3    H156891   0.331   3.485   0.426 -0.7353 -0.5000 -0.7944
11800TIP3    H256892   0.271   3.619   0.386 -0.8793 -0.4339 -0.3598
11801TIP3   OH256893   6.024   5.434  13.352 -0.3207  0.1813  0.2358
11801TIP3    H156894   6.012   5.367  13.284  2.6320 -1.1493  0.8729
11801TIP3    H256895   6.004   5.389  13.434  0.2077  0.5109  0.5510
11802TIP3   OH256896   0.540   5.899  13.308  0.3663  0.5452 -0.2558
11802TIP3    H156897   0.457   5.939  13.279 -0.8320 -0.2585  1.8314
11802TIP3    H256898   0.524   5.805  13.304  1.2653  0.3723  0.0172
11803TIP3   OH256899   3.711   4.010   3.606  0.1871  0.1815 -0.3073
11803TIP3    H156900   3.638   3.983   3.662 -0.5704 -0.0057 -1.3598
11803TIP3    H256901   3.771   3.934   3.606 -0.1599 -0.0947 -0.3249
11804TIP3   OH256902   5.424   6.171  14.208  0.5016  0.2950 -0.0033
11804TIP3    H156903   5.346   6.123  14.183  0.2057  0.6534  0.2212
11804TIP3    H256904   5.406   6.202  14.297 -0.1822  2.5821 -0.8685
11805TIP3   OH256905   1.312   0.943   3.157 -0.7707  0.2511 -0.5439
11805TIP3    H156906   1.236   0.950   3.099 -0.9473 -0.7393 -0.4605
11805TIP3    H256907   1.278   0.964   3.244 -0.9935 -0.3163 -0.4861
11806TIP3   OH256908   0.513   6.592  13.208 -0.2446  0.2331  0.0332
11806TIP3    H156909   0.527   6.673  13.160 -0.1151  0.8342  1.0477
11806TIP3    H256910   0.441   6.548  13.162 -1.1458  1.5034  0.1880
11807TIP3   OH256911   3.129   3.533   2.648  0.1611  0.4334  0.3813
11807TIP3    H156912   3.050   3.580   2.672  0.7129  2.0944 -0.8666
11807TIP3    H256913   3.157   3.573   2.565  2.6960  0.3932  1.1280
11808TIP3   OH256914   2.969   0.009   0.917 -0.3559 -0.1510 -0.3974
11808TIP3    H156915   2.949   0.091   0.871  0.8082  0.4293  0.0843
11808TIP3    H256916   2.932  -0.059   0.862 -1.0580  0.6835 -0.9816
11809TIP3   OH256917   4.579   6.526  12.675 -0.1127 -0.4522  0.4859
11809TIP3    H156918   4.504   6.569  12.635 -0.2980 -1.0575  0.1804
11809TIP3    H256919   4.547   6.440  12.700  0.1040 -0.2344  1.5871
11810TIP3   OH256920   3.828   5.066  15.954 -0.2366  0.3873  0.0755
11810TIP3    H156921   3.745   5.067  15.907 -0.5515  1.3064  0.6419
11810TIP3    H256922   3.809   5.105  16.039  1.0107  1.6639 -0.1983
11811TIP3   OH256923   4.164   3.179  11.078 -0.0180  0.7807 -0.2971
11811TIP3    H156924   4.229   3.166  11.147  0.9016 -1.7807 -1.5376
11811TIP3    H256925   4.216   3.197  11.000 -0.8996  0.5901 -0.9376
11812TIP3   OH256926   0.095   5.938   0.594 -0.0831 -1.1236 -0.7728
11812TIP3    H156927   0.148   5.932   0.674 -0.8439  0.4059 -0.1234
11812TIP3    H256928   0.112   5.855   0.548  0.3975 -2.0244  0.9385
11813TIP3   OH256929   4.180   2.771  14.506  0.0871  0.5500  0.1752
11813TIP3    H156930   4.178   2.845  14.446 -0.8547  0.6628  0.3240
11813TIP3    H256931   4.247   2.712  14.470 -0.4994  0.5848 -1.0307
11814TIP3   OH256932   6.078   5.811  15.373 -0.3955 -0.6776  0.1590
11814TIP3    H156933   6.107   5.736  15.425 -1.4503 -1.1757  0.0561
11814TIP3    H256934   6.130   5.885  15.406  1.5784 -1.6631 -0.6061
11815TIP3   OH256935   6.585   0.985   2.790 -0.0674 -0.2629  0.2227
11815TIP3    H156936   6.566   0.926   2.863  1.3627 -0.2280  0.6583
11815TIP3    H256937   6.578   0.929   2.712  0.2470 -0.7622  0.5448
11816TIP3   OH256938   2.677   5.437  12.451  0.4053  0.2889  0.3690
11816TIP3    H156939   2.696   5.484  12.370 -0.1985  1.9161  1.1176
11816TIP3    H256940   2.587   5.405  12.441  0.3641  0.4073  0.3619
11817TIP3   OH256941   1.144   4.596  11.158 -0.2245  0.0490  0.3079
11817TIP3    H156942   1.071   4.594  11.220 -1.7342  0.6731 -1.3485
11817TIP3    H256943   1.108   4.642  11.082  2.4022  1.8337  0.0244
11818TIP3   OH256944   2.485   0.039   4.125 -0.2508 -0.2056 -0.4012
11818TIP3    H156945   2.486  -0.009   4.207  0.8411  2.6441  1.4054
11818TIP3    H256946   2.576   0.036   4.095 -0.0809  0.9755 -0.0526
11819TIP3   OH256947   5.190   0.541  13.811 -0.3888 -0.1873  0.0142
11819TIP3    H156948   5.191   0.636  13.805  1.1509 -0.1660  0.2956
11819TIP3    H256949   5.282   0.516  13.821 -0.4868 -1.8760 -2.5452
11820TIP3   OH256950   2.501   6.262   1.377  0.5485 -0.4886  0.1949
11820TIP3    H156951   2.476   6.174   1.404  0.7553  0.0199  2.2328
11820TIP3    H256952   2.526   6.253   1.285  1.1426 -2.6758  0.5089
11821TIP3   OH256953   5.538   2.914  11.503  0.2811  0.5441 -1.0214
11821TIP3    H156954   5.532   3.008  11.515 -0.3195  0.3600  0.2982
11821TIP3    H256955   5.476   2.877  11.567  2.1048 -0.8172  0.0605
11822TIP3   OH256956   4.151   1.202  17.096 -0.3950  0.6562  0.4990
11822TIP3    H156957   4.180   1.242  17.178 -1.0299 -0.0453  1.0855
11822TIP3    H256958   4.073   1.153  17.120  0.3942 -1.0066 -0.1716
11823TIP3   OH256959   0.277   0.284  14.645 -0.2064 -0.3923 -0.0229
11823TIP3    H156960   0.198   0.329  14.615 -0.2950 -0.5874 -0.0839
11823TIP3    H256961   0.254   0.191  14.644 -0.1249 -0.4204  0.3952
11824TIP3   OH256962   0.599   0.827  11.694  0.3157 -0.1844 -0.0851
11824TIP3    H156963   0.611   0.736  11.666  1.1082 -0.1960  0.2509
11824TIP3    H256964   0.563   0.820  11.782 -1.4377 -0.1517 -0.7726
11825TIP3   OH256965   0.814   5.142  15.533  0.2283  0.0571 -0.3361
11825TIP3    H156966   0.825   5.052  15.502  0.4391 -0.7806  1.9778
11825TIP3    H256967   0.902   5.181  15.526  0.5775 -0.5595  0.4388
11826TIP3   OH256968   5.310   2.868  15.148 -0.2077  0.3071 -0.0859
11826TIP3    H156969   5.235   2.822  15.112 -0.4311  1.9205 -1.8421
11826TIP3    H256970   5.337   2.928  15.079  2.2645  0.2880  0.7608
11827TIP3   OH256971   2.038   6.267  13.744 -0.1447  0.5551 -0.0468
11827TIP3    H156972   1.977   6.269  13.817  1.0351 -1.9995  1.1310
11827TIP3    H256973   2.113   6.319  13.774 -0.6491  1.5236 -0.4420
11828TIP3   OH256974   4.637   5.886  12.994 -0.1451  0.3221  0.0480
11828TIP3    H156975   4.547   5.855  12.984 -0.1157 -0.1130  1.0452
11828TIP3    H256976   4.662   5.861  13.083 -0.3202  3.7333  1.1895
11829TIP3   OH256977   2.878   2.353   1.366 -0.4120  0.6116 -0.8057
11829TIP3    H156978   2.864   2.320   1.277 -0.8262  0.2506 -0.6119
11829TIP3    H256979   2.802   2.409   1.383 -1.1910 -0.6073 -0.0949
11830TIP3   OH256980   1.476   1.527  15.036  0.5903 -0.1780  0.3915
11830TIP3    H156981   1.423   1.455  15.069  0.3756  0.0042  0.4460
11830TIP3    H256982   1.433   1.554  14.955  0.1654  0.4577  0.8180
11831TIP3   OH256983   2.521   0.425  11.198  0.5165  0.1323  0.3316
11831TIP3    H156984   2.546   0.334  11.185  1.1967  0.5430 -1.5457
11831TIP3    H256985   2.604   0.471  11.212  0.4102  0.7931 -1.0937
11832TIP3   OH256986   3.599   3.329  13.175 -0.2911 -0.3338  0.0575
11832TIP3    H156987   3.610   3.343  13.269  0.3336 -2.0913  0.2890
11832TIP3    H256988   3.557   3.243  13.168 -1.8006  0.4378 -1.2529
11833TIP3   OH256989   4.642   4.452  14.015 -0.1501 -0.0401 -0.0848
11833TIP3    H156990   4.732   4.482  14.022  0.5197 -1.7052 -1.0906
11833TIP3    H256991   4.633   4.386  14.084 -0.3100 -0.5321 -0.5711
11834TIP3   OH256992   5.687   0.854   3.110 -0.5644 -0.1163 -0.1023
11834TIP3    H156993   5.637   0.795   3.166 -0.3441  0.0330  0.2580
11834TIP3    H256994   5.775   0.816   3.108 -0.4146  0.2100  0.1563
11835TIP3   OH256995   3.842   6.553  13.374  0.2284  0.2445 -0.5486
11835TIP3    H156996   3.933   6.582  13.371  0.5983 -0.8334 -0.3905
11835TIP3    H256997   3.847   6.457  13.370 -0.7228 -0.0111  2.1964
11836TIP3   OH256998   0.571   3.505   5.551 -0.2151 -0.8111  0.0764
11836TIP3    H156999   0.630   3.465   5.486 -1.0757 -2.3537  0.2164
11836TIP3    H257000   0.484   3.473   5.527 -0.8686  0.5385  0.5618
11837TIP3   OH257001   0.672   3.789  12.933 -0.9088 -0.2017 -0.5726
11837TIP3    H157002   0.639   3.715  12.883  0.4941 -0.4590 -1.1528
11837TIP3    H257003   0.727   3.838  12.872  0.8096 -0.4991  0.6447
11838TIP3   OH257004   5.338   3.813  14.970 -0.2163 -0.5023 -0.0065
11838TIP3    H157005   5.393   3.832  14.894 -1.0147  3.9846  0.2348
11838TIP3    H257006   5.254   3.785  14.933 -0.4395  1.1713 -0.8566
11839TIP3   OH257007   3.176   5.769  11.462  0.3178  0.1134 -0.2384
11839TIP3    H157008   3.081   5.758  11.454  0.2095 -0.6569  1.5864
11839TIP3    H257009   3.187   5.856  11.500  0.4395  0.7434 -1.6602
11840TIP3   OH257010   5.274   6.646   2.301  0.7014  0.0967 -0.0258
11840TIP3    H157011   5.340   6.699   2.346  0.8630  0.7515 -0.9993
11840TIP3    H257012   5.323   6.595   2.237  0.3830 -0.2214 -0.0199
11841TIP3   OH257013   4.055   1.766   2.510  0.0853 -0.1061 -0.6161
11841TIP3    H157014   4.101   1.787   2.591 -0.9707  0.9101 -0.2525
11841TIP3    H257015   3.982   1.711   2.538 -0.0929 -0.0272 -0.9195
11842TIP3   OH257016   0.450   6.244  12.589  0.3175 -0.2045  0.0033
11842TIP3    H157017   0.501   6.166  12.566 -0.4677 -0.6409 -0.3305
11842TIP3    H257018   0.464   6.255  12.683  0.5853 -0.6414  0.0212
11843TIP3   OH257019   1.019   0.009  16.139 -0.0286 -0.4894 -0.0283
11843TIP3    H157020   0.961   0.033  16.211  0.2295 -0.4742  0.1780
11843TIP3    H257021   1.107   0.013  16.177  0.2325  0.9696 -0.7203
11844TIP3   OH257022   1.619   1.456   4.182  0.5471 -0.5435 -0.2774
11844TIP3    H157023   1.631   1.394   4.254  2.0965 -0.8170 -0.7159
11844TIP3    H257024   1.541   1.506   4.205  0.9696 -0.6695  1.5449
11845TIP3   OH257025   1.398   6.003  13.856  0.3431 -0.0814  0.3703
11845TIP3    H157026   1.388   6.063  13.781 -0.7489 -0.4048  0.2342
11845TIP3    H257027   1.316   6.013  13.904  0.0521 -1.6186  0.2303
11846TIP3   OH257028   1.979   1.197   4.075  0.0904 -0.0772 -0.1782
11846TIP3    H157029   1.889   1.208   4.043  0.4708 -1.6436 -2.0167
11846TIP3    H257030   2.027   1.269   4.035  0.1612 -0.8572 -1.5601
11847TIP3   OH257031   4.685   0.281  16.473  0.2723  0.0744 -0.1484
11847TIP3    H157032   4.651   0.370  16.462  0.6671  0.2433 -0.0494
11847TIP3    H257033   4.743   0.268  16.398  0.5329  0.0565  0.0527
11848TIP3   OH257034   6.413   4.630  11.333  0.2392  0.2957  0.3459
11848TIP3    H157035   6.455   4.617  11.248  0.2637 -0.1087  0.4183
11848TIP3    H257036   6.436   4.552  11.383  0.9626  0.9338  1.0293
11849TIP3   OH257037   6.353   1.970   6.897  0.2971  0.4934 -0.5668
11849TIP3    H157038   6.404   1.898   6.860  0.2478 -0.0077  0.3061
11849TIP3    H257039   6.382   2.048   6.850 -0.1736 -0.1981 -2.0427
11850TIP3   OH257040   0.285   4.442  15.226 -0.2028  0.3750  0.2943
11850TIP3    H157041   0.363   4.452  15.281  0.1727  1.0212 -0.3453
11850TIP3    H257042   0.314   4.465  15.138 -1.0913  0.5248  0.0304
11851TIP3   OH257043   0.424   1.662  13.838  0.1671 -0.4282  0.1131
11851TIP3    H157044   0.444   1.747  13.877 -2.3120  0.2737  0.0318
11851TIP3    H257045   0.431   1.677  13.744  1.9461 -0.9703  0.1276
11852TIP3   OH257046   6.666   4.651  15.157  0.1506  0.2726  0.1987
11852TIP3    H157047   6.712   4.722  15.201  0.7335  0.0915 -0.1152
11852TIP3    H257048   6.731   4.581  15.151 -0.2062 -0.0323 -0.1234
11853TIP3   OH257049   2.998   0.147   5.767  0.0979  0.0863 -0.0240
11853TIP3    H157050   3.085   0.108   5.778  0.6438  1.7488  2.0992
11853TIP3    H257051   2.987   0.204   5.843 -1.7881  1.9577 -1.5773
11854TIP3   OH257052   3.755   5.120  10.130 -0.3272 -0.3585  0.0552
11854TIP3    H157053   3.677   5.175  10.134  0.1711  0.2841  1.6288
11854TIP3    H257054   3.827   5.180  10.111  0.1485 -0.4987  1.2764
11855TIP3   OH257055   1.967   0.898  16.800  0.1196 -0.2836 -0.7491
11855TIP3    H157056   2.052   0.919  16.761  0.0513 -2.7997 -2.4631
11855TIP3    H257057   1.915   0.978  16.786  2.2139  1.4200  0.6277
11856TIP3   OH257058   3.045   0.132  12.486 -0.3680  0.3470  1.0129
11856TIP3    H157059   3.027   0.226  12.498  1.3958  0.5781  2.1553
11856TIP3    H257060   3.084   0.127  12.399 -1.5966  0.4611  0.4240
11857TIP3   OH257061   0.005   3.460   1.976 -0.2994 -0.3037 -0.2601
11857TIP3    H157062   0.053   3.481   2.056  0.3481 -0.2674 -0.6473
11857TIP3    H257063  -0.065   3.524   1.971  1.3411  1.5321 -1.1767
11858TIP3   OH257064   5.286   5.324  11.471 -0.0194 -0.1551  0.6071
11858TIP3    H157065   5.193   5.331  11.450 -0.1576 -0.3420  1.1429
11858TIP3    H257066   5.329   5.318  11.386 -0.6430 -1.9966  0.3689
11859TIP3   OH257067   5.293   3.720  13.949  0.5951 -0.4241  0.0064
11859TIP3    H157068   5.333   3.637  13.972  1.6159 -0.0394 -0.3154
11859TIP3    H257069   5.254   3.705  13.863 -0.8752 -1.0887  0.7541
11860TIP3   OH257070   1.115   3.325  12.081  0.8932 -0.1882 -0.0757
11860TIP3    H157071   1.030   3.365  12.099  1.6732  1.5928 -0.1884
11860TIP3    H257072   1.148   3.300  12.168  0.4895 -0.3947  0.0204
11861TIP3   OH257073   0.372   1.042  11.911  0.4749 -0.3063 -0.2330
11861TIP3    H157074   0.320   1.015  11.987  1.4876 -0.9856  0.2521
11861TIP3    H257075   0.324   1.010  11.835 -0.7853  0.7735  0.0896
11862TIP3   OH257076   1.456   5.854   4.052  0.1278 -0.3136  0.3169
11862TIP3    H157077   1.373   5.841   4.098  0.1563 -0.0899  0.4313
11862TIP3    H257078   1.508   5.777   4.074 -0.1809 -0.6277 -0.0417
11863TIP3   OH257079   1.865   2.844   6.694  0.2306 -0.2198 -0.2629
11863TIP3    H157080   1.813   2.810   6.621 -1.0853  0.6322  0.2409
11863TIP3    H257081   1.897   2.766   6.739 -1.8733 -0.8395  0.2830
11864TIP3   OH257082   4.532   2.510  12.445  0.3832 -0.3419 -0.0686
11864TIP3    H157083   4.615   2.463  12.458  1.4643  1.5215  0.0974
11864TIP3    H257084   4.485   2.458  12.379  2.2492 -0.7402 -1.1441
11865TIP3   OH257085   6.674   6.564  16.700  0.5453  0.3480 -0.5095
11865TIP3    H157086   6.641   6.526  16.781  0.1456 -0.1280 -0.8930
11865TIP3    H257087   6.626   6.519  16.631 -0.0544  1.6435 -0.9795
11866TIP3   OH257088   6.475   1.914   2.304  0.1981  0.0008  0.1942
11866TIP3    H157089   6.499   1.903   2.396  0.1173 -0.8811  0.1140
11866TIP3    H257090   6.558   1.928   2.259  0.0887  2.9031  0.6956
11867TIP3   OH257091   1.966   2.132   2.005  0.6582  0.4599  0.1227
11867TIP3    H157092   2.019   2.190   1.951 -0.8714  0.5674 -1.3427
11867TIP3    H257093   1.903   2.190   2.048 -0.9306 -0.0630 -1.4093
11868TIP3   OH257094   6.273   5.836  12.543  0.8492 -0.3373 -0.2319
11868TIP3    H157095   6.180   5.816  12.553  0.5188  0.7816 -0.8752
11868TIP3    H257096   6.300   5.867  12.630  0.4111  0.0951 -0.2426
11869TIP3   OH257097   2.843   3.905  15.432  0.8490  0.0854  0.2270
11869TIP3    H157098   2.925   3.943  15.465  0.6629 -0.4174  1.2972
11869TIP3    H257099   2.863   3.812  15.421 -0.1751 -0.4891  2.6317
11870TIP3   OH257100   0.629   5.195  15.740 -0.0407  0.8839 -0.1782
11870TIP3    H157101   0.537   5.181  15.717 -0.3674  2.0185  0.3441
11870TIP3    H257102   0.678   5.170  15.662 -0.5968 -1.8937  0.2567
11871TIP3   OH257103   5.987   6.631   2.117  0.0044 -0.1935 -0.5815
11871TIP3    H157104   6.057   6.572   2.089 -0.8492 -1.5620  0.0729
11871TIP3    H257105   5.979   6.616   2.212 -0.4179  0.7852 -0.4475
11872TIP3   OH257106   1.234   4.538  15.845 -0.2614 -0.0571  0.3083
11872TIP3    H157107   1.228   4.549  15.750 -0.4011 -0.4313  0.2701
11872TIP3    H257108   1.143   4.530  15.873 -0.2750  0.9738  0.5916
11873TIP3   OH257109   5.458   2.153  12.691 -0.3364 -0.2522 -0.2072
11873TIP3    H157110   5.447   2.223  12.755  1.2186 -0.5705  0.4520
11873TIP3    H257111   5.493   2.080  12.741 -0.1184 -0.8609 -1.2215
11874TIP3   OH257112   3.594   1.992  12.704 -0.2484 -0.5423  0.1354
11874TIP3    H157113   3.649   1.913  12.710  1.4014  0.4465 -1.1630
11874TIP3    H257114   3.570   2.011  12.794  1.3696 -1.1683  0.7345
11875TIP3   OH257115   6.838   4.780  11.088  0.0034  0.4085 -0.2165
11875TIP3    H157116   6.842   4.868  11.126 -0.3175  0.1543  0.4173
11875TIP3    H257117   6.831   4.721  11.163  2.0180 -0.3075 -0.5070
11876TIP3   OH257118   2.274   0.992  10.467  0.2225 -0.5617 -0.3574
11876TIP3    H157119   2.339   0.940  10.515  1.3126  0.5351 -0.5934
11876TIP3    H257120   2.266   1.072  10.518 -1.2030 -0.7917 -0.1738
11877TIP3   OH257121   1.914   1.070  11.627  0.0060  0.4795 -0.8159
11877TIP3    H157122   2.002   1.092  11.597 -0.6614  1.2908 -2.2985
11877TIP3    H257123   1.856   1.098  11.556 -1.4294 -0.3816 -0.0499
11878TIP3   OH257124   6.075   2.376  11.383 -0.9483  0.4310 -0.3444
11878TIP3    H157125   6.148   2.351  11.326 -1.4528 -0.3715 -0.6689
11878TIP3    H257126   6.002   2.391  11.322 -1.1760  0.7563  0.0071
11879TIP3   OH257127   6.638   3.405  10.918  0.5521  0.6177 -0.0757
11879TIP3    H157128   6.549   3.385  10.946  0.6859 -0.4701 -0.3964
11879TIP3    H257129   6.649   3.357  10.836  2.1950 -1.2502  1.1319
11880TIP3   OH257130   0.653   5.002  16.149  0.0865 -0.5309 -0.0859
11880TIP3    H157131   0.647   4.996  16.054 -2.0804 -0.9290  0.0115
11880TIP3    H257132   0.627   5.092  16.169 -0.8652 -0.8480  0.1701
11881TIP3   OH257133   0.353   3.416   4.133 -0.1164  0.3985 -0.7831
11881TIP3    H157134   0.419   3.407   4.202 -0.4797  0.5708 -0.4055
11881TIP3    H257135   0.380   3.355   4.065  0.2277  0.1970 -0.4690
11882TIP3   OH257136   6.309   4.478  16.537  0.2415 -0.1243  0.0811
11882TIP3    H157137   6.266   4.406  16.584  0.1519 -0.1745 -0.0742
11882TIP3    H257138   6.399   4.449  16.526  0.6670  0.5548  1.5784
11883TIP3   OH257139   5.395   3.278   2.306 -0.2295  0.0889 -0.2947
11883TIP3    H157140   5.477   3.298   2.351 -0.1707  0.1528 -0.4290
11883TIP3    H257141   5.406   3.187   2.276 -1.0302 -0.6565  1.5003
11884TIP3   OH257142   2.953   3.772   2.710  0.2243 -0.1901  0.0190
11884TIP3    H157143   2.952   3.862   2.677  1.9392  0.5372  1.7517
11884TIP3    H257144   2.862   3.753   2.733 -0.3196  0.7151 -1.2716
11885TIP3   OH257145   1.550   6.031   3.038 -0.3877 -0.5549 -0.0797
11885TIP3    H157146   1.524   6.122   3.053  0.6833 -0.4875  1.5571
11885TIP3    H257147   1.593   6.032   2.953 -1.5089  0.2096 -0.6647
11886TIP3   OH257148   6.487   1.191  16.637  0.1482 -0.6179 -0.1718
11886TIP3    H157149   6.473   1.281  16.666  2.0386 -0.3962  0.1344
11886TIP3    H257150   6.497   1.199  16.542 -2.7723 -0.9515 -0.6171
11887TIP3   OH257151   3.778   1.917   0.550 -0.4446  0.1174  0.5210
11887TIP3    H157152   3.695   1.937   0.595 -0.5242  0.4158  0.2454
11887TIP3    H257153   3.768   1.956   0.463  0.6594  1.6721  1.0444
11888TIP3   OH257154   4.838   1.229  11.131 -0.2795  0.5313  0.0311
11888TIP3    H157155   4.899   1.215  11.058 -0.4724 -1.0963  0.1605
11888TIP3    H257156   4.810   1.142  11.157 -3.5456  1.1963 -0.7406
11889TIP3   OH257157   5.779   4.609   0.997  0.2962 -0.7584 -0.0244
11889TIP3    H157158   5.732   4.656   1.066 -2.2592 -3.5619  0.3301
11889TIP3    H257159   5.752   4.651   0.916 -2.7533 -2.0602  0.2056
11890TIP3   OH257160   4.730   0.343   1.872  0.1721 -0.3823  0.4989
11890TIP3    H157161   4.711   0.263   1.823  3.9629 -1.9572  1.2619
11890TIP3    H257162   4.678   0.335   1.953 -1.3281 -0.8166 -0.4738
11891TIP3   OH257163   2.809   1.100   4.573  0.6346 -0.8114  0.0318
11891TIP3    H157164   2.723   1.057   4.574  0.0373  0.3023 -0.8109
11891TIP3    H257165   2.862   1.047   4.514 -0.2519 -0.1600 -1.4056
11892TIP3   OH257166   5.683   0.104  11.881 -0.1190 -0.2498 -0.5877
11892TIP3    H157167   5.777   0.096  11.896 -0.1107 -1.8099 -1.2145
11892TIP3    H257168   5.666   0.198  11.879  0.9129  0.1190  2.4688
11893TIP3   OH257169   4.346   1.403   2.461 -0.4490  0.9189 -0.0561
11893TIP3    H157170   4.302   1.394   2.376  0.5538  0.7500 -0.5730
11893TIP3    H257171   4.384   1.491   2.459  1.4831  0.1403 -0.7555
11894TIP3   OH257172   3.582   4.131  16.354 -0.3289  0.0849  0.3112
11894TIP3    H157173   3.501   4.114  16.403 -0.8458  3.2238  0.7871
11894TIP3    H257174   3.555   4.132  16.262 -0.1655 -1.7730  0.1985
11895TIP3   OH257175   1.242   4.932   5.118  0.0345 -0.0746 -0.4787
11895TIP3    H157176   1.263   4.838   5.122  0.6131  0.0730  0.1220
11895TIP3    H257177   1.324   4.973   5.092  0.0736  0.3634  0.3200
11896TIP3   OH257178   0.858   1.459  11.520 -0.2173  0.3465 -0.2134
11896TIP3    H157179   0.863   1.390  11.454 -0.5454 -0.6812  0.8047
11896TIP3    H257180   0.784   1.434  11.576 -2.2008  2.9838 -1.4011
11897TIP3   OH257181   2.944   0.050  14.248  0.3472 -0.5028 -0.0544
11897TIP3    H157182   2.926  -0.029  14.199  1.0129 -1.2579  0.8652
11897TIP3    H257183   3.037   0.067  14.232  0.2652 -0.0424 -0.0541
11898TIP3   OH257184   4.282   0.413  16.388 -0.3990  0.0550 -0.2424
11898TIP3    H157185   4.331   0.481  16.434 -1.1694  0.3445  0.1668
11898TIP3    H257186   4.347   0.346  16.368  0.5932  1.3533 -1.5519
11899TIP3   OH257187   4.179   1.024   5.286 -0.1012  0.3423 -0.0446
11899TIP3    H157188   4.222   1.032   5.371 -0.5466  0.3043  0.1870
11899TIP3    H257189   4.241   0.976   5.232  0.2807  0.5649  0.1915
11900TIP3   OH257190   3.686   4.052  16.093  0.4907 -0.5287  0.1916
11900TIP3    H157191   3.755   4.050  16.160  1.4324 -1.6851 -0.7825
11900TIP3    H257192   3.726   4.015  16.015 -1.0747 -0.7065 -0.5755
11901TIP3   OH257193   5.773   6.071   6.554  0.0492 -0.1600 -0.2380
11901TIP3    H157194   5.682   6.088   6.578 -0.2618 -1.3649 -0.4801
11901TIP3    H257195   5.771   5.988   6.507  1.0386  0.6502 -1.8493
11902TIP3   OH257196   5.465   1.879  15.602 -0.2873 -0.2926  0.5356
11902TIP3    H157197   5.456   1.908  15.511  0.4101  2.2466  1.2069
11902TIP3    H257198   5.468   1.783  15.596  1.1670 -0.1807 -2.2477
11903TIP3   OH257199   1.092   5.717  11.139  0.4246  0.2600 -0.3714
11903TIP3    H157200   1.112   5.627  11.114  1.2549  1.0527 -2.7706
11903TIP3    H257201   1.172   5.766  11.122 -0.1557  1.5613  0.4269
11904TIP3   OH257202   3.280   2.904   5.657 -0.1533  0.2539 -0.2284
11904TIP3    H157203   3.231   2.968   5.605  0.4156  0.7080 -0.2174
11904TIP3    H257204   3.295   2.948   5.741  1.5415  0.6997 -0.7418
11905TIP3   OH257205   5.654   2.950  14.196 -0.2159 -0.1024  0.7083
11905TIP3    H157206   5.655   3.028  14.140 -1.2801 -0.3239  0.3615
11905TIP3    H257207   5.562   2.938  14.220  0.0640 -0.7147  1.5266
11906TIP3   OH257208   0.976   6.115  13.738 -0.0976 -0.6857  0.6193
11906TIP3    H157209   1.062   6.128  13.698 -0.8569  0.9039 -0.6241
11906TIP3    H257210   0.937   6.043  13.690  0.5462 -1.4723  1.2471
11907TIP3   OH257211   4.838   3.298   1.749  0.2093 -0.2571  0.2299
11907TIP3    H157212   4.773   3.228   1.747 -0.7152  0.5844 -1.0673
11907TIP3    H257213   4.896   3.276   1.823 -1.6012 -0.9756  1.4972
11908TIP3   OH257214   2.599   0.039   3.529  0.3300 -0.4840  1.0012
11908TIP3    H157215   2.608  -0.056   3.522 -2.1726 -0.7126 -0.1638
11908TIP3    H257216   2.511   0.052   3.565  0.6930  1.4054  1.2902
11909TIP3   OH257217   1.179   5.403   4.994 -0.1001  0.1779 -0.1593
11909TIP3    H157218   1.201   5.496   4.986  0.6683  0.3039  2.4506
11909TIP3    H257219   1.261   5.361   5.021 -0.7690 -1.0272  0.0996
11910TIP3   OH257220   6.331   0.425   5.049  0.0983 -0.2114  0.9297
11910TIP3    H157221   6.377   0.490   5.104  1.4055 -0.1011 -0.2340
11910TIP3    H257222   6.255   0.472   5.016  1.0664  0.7981  0.0416
11911TIP3   OH257223   0.318   5.697   6.054 -0.6718 -0.4134  0.4606
11911TIP3    H157224   0.321   5.736   6.142  0.0823  0.3307  0.1180
11911TIP3    H257225   0.394   5.639   6.052  0.0273  0.5101 -0.1207
11912TIP3   OH257226   2.358   3.907   1.006 -0.0769 -0.7327 -0.0198
11912TIP3    H157227   2.392   3.911   1.095  0.3966 -2.0489 -0.1277
11912TIP3    H257228   2.314   3.822   1.001 -0.6887 -0.3831 -0.8464
11913TIP3   OH257229   5.609   6.594  15.002 -0.2654  0.0870  0.8056
11913TIP3    H157230   5.679   6.573  15.064 -0.2746 -0.4613  0.6332
11913TIP3    H257231   5.650   6.588  14.916 -0.7607 -1.2952  0.6349
11914TIP3   OH257232   1.706   4.274   5.483 -0.0468  0.1657 -0.3330
11914TIP3    H157233   1.731   4.228   5.563  0.5630 -0.8032 -1.0607
11914TIP3    H257234   1.674   4.205   5.425 -0.3794  0.8413 -0.9632
11915TIP3   OH257235   4.640   3.634  12.725 -0.2503 -0.4654 -0.3908
11915TIP3    H157236   4.639   3.542  12.699  0.3661 -0.8663  0.9033
11915TIP3    H257237   4.554   3.648  12.767 -0.9151 -0.0378 -1.8183
11916TIP3   OH257238   4.971   5.286  14.103 -0.9503  0.3822  0.6983
11916TIP3    H157239   4.996   5.298  14.011  0.1801 -1.0175  0.7686
11916TIP3    H257240   4.987   5.371  14.144  0.3480  0.5342 -0.0456
11917TIP3   OH257241   5.742   5.759  11.600 -0.1657  0.1830  0.1972
11917TIP3    H157242   5.836   5.769  11.613 -0.1996  0.1627  0.4589
11917TIP3    H257243   5.729   5.777  11.506  0.2060 -0.6574 -0.0274
11918TIP3   OH257244   4.629   6.347   5.348 -0.7798  0.1615  0.2957
11918TIP3    H157245   4.598   6.357   5.258 -2.0206  0.7862  0.7678
11918TIP3    H257246   4.671   6.261   5.349  0.8340  0.8606 -1.2998
11919TIP3   OH257247   2.810   2.709   2.150  0.2858 -0.1898 -0.6026
11919TIP3    H157248   2.853   2.732   2.067  3.5640 -0.5743  0.8267
11919TIP3    H257249   2.827   2.616   2.160 -0.6301 -0.2788  0.2337
11920TIP3   OH257250   5.296   5.740  11.306  0.1988 -0.0568 -0.0341
11920TIP3    H157251   5.371   5.775  11.355 -1.0429  1.4273  0.8964
11920TIP3    H257252   5.335   5.702  11.227  2.2163 -1.9525  1.7101
11921TIP3   OH257253   3.570   4.976   3.245 -0.4614 -0.4006  0.7053
11921TIP3    H157254   3.485   4.932   3.249 -0.8035  0.1615 -0.0850
11921TIP3    H257255   3.552   5.066   3.272 -0.7982  0.5959 -2.4251
11922TIP3   OH257256   5.561   1.925  11.511  0.2834  0.3784 -0.1644
11922TIP3    H157257   5.511   1.932  11.430 -0.8355 -0.7899  0.3783
11922TIP3    H257258   5.597   1.836  11.509 -0.5902 -0.0344  1.0464
11923TIP3   OH257259   0.212   3.734   3.897 -0.1246 -0.0772 -0.3310
11923TIP3    H157260   0.119   3.714   3.886 -0.9103  1.4863  2.4250
11923TIP3    H257261   0.250   3.723   3.810 -2.8690 -0.7998 -1.5269
11924TIP3   OH257262   0.506   1.418  11.924  0.0406  0.6504 -0.3898
11924TIP3    H157263   0.529   1.498  11.971 -0.7558  0.0757  1.0677
11924TIP3    H257264   0.413   1.430  11.901 -0.3473 -0.1818  0.6331
11925TIP3   OH257265   2.110   1.872   0.054 -0.3687  0.0543 -0.3251
11925TIP3    H157266   2.060   1.817  -0.007 -0.3022 -1.3945  0.8754
11925TIP3    H257267   2.147   1.810   0.117  1.2668  1.2929  0.0130
11926TIP3   OH257268   2.689   4.979   2.547  0.2597  0.1321  0.1600
11926TIP3    H157269   2.688   4.990   2.642 -2.1140  2.1334 -0.0176
11926TIP3    H257270   2.608   5.020   2.517 -0.0471 -2.2030 -2.5774
11927TIP3   OH257271   2.591   1.613   2.321  0.3293  0.6347  0.6266
11927TIP3    H157272   2.680   1.581   2.308  0.1647  0.1754  0.6026
11927TIP3    H257273   2.602   1.700   2.361  0.7860  0.6640  0.4411
11928TIP3   OH257274   5.637   2.645   4.573 -0.0792  0.1283  0.0309
11928TIP3    H157275   5.649   2.727   4.525  1.5870 -0.7491 -1.1618
11928TIP3    H257276   5.552   2.654   4.617 -1.0729  1.5056 -2.0478
11929TIP3   OH257277   0.812   0.040   0.319  0.2272  0.8288  1.0991
11929TIP3    H157278   0.777   0.050   0.408 -1.6937 -2.8043  0.9439
11929TIP3    H257279   0.865  -0.039   0.323 -2.3379 -1.2722 -1.4577
11930TIP3   OH257280   2.357   6.423   2.337 -0.4455  0.2394 -0.0679
11930TIP3    H157281   2.398   6.480   2.272  1.9299 -0.2862  0.8287
11930TIP3    H257282   2.412   6.433   2.415 -0.8645 -2.0436  0.6183
11931TIP3   OH257283   0.784   2.071  11.294  0.2841 -0.1877  0.3866
11931TIP3    H157284   0.806   2.011  11.222 -0.7676 -0.6549  0.4390
11931TIP3    H257285   0.758   2.152  11.250 -3.5171 -1.4419 -0.0252
11932TIP3   OH257286   2.618   0.529  16.892 -0.5892 -0.3966 -0.4604
11932TIP3    H157287   2.552   0.475  16.848 -2.0267  1.3839 -0.6104
11932TIP3    H257288   2.614   0.613  16.846 -2.1139  1.5707  2.8616
11933TIP3   OH257289   4.905   3.232  14.279 -0.7229 -0.1658  0.4236
11933TIP3    H157290   4.975   3.202  14.337 -0.4349 -0.5681 -0.1347
11933TIP3    H257291   4.843   3.276  14.338  0.6864  1.4957  0.7308
11934TIP3   OH257292   2.193   5.425  11.675 -0.1390 -0.1701 -0.0173
11934TIP3    H157293   2.174   5.519  11.671  0.7856 -0.0145 -2.0811
11934TIP3    H257294   2.213   5.401  11.585  0.3013 -2.2257  0.5787
11935TIP3   OH257295   0.598   4.975  11.745 -0.1396 -0.1141  0.1153
11935TIP3    H157296   0.546   4.898  11.724 -0.5122 -0.4052  1.9807
11935TIP3    H257297   0.541   5.029  11.799 -0.1029  1.7981 -1.6247
11936TIP3   OH257298   0.597   2.218  15.868  0.3075 -0.1030  0.2469
11936TIP3    H157299   0.622   2.260  15.785 -0.9027  1.3813  0.6033
11936TIP3    H257300   0.553   2.137  15.841  0.3769  0.1137 -0.5444
11937TIP3   OH257301   1.707   0.146  14.523  0.1340 -0.3337 -0.3993
11937TIP3    H157302   1.774   0.082  14.498 -0.5369 -0.0960 -3.1325
11937TIP3    H257303   1.629   0.118  14.476 -1.6482 -0.3325  2.3437
11938TIP3   OH257304   0.781   1.819   5.537 -0.1650 -0.1067  0.1830
11938TIP3    H157305   0.785   1.756   5.609  1.6876  0.9484  1.0948
11938TIP3    H257306   0.802   1.768   5.459 -0.6296 -0.9746  0.6157
11939TIP3   OH257307   4.930   5.739   0.936 -0.1314 -0.1336  0.1132
11939TIP3    H157308   5.014   5.767   0.973 -0.4203 -1.2177  1.7199
11939TIP3    H257309   4.865   5.781   0.993 -0.6896  0.3933 -0.8938
11940TIP3   OH257310   1.982   0.877   4.507 -0.2525  0.3437 -0.4572
11940TIP3    H157311   1.955   0.794   4.547  2.9245 -0.1108  1.0803
11940TIP3    H257312   1.967   0.865   4.413 -0.1246 -1.8745 -0.2480
11941TIP3   OH257313   1.332   1.353   0.987 -0.2093 -0.1302  0.0728
11941TIP3    H157314   1.420   1.328   0.958  0.3922  0.2728  1.4776
11941TIP3    H257315   1.306   1.424   0.928  0.4571 -0.1836 -0.2881
11942TIP3   OH257316   1.711   6.134  12.634  0.4946  0.5163 -0.4348
11942TIP3    H157317   1.746   6.224  12.636  1.2296  0.2410  1.5832
11942TIP3    H257318   1.728   6.100  12.722  0.5946 -1.7535 -1.2736
11943TIP3   OH257319   3.207   6.079   4.740  0.5504  0.3618  0.1101
11943TIP3    H157320   3.273   6.011   4.728  1.2815  0.7291  1.7888
11943TIP3    H257321   3.185   6.108   4.651 -0.0145 -2.2492 -0.6768
11944TIP3   OH257322   0.502   1.785  11.769 -0.5597  0.3648 -0.2378
11944TIP3    H157323   0.540   1.785  11.857 -0.5822  0.4162 -0.2280
11944TIP3    H257324   0.419   1.832  11.779 -0.5724  0.3511 -0.2820
11945TIP3   OH257325   5.874   6.429  14.559 -0.3631 -0.5020  1.1550
11945TIP3    H157326   5.926   6.507  14.577  2.5118 -1.9129 -0.4561
11945TIP3    H257327   5.892   6.371  14.633 -1.2654 -0.2749  1.5695
11946TIP3   OH257328   6.679   3.354   2.246 -0.0847  0.2295 -0.2531
11946TIP3    H157329   6.646   3.363   2.157 -2.0428  0.2311  0.4388
11946TIP3    H257330   6.766   3.395   2.243  0.1930 -0.3681 -2.2900
11947TIP3   OH257331   1.239   1.250  15.449 -0.1473  0.0429  0.0841
11947TIP3    H157332   1.150   1.246  15.483 -0.7525 -2.2076 -1.5609
11947TIP3    H257333   1.294   1.253  15.527 -1.6021  0.4230  1.1414
11948TIP3   OH257334   4.128   3.063   5.058  0.2801  0.0998 -0.2668
11948TIP3    H157335   4.076   3.040   5.135  2.2886 -0.5921  0.9428
11948TIP3    H257336   4.107   3.156   5.042 -2.3727 -0.4802 -0.7699
11949TIP3   OH257337   6.147   3.085  12.922 -0.7831  0.3044  0.0130
11949TIP3    H157338   6.207   3.011  12.934  0.0658  0.6203 -1.8340
11949TIP3    H257339   6.063   3.053  12.953 -0.1776 -1.0297  0.3628
11950TIP3   OH257340   3.917   1.074   4.703  0.4797 -0.0336  0.2777
11950TIP3    H157341   3.928   1.165   4.675 -1.0670  0.2203  0.4401
11950TIP3    H257342   3.983   1.062   4.771  0.2246  1.1941  0.7668
11951TIP3   OH257343   0.943   0.254   1.691  0.1197  0.0930  0.0575
11951TIP3    H157344   1.010   0.192   1.718  0.1946 -0.5849 -1.5796
11951TIP3    H257345   0.940   0.319   1.762  3.1061  0.6290 -0.1765
11952TIP3   OH257346   5.095   6.212   4.177 -0.2796  0.4220 -0.7542
11952TIP3    H157347   5.051   6.134   4.143  0.6924 -0.6075  0.2813
11952TIP3    H257348   5.077   6.211   4.271  1.2517  0.4098 -0.4337
11953TIP3   OH257349   2.272   5.487   2.927 -0.6699  0.1254  0.0171
11953TIP3    H157350   2.239   5.397   2.923 -0.9928  0.2509 -0.3158
11953TIP3    H257351   2.232   5.530   2.851  2.3505 -0.3895 -2.0496
11954TIP3   OH257352   3.277   3.525   2.275  0.3700 -0.2677 -0.1616
11954TIP3    H157353   3.206   3.582   2.305  0.6010  0.6977 -1.3656
11954TIP3    H257354   3.349   3.584   2.254  0.1840 -0.7900 -2.6803
11955TIP3   OH257355   6.672   3.839   3.655  0.1505 -0.4358  0.4258
11955TIP3    H157356   6.711   3.784   3.587  0.1284  2.6511 -2.3273
11955TIP3    H257357   6.578   3.827   3.644  0.1094  0.9481 -0.9918
11956TIP3   OH257358   3.558   4.902   5.170  0.4149  0.5633 -0.1191
11956TIP3    H157359   3.467   4.873   5.182  0.4269  1.2634  2.1244
11956TIP3    H257360   3.593   4.844   5.103 -1.1319 -1.0236  0.3682
11957TIP3   OH257361   0.171   2.466  12.901  0.6632  0.1325 -0.5215
11957TIP3    H157362   0.084   2.457  12.862  0.3158 -0.2060  0.3123
11957TIP3    H257363   0.163   2.426  12.987  0.8597  2.6339  0.7458
11958TIP3   OH257364   3.285   4.262   1.207  0.1364  0.1044 -0.4328
11958TIP3    H157365   3.233   4.336   1.176 -0.0735  0.9036  1.6230
11958TIP3    H257366   3.225   4.187   1.203 -0.1463  0.3607 -1.0729
11959TIP3   OH257367   4.416   4.914  13.095  0.1224 -0.2026  0.4298
11959TIP3    H157368   4.324   4.929  13.074  0.9674  2.5878 -1.8947
11959TIP3    H257369   4.441   4.840  13.040  0.2917  2.0004 -2.7015
11960TIP3   OH257370   0.033   1.602   1.100 -0.1100 -0.7892  0.4421
11960TIP3    H157371   0.039   1.518   1.054 -1.0593 -1.4728  1.5146
11960TIP3    H257372   0.085   1.662   1.047  2.6705 -2.5780  0.8752
11961TIP3   OH257373   3.693   6.292  13.135  0.2119  0.2543  0.1837
11961TIP3    H157374   3.671   6.380  13.106  2.6751  0.5986 -0.8881
11961TIP3    H257375   3.748   6.306  13.212  1.0713 -0.3063 -0.3169
11962TIP3   OH257376   0.186   1.324  15.420  0.1714 -0.6260  0.0689
11962TIP3    H157377   0.227   1.295  15.338 -0.1796  0.5972 -0.5758
11962TIP3    H257378   0.242   1.289  15.489  0.5805 -1.5261 -0.6953
11963TIP3   OH257379   5.286   2.080  11.484  0.4186 -0.4368  0.2041
11963TIP3    H157380   5.339   2.037  11.552  1.2529  0.8254  0.3932
11963TIP3    H257381   5.339   2.073  11.405  0.6932  0.4320  0.2934
11964TIP3   OH257382   2.777   1.157  13.615 -0.2008 -0.1515  0.4635
11964TIP3    H157383   2.777   1.240  13.663  1.4340 -0.2615  0.7103
11964TIP3    H257384   2.866   1.123  13.627 -0.4130 -1.2272 -0.8699
11965TIP3   OH257385   2.569   4.588   3.183 -0.0468 -0.4542 -0.1409
11965TIP3    H157386   2.597   4.677   3.161 -1.3402  0.2457  0.9214
11965TIP3    H257387   2.508   4.564   3.113 -0.7106  0.0214  0.2648
11966TIP3   OH257388   0.481   6.408   2.818  0.0140  0.5760  0.3694
11966TIP3    H157389   0.539   6.410   2.894  0.5930  1.0835 -0.0741
11966TIP3    H257390   0.405   6.459   2.845 -0.9603 -1.3635  1.5037
11967TIP3   OH257391   6.685   1.777   6.210 -0.5197 -0.1935  0.2742
11967TIP3    H157392   6.642   1.702   6.251 -1.9516 -0.0485 -0.8859
11967TIP3    H257393   6.728   1.822   6.283  1.5220 -2.8195  0.8176
11968TIP3   OH257394   2.970   0.472  16.394  0.1749 -0.2935 -0.0210
11968TIP3    H157395   3.026   0.429  16.330  0.5190  1.9766 -1.3604
11968TIP3    H257396   2.896   0.506  16.343  0.5362  1.7203  0.7001
11969TIP3   OH257397   6.206   2.826  12.048 -0.1649  0.5173  0.3370
11969TIP3    H157398   6.276   2.863  12.102  0.5144 -1.3551  0.7981
11969TIP3    H257399   6.136   2.806  12.109 -0.5598  1.0697  0.0778
11970TIP3   OH257400   1.628   0.829   4.232  0.0739 -0.3787 -0.7990
11970TIP3    H157401   1.537   0.802   4.216  0.1469 -0.9508 -0.3017
11970TIP3    H257402   1.644   0.803   4.323  0.6724 -0.0863 -0.8195
11971TIP3   OH257403   1.372   6.248  14.030  0.4564 -0.0249 -0.4025
11971TIP3    H157404   1.447   6.202  13.992 -0.8049 -1.7971 -0.8685
11971TIP3    H257405   1.296   6.210  13.987 -0.7238  2.0238 -0.2441
11972TIP3   OH257406   3.096   1.863   5.972  1.0306  0.1860  0.0775
11972TIP3    H157407   3.139   1.936   5.927  1.6916  0.5386  1.2413
11972TIP3    H257408   3.055   1.904   6.048 -1.1532 -0.1881 -0.8203
11973TIP3   OH257409   0.355   0.192   0.736  0.0984  0.1633  0.4314
11973TIP3    H157410   0.381   0.166   0.825  0.5548  0.6188  0.4335
11973TIP3    H257411   0.295   0.122   0.708  0.3851 -0.2747  0.8848
11974TIP3   OH257412   6.199   5.245  11.848 -0.0042 -0.7477 -0.3139
11974TIP3    H157413   6.164   5.332  11.866  0.5207 -0.5564 -0.1987
11974TIP3    H257414   6.252   5.225  11.925  1.0098 -0.5801 -0.9636
11975TIP3   OH257415   6.018   3.997  10.916  0.4996  0.5091  0.0291
11975TIP3    H157416   5.957   3.928  10.945  0.1781 -0.7278 -3.1549
11975TIP3    H257417   6.105   3.961  10.933  0.3605  0.7102  1.2463
11976TIP3   OH257418   6.418   0.050  17.100 -0.2975  0.1317 -0.1316
11976TIP3    H157419   6.465   0.118  17.052 -0.1076 -0.1122 -0.2987
11976TIP3    H257420   6.466  -0.031  17.079 -1.5334 -0.3229 -1.2937
11977TIP3   OH257421   4.735   0.227  12.759 -0.9538 -0.0476  0.0658
11977TIP3    H157422   4.683   0.304  12.735  0.4276  0.4655 -1.3774
11977TIP3    H257423   4.670   0.163  12.789 -2.1891  1.3943  0.5896
11978TIP3   OH257424   0.437   5.847  12.000  0.4763 -0.1833 -0.0009
11978TIP3    H157425   0.382   5.811  11.930 -1.7170 -0.8274  1.8924
11978TIP3    H257426   0.525   5.849  11.964 -0.5070 -0.7837 -2.6300
11979TIP3   OH257427   0.922   0.993  14.752  0.2261 -0.1219 -0.1720
11979TIP3    H157428   0.888   0.929  14.815  1.6094  0.0028  0.7226
11979TIP3    H257429   1.015   1.001  14.773  0.1481  1.9779 -0.4520
11980TIP3   OH257430   0.211   0.129  11.216  0.0340 -0.5896  0.3595
11980TIP3    H157431   0.203   0.036  11.237  0.6747 -0.5167  0.9534
11980TIP3    H257432   0.242   0.130  11.125 -0.7157 -0.9420  0.0964
11981TIP3   OH257433   3.060   3.956  16.712  0.3819 -0.1460 -0.1109
11981TIP3    H157434   3.103   3.975  16.795  0.5803  2.2632 -0.6796
11981TIP3    H257435   3.116   3.891  16.669  3.5291  2.7369 -0.7723
11982TIP3   OH257436   1.240   3.128  14.112 -0.2630  0.3340  0.2593
11982TIP3    H157437   1.287   3.200  14.070 -1.2577  0.5444 -0.5003
11982TIP3    H257438   1.283   3.119  14.198  2.8821 -1.1675 -1.2930
11983TIP3   OH257439   3.812   5.776  13.253 -0.1707  0.3487  0.5189
11983TIP3    H157440   3.766   5.844  13.204 -1.2355 -0.4772  0.3326
11983TIP3    H257441   3.832   5.816  13.338  2.9233  2.2946 -0.9153
11984TIP3   OH257442   1.132   6.106  13.958  0.2150  0.5588  0.0720
11984TIP3    H157443   1.081   6.127  14.036 -1.8343 -1.4571 -0.6240
11984TIP3    H257444   1.069   6.111  13.886  1.4597 -0.1081 -1.1070
11985TIP3   OH257445   6.259   4.772   2.452  0.0303  0.4725 -0.9339
11985TIP3    H157446   6.338   4.761   2.399 -0.1700  2.2174 -1.6467
11985TIP3    H257447   6.292   4.771   2.542  0.6738 -0.2740 -1.1658
11986TIP3   OH257448   3.040   5.117  13.134 -0.2340  0.2247  0.1960
11986TIP3    H157449   2.987   5.193  13.110 -0.2185 -0.0310 -0.6817
11986TIP3    H257450   3.129   5.142  13.108 -0.0568  0.3146  0.8749
11987TIP3   OH257451   1.840   1.281   1.201 -0.8320  0.6702  0.5298
11987TIP3    H157452   1.852   1.186   1.191  0.6289  0.9335 -0.6945
11987TIP3    H257453   1.754   1.298   1.163 -0.8658 -0.0965  0.2417
11988TIP3   OH257454   1.709   0.973   4.815 -0.2929 -0.2820  0.0617
11988TIP3    H157455   1.760   1.001   4.891 -0.6389 -1.6454  0.8491
11988TIP3    H257456   1.712   0.877   4.819  0.4111 -0.4056 -2.1771
11989TIP3   OH257457   2.112   3.025   1.750  0.4047  0.4886 -0.6861
11989TIP3    H157458   2.152   3.046   1.666  2.2791 -0.2170 -0.0210
11989TIP3    H257459   2.143   3.094   1.809 -0.5749  0.7517 -0.4535
11990TIP3   OH257460   0.475   2.082  16.638  0.5480  0.2784  0.0180
11990TIP3    H157461   0.420   2.130  16.577  0.2229 -1.7636 -1.4173
11990TIP3    H257462   0.463   2.126  16.722 -0.7884  1.7878 -0.9129
11991TIP3   OH257463   3.992   3.251  16.508 -0.2918  0.3994  0.0374
11991TIP3    H157464   4.061   3.233  16.444  0.4151  0.7909  0.6773
11991TIP3    H257465   3.965   3.164  16.538  2.0852  0.2307  2.0256
11992TIP3   OH257466   2.303   6.303   4.022 -0.0270  0.0881  0.3703
11992TIP3    H157467   2.275   6.241   3.955  0.5420 -0.6971  0.8354
11992TIP3    H257468   2.309   6.387   3.977 -2.0808  0.0906  0.0188
11993TIP3   OH257469   6.023   5.606   0.951  0.3199  0.0269 -0.3165
11993TIP3    H157470   5.961   5.621   0.880  1.5139 -1.4938 -1.7533
11993TIP3    H257471   6.020   5.511   0.965  1.8008  0.0250  0.0621
11994TIP3   OH257472   2.186   4.084  13.361 -0.6838 -0.1157 -0.1384
11994TIP3    H157473   2.195   4.086  13.456 -1.4411 -2.2578  0.0448
11994TIP3    H257474   2.222   3.999  13.336  3.9173  2.1539 -2.4012
11995TIP3   OH257475   1.519   2.998   0.620  0.1994  0.2055  0.3693
11995TIP3    H157476   1.508   3.059   0.547 -0.4041  1.7296  1.6582
11995TIP3    H257477   1.431   2.992   0.659  0.7754  0.5068  1.7715
11996TIP3   OH257478   1.935   2.216  14.597 -0.2713 -0.0823 -0.0782
11996TIP3    H157479   1.958   2.264  14.677 -0.8992  0.9182 -0.4867
11996TIP3    H257480   2.012   2.162  14.579  0.1278  0.1554  0.8472
11997TIP3   OH257481   2.047   6.399   2.011  0.0803  0.4457 -0.3586
11997TIP3    H157482   2.025   6.492   2.008 -1.1196  0.1696 -1.0228
11997TIP3    H257483   2.120   6.390   1.950  0.6825  1.0503  0.2496
11998TIP3   OH257484   4.977   6.543   0.288 -0.6399 -0.7540  0.2034
11998TIP3    H157485   5.045   6.589   0.240 -1.2558 -0.4628 -0.4152
11998TIP3    H257486   4.965   6.594   0.368  0.3833 -1.2323  0.6790
11999TIP3   OH257487   2.833   0.538  15.461 -0.4122 -0.2930  0.2444
11999TIP3    H157488   2.887   0.519  15.385 -0.4034 -0.0431  0.1857
11999TIP3    H257489   2.743   0.531  15.430 -0.4101 -0.4419  0.2742
12000TIP3   OH257490   4.702   5.971  15.509  0.3823  0.1618 -0.0882
12000TIP3    H157491   4.606   5.973  15.504  0.4357  2.3718 -1.7880
12000TIP3    H257492   4.726   6.060  15.536  1.9556 -0.8799  2.2907
12001TIP3   OH257493   3.515   5.092  12.407  0.3753 -0.0650 -0.3347
12001TIP3    H157494   3.524   5.000  12.432  0.2628  0.0364  0.0974
12001TIP3    H257495   3.488   5.089  12.315 -0.1122 -0.4803 -0.1875
12002TIP3   OH257496   3.154   1.441  12.670  0.0784 -0.0280  1.0646
12002TIP3    H157497   3.115   1.380  12.732  0.0298 -0.0495  1.0135
12002TIP3    H257498   3.086   1.455  12.604  0.7469 -1.4392  0.0100
12003TIP3   OH257499   3.408   3.770  13.490  0.3544 -0.0528  0.0047
12003TIP3    H157500   3.450   3.842  13.443  0.0819 -1.1360 -2.0193
12003TIP3    H257501   3.424   3.693  13.435 -2.3236 -0.9149  0.2929
12004TIP3   OH257502   1.788   4.841  14.676 -0.1293 -0.7019 -0.2844
12004TIP3    H157503   1.694   4.839  14.691 -0.1183  0.4735  0.0924
12004TIP3    H257504   1.816   4.926  14.710  1.5163 -2.0940  2.1555
12005TIP3   OH257505   1.960   2.173  13.064 -0.5753 -0.2856 -0.2938
12005TIP3    H157506   1.914   2.196  12.984  1.2082 -0.7185 -1.4803
12005TIP3    H257507   1.941   2.245  13.124 -2.4071 -0.2336 -0.8615
12006TIP3   OH257508   2.639   1.483  16.722 -0.4006  0.2763 -0.1752
12006TIP3    H157509   2.647   1.397  16.762  1.6053  0.5247  0.0335
12006TIP3    H257510   2.691   1.478  16.642  2.0161  2.0072  1.1632
12007TIP3   OH257511   4.636   0.144  15.781 -0.2304 -0.1609  0.2920
12007TIP3    H157512   4.688   0.086  15.725  0.4109  0.3395  0.3544
12007TIP3    H257513   4.664   0.232  15.757 -0.1313  0.0742  1.2094
12008TIP3   OH257514   2.000   5.358  15.323  0.5741 -0.3309  0.0113
12008TIP3    H157515   2.018   5.399  15.238  2.4718 -1.1260 -0.0405
12008TIP3    H257516   2.005   5.264  15.305  0.9765 -0.5046  0.9837
12009TIP3   OH257517   5.475   0.022   3.965  0.2073 -0.1721  0.2447
12009TIP3    H157518   5.481   0.023   3.870  0.1383 -1.5273  0.2130
12009TIP3    H257519   5.415  -0.050   3.985  0.8897 -0.4532  1.3492
12010TIP3   OH257520   2.262   5.486   0.459  0.3878  0.4152  0.2717
12010TIP3    H157521   2.281   5.392   0.459  1.6598  0.6602 -0.0968
12010TIP3    H257522   2.243   5.507   0.551  2.4176  0.2208  0.7851
12011TIP3   OH257523   5.365   0.385  10.993  0.8696 -0.4015  0.4544
12011TIP3    H157524   5.370   0.307  10.938  0.4820  0.3692 -0.7071
12011TIP3    H257525   5.273   0.414  10.987  1.5201  1.5365 -1.1552
12012TIP3   OH257526   0.514   1.348   3.539  0.3796  0.0805 -0.5434
12012TIP3    H157527   0.485   1.407   3.470 -1.0531  1.6081  1.2455
12012TIP3    H257528   0.505   1.399   3.619  2.2563 -1.5157  0.7654
12013TIP3   OH257529   2.618   0.475  15.261 -0.2127 -0.2690 -0.0273
12013TIP3    H157530   2.645   0.542  15.198 -0.1934  1.0851  1.3421
12013TIP3    H257531   2.546   0.516  15.309 -2.6388 -2.5825 -1.4366
12014TIP3   OH257532   5.394   3.038   4.049 -0.6807 -0.4002  0.3757
12014TIP3    H157533   5.321   3.058   3.990  0.1823  0.2459 -0.5118
12014TIP3    H257534   5.471   3.042   3.992  0.1409 -0.1464  1.4942
12015TIP3   OH257535   0.427   0.217   5.244 -0.2080 -0.4307  0.5862
12015TIP3    H157536   0.503   0.160   5.244 -0.3657 -0.6413  0.4826
12015TIP3    H257537   0.456   0.298   5.201 -0.1535 -0.6555  0.2011
12016TIP3   OH257538   0.980   6.108  15.136  0.2134 -0.1115  0.0939
12016TIP3    H157539   0.965   6.180  15.075  0.9307 -0.4282 -0.4593
12016TIP3    H257540   1.070   6.121  15.167  0.1854 -0.5072  0.3445
12017TIP3   OH257541   1.584   6.357   0.054 -0.6056 -0.0489  0.3151
12017TIP3    H157542   1.672   6.394   0.046  0.7752 -2.9155  0.9558
12017TIP3    H257543   1.569   6.354   0.149 -0.9925 -0.4427  0.2417
12018TIP3   OH257544   2.780   2.478   2.788 -0.6369  0.2759 -0.0002
12018TIP3    H157545   2.795   2.567   2.758 -0.1145  0.4983  0.8858
12018TIP3    H257546   2.828   2.423   2.727 -0.5127  0.6404 -0.2320
12019TIP3   OH257547   4.671   3.012  15.387  0.7204 -0.8700  0.6133
12019TIP3    H157548   4.752   2.966  15.407  1.5938  0.8657  1.2897
12019TIP3    H257549   4.605   2.944  15.383  2.1121 -2.2740  0.5764
12020TIP3   OH257550   2.912   5.879   3.878  0.1564 -0.1440 -0.5052
12020TIP3    H157551   2.994   5.887   3.829  0.4941 -0.9331 -0.0819
12020TIP3    H257552   2.936   5.901   3.968 -0.4514  1.2516 -0.6543
12021TIP3   OH257553   2.743   4.746  11.441  0.2045  0.7551 -0.0050
12021TIP3    H157554   2.748   4.754  11.346  1.5736  2.2749  0.1546
12021TIP3    H257555   2.805   4.812  11.474  1.3537 -1.1570  1.9028
12022TIP3   OH257556   5.639   5.075   2.276  0.0787  0.1203 -0.2718
12022TIP3    H157557   5.690   5.141   2.323 -1.1260  0.8415  0.0582
12022TIP3    H257558   5.694   4.996   2.279  0.7123  0.5770  0.9852
12023TIP3   OH257559   4.550   3.254  12.287  0.2521  0.2757 -0.2158
12023TIP3    H157560   4.584   3.197  12.356  2.2197  0.6133 -0.8650
12023TIP3    H257561   4.483   3.201  12.243  0.6812 -0.8178  0.4254
12024TIP3   OH257562   6.596   4.182  16.918 -0.5186  0.0806  0.0470
12024TIP3    H157563   6.631   4.144  16.838 -0.0665  0.4667  0.0594
12024TIP3    H257564   6.503   4.159  16.916 -0.4237 -0.2963 -0.3622
12025TIP3   OH257565   2.882   6.267   4.728 -0.5514  0.2635 -0.3281
12025TIP3    H157566   2.943   6.279   4.801 -1.5108  0.1285  0.5208
12025TIP3    H257567   2.864   6.356   4.698  1.7974  0.2182 -2.1058
12026TIP3   OH257568   4.623   3.437   2.907 -0.1718  0.1913 -0.0869
12026TIP3    H157569   4.634   3.359   2.962 -0.7606 -0.0874 -0.3580
12026TIP3    H257570   4.556   3.413   2.844 -0.1534  0.8251 -0.3583
12027TIP3   OH257571   4.893   1.782  13.122  0.5653  0.1801 -0.1230
12027TIP3    H157572   4.956   1.829  13.177  1.1274 -1.4111  0.6590
12027TIP3    H257573   4.851   1.720  13.182  1.2865 -1.7020 -1.4763
12028TIP3   OH257574   0.167   6.392   1.359  0.4086  0.0413  0.1599
12028TIP3    H157575   0.145   6.347   1.440  1.8858 -0.1197  0.5029
12028TIP3    H257576   0.230   6.334   1.316 -1.8562 -0.9132 -2.1524
12029TIP3   OH257577   2.075   6.676   3.703 -0.2463  0.3643  0.1886
12029TIP3    H157578   2.010   6.682   3.773 -1.1244  0.0843 -0.5700
12029TIP3    H257579   2.043   6.604   3.648  0.6822  0.2650 -0.2370
12030TIP3   OH257580   0.502   5.703   5.763  0.1996  0.7678 -0.0615
12030TIP3    H157581   0.505   5.750   5.847  1.9510  2.2726 -0.9130
12030TIP3    H257582   0.497   5.772   5.697  2.5756 -0.1838 -1.3632
12031TIP3   OH257583   6.212   3.408  13.784 -0.2081  0.1214 -0.3915
12031TIP3    H157584   6.165   3.436  13.862 -2.8125  0.3323 -1.9052
12031TIP3    H257585   6.244   3.489  13.744 -2.5436  0.5028 -1.6523
12032TIP3   OH257586   0.000   0.805   5.538  0.2512 -0.0510 -0.1654
12032TIP3    H157587   0.031   0.720   5.507 -3.1552 -1.9458  1.0550
12032TIP3    H257588   0.075   0.842   5.585  2.4326 -1.4496 -2.2764
12033TIP3   OH257589   5.965   1.869  14.943  0.2946 -0.6264 -0.2864
12033TIP3    H157590   6.013   1.929  14.885 -1.4705 -1.8391 -3.2416
12033TIP3    H257591   6.027   1.799  14.961  0.7189 -0.5036 -1.2082
12034TIP3   OH257592   0.560   2.249   1.891  0.2591  0.0135 -0.1986
12034TIP3    H157593   0.493   2.248   1.960 -1.2282  3.9114 -1.3225
12034TIP3    H257594   0.542   2.172   1.838 -1.2757 -0.7533  1.3443
12035TIP3   OH257595   0.492   2.114   4.397  0.0223 -0.4956 -0.3704
12035TIP3    H157596   0.516   2.108   4.304 -0.8747 -1.7327 -0.5457
12035TIP3    H257597   0.531   2.037   4.437 -0.5167 -0.5428  0.0679
12036TIP3   OH257598   5.139   0.976   2.164  0.0868  0.4502 -0.0274
12036TIP3    H157599   5.122   0.978   2.070 -1.2294  0.5484  0.2000
12036TIP3    H257600   5.185   0.893   2.178  0.2525  0.4141 -0.7481
12037TIP3   OH257601   2.618   6.636  10.990 -0.8139  0.2307  0.3306
12037TIP3    H157602   2.543   6.582  11.014 -1.5149  1.4782  1.0279
12037TIP3    H257603   2.679   6.575  10.949 -1.7749 -0.9944  0.6652
12038TIP3   OH257604   4.553   6.345  14.231 -0.4468  0.3418  0.1104
12038TIP3    H157605   4.511   6.431  14.231  0.6674  0.9192 -0.6672
12038TIP3    H257606   4.531   6.307  14.147 -0.0582  0.3229  0.0152
12039TIP3   OH257607   0.096   0.263   2.002  0.1979  0.0925  0.4283
12039TIP3    H157608   0.168   0.318   2.031  2.1967 -0.4240 -3.0393
12039TIP3    H257609   0.043   0.250   2.081  2.6122  2.3463  2.6333
12040TIP3   OH257610   2.661   0.574   2.237  0.4045  0.1182  0.1715
12040TIP3    H157611   2.607   0.510   2.284 -0.9985  0.6812 -0.5969
12040TIP3    H257612   2.633   0.566   2.146 -1.0496  2.9527  0.2607
12041TIP3   OH257613   4.692   2.379  16.380  0.1886  0.5134 -0.1500
12041TIP3    H157614   4.740   2.460  16.367  3.1225 -0.3158  3.6509
12041TIP3    H257615   4.649   2.390  16.464 -0.1238 -1.4977 -0.0021
12042TIP3   OH257616   1.174   3.826  11.209 -0.5401  0.2603  0.0020
12042TIP3    H157617   1.234   3.846  11.138 -1.2204 -0.2458 -0.7285
12042TIP3    H257618   1.087   3.839  11.172 -0.8894  1.3413  1.1574
12043TIP3   OH257619   3.805   3.152  13.052 -0.2320  0.1454 -0.4183
12043TIP3    H157620   3.812   3.198  12.968  0.4738  0.5111 -0.1735
12043TIP3    H257621   3.783   3.062  13.028 -0.9602  0.4596 -0.9417
12044TIP3   OH257622   1.362   3.936   2.013 -0.9258  0.1841 -0.3516
12044TIP3    H157623   1.398   3.853   1.984 -0.2224 -0.0936  1.2194
12044TIP3    H257624   1.279   3.913   2.056  0.5244 -0.1098  2.4892
12045TIP3   OH257625   6.149   3.726   2.508  0.4411 -0.6784 -0.1517
12045TIP3    H157626   6.106   3.789   2.566  0.0965 -1.0753  0.0350
12045TIP3    H257627   6.237   3.716   2.544 -0.2732 -2.1802  1.3426
12046TIP3   OH257628   1.564   1.393   3.509  0.3020 -0.4324 -0.2290
12046TIP3    H157629   1.477   1.354   3.504  0.0585  0.1695 -0.9092
12046TIP3    H257630   1.548   1.487   3.505  0.8542 -0.2180  1.5436
12047TIP3   OH257631   2.879   6.314   2.958 -0.4956  0.1196  0.1101
12047TIP3    H157632   2.834   6.388   2.917  2.5487  2.0505 -0.0398
12047TIP3    H257633   2.930   6.354   3.029 -0.3244 -2.1858  1.3841
12048TIP3   OH257634   3.924   2.347  12.232  0.3688  0.8194  0.1600
12048TIP3    H157635   3.953   2.264  12.269  0.3083  0.1728 -1.1924
12048TIP3    H257636   3.882   2.393  12.305  0.3497 -0.3534  0.9055
12049TIP3   OH257637   0.566   4.121   1.968 -0.3660 -0.0035  0.9231
12049TIP3    H157638   0.487   4.159   2.007 -0.0662  1.7158 -0.0538
12049TIP3    H257639   0.634   4.136   2.033 -0.5988 -0.3877  1.2552
12050TIP3   OH257640   0.928   5.036  13.795  0.3461  0.1434  0.0565
12050TIP3    H157641   0.952   5.082  13.876 -0.8199 -0.3092  0.6936
12050TIP3    H257642   0.871   4.965  13.824 -0.3091  0.1296 -1.1864
12051TIP3   OH257643   0.032   5.872  15.244  0.6326 -0.1233  0.1991
12051TIP3    H157644   0.109   5.885  15.189  0.6161 -2.2706 -0.4338
12051TIP3    H257645   0.047   5.788  15.288 -1.3012 -0.5786  0.1009
12052TIP3   OH257646   5.701   5.543  10.503  0.1190  0.1206 -0.4666
12052TIP3    H157647   5.616   5.502  10.486 -0.8260  1.8756 -0.1908
12052TIP3    H257648   5.765   5.475  10.481 -1.1903 -0.1288 -4.3150
12053TIP3   OH257649   2.386   5.287  15.860  0.4599  0.1921 -0.9121
12053TIP3    H157650   2.432   5.356  15.811  0.5447 -0.3857 -1.6769
12053TIP3    H257651   2.336   5.240  15.793 -0.1848 -0.0310 -0.2861
12054TIP3   OH257652   2.555   3.461   6.362 -0.7316 -0.2096  0.5444
12054TIP3    H157653   2.483   3.398   6.349  1.0228 -1.7154 -3.5174
12054TIP3    H257654   2.549   3.520   6.287  0.6536  1.4085  1.6311
12055TIP3   OH257655   2.724   3.949   2.245  0.0200 -0.0630  0.1291
12055TIP3    H157656   2.726   3.901   2.163 -0.7253 -0.3501  0.2719
12055TIP3    H257657   2.767   3.891   2.308  1.2578  0.4596 -0.1936
12056TIP3   OH257658   6.603   3.398  11.896  0.8467  0.2192  0.6718
12056TIP3    H157659   6.633   3.324  11.844 -2.1510 -1.4255  1.0092
12056TIP3    H257660   6.630   3.377  11.985  2.9051  1.2881  0.3594
12057TIP3   OH257661   2.101   1.558   5.493 -0.0656  0.2570 -0.6400
12057TIP3    H157662   2.018   1.530   5.532 -0.5294  1.0452 -1.0520
12057TIP3    H257663   2.166   1.500   5.533 -0.6816  0.2752  0.4245
12058TIP3   OH257664   3.266   3.951   1.055 -0.0478  0.6110  0.1223
12058TIP3    H157665   3.221   4.031   1.027 -1.7979 -0.0825  0.7785
12058TIP3    H257666   3.299   3.912   0.975 -1.9116  0.4402 -0.6173
12059TIP3   OH257667   6.733   4.486   1.736  0.4399 -0.2594  0.0439
12059TIP3    H157668   6.729   4.466   1.829  0.0408 -0.2033  0.0401
12059TIP3    H257669   6.819   4.526   1.723  0.4466 -0.1585  0.4063
12060TIP3   OH257670   2.881   4.422   4.392  0.2504  0.5815 -0.1604
12060TIP3    H157671   2.914   4.353   4.335  0.3909  0.0662  0.5256
12060TIP3    H257672   2.883   4.383   4.480 -0.7150  1.0768  0.0912
12061TIP3   OH257673   0.932   5.866  15.050 -0.0197 -0.2438  0.3393
12061TIP3    H157674   1.003   5.819  15.094 -0.0870  0.3330  1.0867
12061TIP3    H257675   0.934   5.954  15.088  0.8673  0.7788 -1.8626
12062TIP3   OH257676   6.706   2.751  14.232  0.0360  0.0542 -0.1184
12062TIP3    H157677   6.637   2.767  14.168  0.6255  0.0199 -0.7670
12062TIP3    H257678   6.725   2.658  14.225 -1.5754 -0.5036  1.8277
12063TIP3   OH257679   5.073   5.452   4.979 -0.6401  0.3619 -0.1960
12063TIP3    H157680   4.985   5.488   4.979 -1.0547 -0.2630  3.4514
12063TIP3    H257681   5.131   5.528   4.975 -1.3524  0.9084 -0.3026
12064TIP3   OH257682   1.875   2.177   5.498 -0.2602  0.8186  0.1039
12064TIP3    H157683   1.969   2.185   5.511  0.0805  0.0746 -1.6210
12064TIP3    H257684   1.849   2.261   5.460 -0.1393  0.7472 -0.1419
12065TIP3   OH257685   2.168   5.730  11.644 -0.6278  0.0086  0.0515
12065TIP3    H157686   2.112   5.772  11.709 -0.3402  0.0559  0.2685
12065TIP3    H257687   2.133   5.759  11.560 -2.2116 -1.5572  0.1156
12066TIP3   OH257688   4.393   4.869  15.376  0.1958 -0.5501  0.0360
12066TIP3    H157689   4.395   4.929  15.450 -2.3777  0.1611 -0.3735
12066TIP3    H257690   4.300   4.861  15.354  0.8937 -0.0732 -3.6456
12067TIP3   OH257691   3.534   3.625  12.175 -0.1438  0.7270 -0.6775
12067TIP3    H157692   3.589   3.574  12.234 -2.6900 -2.3999 -0.7076
12067TIP3    H257693   3.567   3.715  12.182  1.2350  0.1020  3.5784
12068TIP3   OH257694   1.747   4.309   1.191  0.0541 -0.0031  0.2263
12068TIP3    H157695   1.838   4.338   1.201 -0.7735  2.9770 -0.0781
12068TIP3    H257696   1.714   4.303   1.280  0.1253  0.3310  0.2739
12069TIP3   OH257697   0.535   0.601  13.904 -0.3659 -0.1496 -0.0926
12069TIP3    H157698   0.485   0.530  13.865  1.3451 -1.1766 -0.5227
12069TIP3    H257699   0.492   0.681  13.873 -1.4286 -0.9733 -0.8160
12070TIP3   OH257700   3.195   1.708  15.508  0.0747  0.1958 -0.1109
12070TIP3    H157701   3.260   1.724  15.439 -0.3435  1.2536 -0.2839
12070TIP3    H257702   3.111   1.720  15.463 -0.2306 -0.6108  0.2400
12071TIP3   OH257703   1.615   0.514  12.505 -0.0581 -0.4105  0.2077
12071TIP3    H157704   1.704   0.514  12.540  0.7060  0.3830 -1.6009
12071TIP3    H257705   1.611   0.593  12.450 -2.5785  0.7967  1.8899
12072TIP3   OH257706   5.572   5.940   0.906 -0.0414  0.2370  0.2582
12072TIP3    H157707   5.589   5.855   0.865 -0.5321  0.8122 -1.2311
12072TIP3    H257708   5.476   5.947   0.906 -0.0746  0.0905  1.9287
12073TIP3   OH257709   6.096   2.075   5.218  0.2709  0.4296  0.0486
12073TIP3    H157710   6.189   2.064   5.198  0.1457  1.4003 -1.2299
12073TIP3    H257711   6.063   1.986   5.232  1.1033 -0.0614 -0.9442
12074TIP3   OH257712   1.521   5.560  17.134  0.5259 -0.5949 -0.5848
12074TIP3    H157713   1.467   5.481  17.138  0.0033 -0.2119  0.5062
12074TIP3    H257714   1.611   5.527  17.125  0.2125 -1.2660 -1.3785
12075TIP3   OH257715   5.740   3.119  15.965  0.2407 -0.0494 -0.8307
12075TIP3    H157716   5.685   3.041  15.952 -0.8436  0.6385 -0.4726
12075TIP3    H257717   5.734   3.167  15.882 -1.5122  1.1263 -0.0728
12076TIP3   OH257718   5.653   4.446   5.353  0.0018  0.1320  0.8444
12076TIP3    H157719   5.583   4.406   5.303  0.1204  1.5400 -0.5206
12076TIP3    H257720   5.694   4.374   5.400  1.1523 -1.6589 -2.6077
12077TIP3   OH257721   3.356   0.059   0.255  0.3482  0.1789  0.3674
12077TIP3    H157722   3.370   0.119   0.181  0.4378 -1.1624 -0.7350
12077TIP3    H257723   3.325   0.116   0.325  0.5417  1.5443 -0.6014
12078TIP3   OH257724   2.835   4.736  12.861 -0.0575  0.6699  0.6199
12078TIP3    H157725   2.783   4.787  12.798 -2.4444 -1.0540  1.0725
12078TIP3    H257726   2.876   4.802  12.917 -1.0352  2.1358 -0.3240
12079TIP3   OH257727   4.656   5.715   4.741  0.2419 -0.6352 -0.2441
12079TIP3    H157728   4.566   5.698   4.713  0.1451 -0.1048 -0.2729
12079TIP3    H257729   4.682   5.794   4.693  0.9579 -1.1585 -0.7451
12080TIP3   OH257730   5.472   2.533   3.872  0.0137 -0.1219  0.4562
12080TIP3    H157731   5.406   2.594   3.906  1.4051  0.6635  1.9074
12080TIP3    H257732   5.527   2.513   3.948 -0.1017 -2.8624 -0.0927
12081TIP3   OH257733   0.261   0.676  15.441 -0.5716 -0.7354 -0.0760
12081TIP3    H157734   0.353   0.658  15.422  0.6082  1.7684  2.6081
12081TIP3    H257735   0.244   0.630  15.524 -1.4758 -0.4368 -0.0798
12082TIP3   OH257736   3.824   6.684   2.773 -0.3681 -0.4688  0.1095
12082TIP3    H157737   3.896   6.711   2.831  1.3699  0.1545 -2.1861
12082TIP3    H257738   3.794   6.766   2.733  0.7328 -1.1550 -2.2845
12083TIP3   OH257739   1.619   2.733  16.410 -0.4493  0.8031  0.1538
12083TIP3    H157740   1.599   2.744  16.317 -1.6070  1.3138  0.4482
12083TIP3    H257741   1.544   2.685  16.445  0.5179 -0.4240  0.6122
12084TIP3   OH257742   2.882   0.331   5.548  0.0482 -0.0551 -0.0483
12084TIP3    H157743   2.945   0.303   5.615 -0.5883  1.1430  1.0894
12084TIP3    H257744   2.936   0.368   5.478  0.6776 -0.5372  0.1683
12085TIP3   OH257745   1.428   4.548  17.167  0.3221  0.2637  0.3122
12085TIP3    H157746   1.452   4.478  17.229  0.8902  0.1483 -0.0304
12085TIP3    H257747   1.477   4.527  17.087 -1.2092 -0.1856 -0.5460
12086TIP3   OH257748   3.768   2.045  11.622 -0.0639  0.0955 -0.5845
12086TIP3    H157749   3.848   2.088  11.652  0.5729 -0.9464 -0.7559
12086TIP3    H257750   3.703   2.068  11.689  1.7383 -3.7834  2.9851
12087TIP3   OH257751   5.716   2.123   4.083 -0.1900  0.4832 -0.2764
12087TIP3    H157752   5.703   2.077   4.000 -0.5614  0.5936 -0.2854
12087TIP3    H257753   5.742   2.055   4.145 -0.6268  0.2743 -0.3138
12088TIP3   OH257754   5.353   1.209  17.038 -0.1376  0.2985  0.1233
12088TIP3    H157755   5.360   1.113  17.042  1.8791  0.4535  2.1326
12088TIP3    H257756   5.344   1.228  16.945 -3.6580 -1.9262 -0.1949
12089TIP3   OH257757   6.399   0.828   2.156  0.1819  0.1220  0.2115
12089TIP3    H157758   6.405   0.789   2.243 -0.1925  0.7014  0.4989
12089TIP3    H257759   6.317   0.877   2.157 -0.6690 -1.1867 -1.0146
12090TIP3   OH257760   2.377   2.185   4.757  0.3422  0.1666  0.2151
12090TIP3    H157761   2.350   2.114   4.699 -0.2603  0.0010  0.6953
12090TIP3    H257762   2.452   2.150   4.806  0.8040  0.2812 -0.3963
12091TIP3   OH257763   4.376   2.202  14.073 -0.4538  0.2332 -0.3909
12091TIP3    H157764   4.287   2.226  14.098 -0.0171  1.5414 -0.0164
12091TIP3    H257765   4.403   2.268  14.010  0.5801  0.4350  0.2284
12092TIP3   OH257766   2.424   2.266  17.095 -0.6380  0.3693  0.1436
12092TIP3    H157767   2.448   2.344  17.146 -1.7869  0.4524  0.5888
12092TIP3    H257768   2.331   2.276  17.079 -0.5707 -0.3669 -0.7838
12093TIP3   OH257769   3.175   4.666   1.325  0.9179  0.2590  0.2020
12093TIP3    H157770   3.113   4.723   1.371 -0.2281  0.4206 -1.4231
12093TIP3    H257771   3.122   4.591   1.297  1.7035 -0.1177 -0.3194
12094TIP3   OH257772   5.116   1.969   6.125  0.2745  0.1872 -0.1781
12094TIP3    H157773   5.062   1.905   6.080  0.8646 -0.2212 -0.3200
12094TIP3    H257774   5.155   1.920   6.197 -1.6931  1.1310  1.6429
12095TIP3   OH257775   0.844   4.763   4.144 -0.6255  0.7274 -0.4651
12095TIP3    H157776   0.880   4.769   4.055 -0.1901 -1.8951 -0.5380
12095TIP3    H257777   0.751   4.747   4.130 -0.5180  0.0855 -0.4713
12096TIP3   OH257778   0.938   2.812  13.085 -0.2271 -0.6184  0.5577
12096TIP3    H157779   0.916   2.816  12.992  0.7934  0.5758  0.3423
12096TIP3    H257780   0.932   2.902  13.115  0.8775 -0.7621  1.2922
12097TIP3   OH257781   6.695   0.311  15.125 -0.3378  0.4013  0.1242
12097TIP3    H157782   6.752   0.294  15.200 -0.6232 -3.1774 -0.2596
12097TIP3    H257783   6.610   0.334  15.163  0.6891  3.5463  0.7242
12098TIP3   OH257784   4.367   0.379   4.949 -0.4928 -0.7258  0.1733
12098TIP3    H157785   4.354   0.391   4.854 -0.1395 -1.6486  0.0033
12098TIP3    H257786   4.462   0.386   4.961 -0.2502 -3.1064  0.0704
12099TIP3   OH257787   2.435   0.282  15.945  0.6128  0.2323  0.1371
12099TIP3    H157788   2.427   0.297  15.851  0.7063  2.1846  0.4013
12099TIP3    H257789   2.509   0.221  15.953 -0.1955 -0.9830 -1.0791
12100TIP3   OH257790   2.043   5.315   0.673  0.2440  0.5198 -0.1661
12100TIP3    H157791   2.031   5.221   0.657 -0.0741  0.3925  0.7393
12100TIP3    H257792   1.973   5.357   0.624 -0.8366  0.1304  0.9913
12101TIP3   OH257793   6.773   4.927  12.005 -0.3157 -0.1909  0.0233
12101TIP3    H157794   6.813   4.859  11.950  0.4690  0.1602  0.1586
12101TIP3    H257795   6.726   4.878  12.073 -1.6025 -0.6471 -1.1391
12102TIP3   OH257796   1.026   4.864   2.673  0.2702 -0.1382 -0.0440
12102TIP3    H157797   0.996   4.872   2.764 -1.0233  2.7467 -0.6076
12102TIP3    H257798   0.960   4.809   2.631  0.9595 -1.6219  0.7499
12103TIP3   OH257799   1.272   3.427   0.040 -0.1893 -0.6631  0.0946
12103TIP3    H157800   1.241   3.409  -0.049 -1.4480  0.5797  0.2326
12103TIP3    H257801   1.313   3.513   0.034  0.0712 -0.7482  0.6319
12104TIP3   OH257802   3.575   2.957  16.132  0.2884  0.0667 -0.2643
12104TIP3    H157803   3.624   2.884  16.096  0.1132 -0.1282 -0.1103
12104TIP3    H257804   3.587   3.028  16.069 -1.0674 -0.6447 -1.3874
12105TIP3   OH257805   4.185   0.056   4.316  0.7387  0.2970 -0.3087
12105TIP3    H157806   4.151   0.001   4.387 -0.0381  1.7628  0.4876
12105TIP3    H257807   4.276   0.073   4.340  1.0172 -0.6998 -0.6144
12106TIP3   OH257808   5.236   4.643   5.188  0.4342  0.1621  0.0156
12106TIP3    H157809   5.325   4.654   5.222  0.4024  0.6244 -0.0537
12106TIP3    H257810   5.249   4.595   5.106  0.4490 -1.6871  1.0447
12107TIP3   OH257811   0.613   4.454   4.873  0.4712 -0.3560 -0.3133
12107TIP3    H157812   0.566   4.400   4.936  0.7316  1.4884  1.5783
12107TIP3    H257813   0.706   4.436   4.891  0.5479 -1.0373 -1.3277
12108TIP3   OH257814   4.227   3.612  12.922  0.0974 -0.2593  0.0962
12108TIP3    H157815   4.167   3.544  12.953  0.9743 -0.5720  1.1877
12108TIP3    H257816   4.303   3.564  12.890  0.3381  0.1774  0.0058
12109TIP3   OH257817   6.242   5.915   2.195  0.3687 -0.7394 -0.2469
12109TIP3    H157818   6.204   5.989   2.147 -0.4974 -0.9795  0.0573
12109TIP3    H257819   6.336   5.922   2.178  0.1044 -0.7705 -1.9208
12110TIP3   OH257820   6.318   1.720   2.496 -0.3113 -0.4474  0.5467
12110TIP3    H157821   6.306   1.658   2.423  0.4541 -0.2722  0.2663
12110TIP3    H257822   6.380   1.676   2.555 -0.2766 -0.2273  0.6750
12111TIP3   OH257823   1.578   5.260  15.681 -0.2663  0.0276  0.5334
12111TIP3    H157824   1.612   5.288  15.766 -1.2680 -0.3308  1.0686
12111TIP3    H257825   1.514   5.328  15.658 -0.9608 -0.5581  0.7039
12112TIP3   OH257826   5.076   0.032   3.930 -0.0000  0.0922 -0.3478
12112TIP3    H157827   5.020   0.069   3.862 -0.0910 -1.3252 -1.0749
12112TIP3    H257828   5.137   0.102   3.952  0.5954  0.3237 -2.5172
12113TIP3   OH257829   4.179   6.111   4.786 -0.3913  0.1859 -0.1749
12113TIP3    H157830   4.120   6.049   4.743 -0.1680 -0.0561 -0.1378
12113TIP3    H257831   4.157   6.106   4.879 -0.7514  0.5759 -0.2384
12114TIP3   OH257832   5.639   3.670  10.966 -0.0974 -0.0974 -0.4590
12114TIP3    H157833   5.646   3.610  10.891 -1.4682  0.2320 -0.8897
12114TIP3    H257834   5.619   3.755  10.927  1.7454  0.6535  0.1568
12115TIP3   OH257835   5.155   4.985   1.699 -0.1504 -0.2559  0.4940
12115TIP3    H157836   5.078   4.941   1.662 -2.0222  2.0464  1.3899
12115TIP3    H257837   5.127   5.013   1.786  2.4708 -1.1741  1.7339
12116TIP3   OH257838   1.757   3.139   0.416  0.1660 -0.4021  0.1108
12116TIP3    H157839   1.662   3.146   0.410  0.2298 -0.4700 -1.5321
12116TIP3    H257840   1.775   3.046   0.411  0.2511 -0.5885  2.6889
12117TIP3   OH257841   0.359   3.069   1.461  0.0041 -0.6069 -0.3443
12117TIP3    H157842   0.312   3.112   1.390  1.2782 -0.1254 -0.9204
12117TIP3    H257843   0.298   3.072   1.535 -1.0521 -0.4430 -1.1966
12118TIP3   OH257844   5.998   5.233   4.830 -0.0232 -0.2476 -0.0701
12118TIP3    H157845   6.071   5.271   4.780  0.6265 -1.9129 -0.4427
12118TIP3    H257846   6.033   5.152   4.867 -1.5299 -0.8058  0.2156
12119TIP3   OH257847   4.193   6.476  12.134  0.7164 -0.0182 -0.1569
12119TIP3    H157848   4.206   6.403  12.196 -0.5370 -0.0078  0.1481
12119TIP3    H257849   4.281   6.508  12.117  1.1637 -0.5377  1.0139
12120TIP3   OH257850   5.839   6.257   4.573  0.0434  0.0729  0.0547
12120TIP3    H157851   5.756   6.237   4.530 -1.1912  1.6839  1.5846
12120TIP3    H257852   5.855   6.182   4.630 -1.2552  0.5082  1.0227
12121TIP3   OH257853   4.949   6.482  15.016  0.5982  0.5481 -0.1039
12121TIP3    H157854   5.018   6.540  15.046  1.9431 -0.4676 -1.0925
12121TIP3    H257855   4.933   6.424  15.091  1.3916  0.2937 -0.1166
12122TIP3   OH257856   1.212   4.745  12.369 -0.6509 -0.0219 -0.5223
12122TIP3    H157857   1.272   4.802  12.321 -0.8957  1.0121  0.3706
12122TIP3    H257858   1.265   4.710  12.441  0.3571 -3.2732 -2.6158
12123TIP3   OH257859   2.142   3.513  12.709 -0.1957 -0.0797  0.4910
12123TIP3    H157860   2.188   3.568  12.772 -1.1499 -0.4695  1.5577
12123TIP3    H257861   2.091   3.575  12.656  0.3286  0.2176  0.3245
12124TIP3   OH257862   3.290   2.045  16.862  0.1521 -0.6252  0.1436
12124TIP3    H157863   3.271   2.130  16.822  0.9893 -0.4362  0.1352
12124TIP3    H257864   3.263   2.054  16.953  1.4878  0.1228  0.4974
12125TIP3   OH257865   2.832   1.848  14.642 -0.2334 -0.5071 -0.1086
12125TIP3    H157866   2.791   1.784  14.585 -1.7142  1.1069 -0.9513
12125TIP3    H257867   2.873   1.911  14.583 -0.4498  0.3558  0.6328
12126TIP3   OH257868   6.457   2.537  14.374 -0.1232  0.0062 -0.3672
12126TIP3    H157869   6.448   2.491  14.458 -0.7410  0.4519 -0.1830
12126TIP3    H257870   6.536   2.589  14.385  0.5129 -0.8951 -0.5299
12127TIP3   OH257871   1.401   6.831   0.282  0.1097  0.0366  0.3027
12127TIP3    H157872   1.435   6.892   0.217  0.0691 -0.6095 -0.3374
12127TIP3    H257873   1.307   6.847   0.284  0.1893  0.4832  0.6603
12128TIP3   OH257874   1.174   6.769   6.606  0.7042  0.1599 -0.3068
12128TIP3    H157875   1.095   6.823   6.599 -0.0736 -0.5539  1.9773
12128TIP3    H257876   1.200   6.752   6.515 -1.5623  0.7341 -1.1263
12129TIP3   OH257877   1.104   1.869  13.815 -0.2013  0.0938  0.5899
12129TIP3    H157878   1.069   1.859  13.727 -2.5698 -1.6335  1.6360
12129TIP3    H257879   1.127   1.780  13.842  1.1189  0.6786  1.5027
12130TIP3   OH257880   2.390   2.411   4.334 -0.3254  0.7717  0.1133
12130TIP3    H157881   2.448   2.380   4.264 -0.5458  0.7642 -0.0699
12130TIP3    H257882   2.406   2.351   4.407  0.7943  1.5265  0.4961
12131TIP3   OH257883   6.403   2.236  15.198 -0.3383  0.3575 -0.3495
12131TIP3    H157884   6.429   2.168  15.260  1.4909  1.0339 -0.3111
12131TIP3    H257885   6.354   2.300  15.250 -3.2816 -1.4717 -0.6276
12132TIP3   OH257886   0.241   6.202   3.525 -0.6485  0.3296  0.5900
12132TIP3    H157887   0.212   6.201   3.434  0.6154 -0.2308  0.1607
12132TIP3    H257888   0.172   6.157   3.573 -0.3652 -1.2923 -0.4500
12133TIP3   OH257889   1.584   4.915   2.089 -0.2989  0.1126 -0.3781
12133TIP3    H157890   1.588   4.834   2.140  1.5620  0.8628  0.8021
12133TIP3    H257891   1.630   4.979   2.144 -0.5056  1.6126 -1.8926
12134TIP3   OH257892   1.031   1.712   5.270 -0.1629 -0.3003 -0.3833
12134TIP3    H157893   1.051   1.639   5.212 -0.9865  0.3013 -1.4670
12134TIP3    H257894   0.946   1.744   5.240 -0.0458  0.7923  0.3813
12135TIP3   OH257895   6.182   2.584  12.382 -0.0623 -0.5968  0.0330
12135TIP3    H157896   6.168   2.604  12.475 -1.5333 -0.2829 -0.2330
12135TIP3    H257897   6.207   2.669  12.344 -0.4422 -0.5185 -0.0391
12136TIP3   OH257898   5.901   6.627   6.167  0.2032  0.3574 -0.4693
12136TIP3    H157899   5.873   6.584   6.248  0.2870  0.9153 -0.1374
12136TIP3    H257900   5.829   6.686   6.145  0.1688  0.1889 -0.8200
12137TIP3   OH257901   6.369   2.118  11.501  0.0479 -0.1048  0.2896
12137TIP3    H157902   6.381   2.198  11.450  2.2522  0.2547  1.2781
12137TIP3    H257903   6.279   2.090  11.481 -0.6196  2.3444 -0.4378
12138TIP3   OH257904   3.545   4.691  13.775 -0.2702 -0.0303  0.5632
12138TIP3    H157905   3.499   4.704  13.858  0.8980  1.7770  0.9918
12138TIP3    H257906   3.631   4.730  13.789 -1.0700  3.4158 -2.4577
12139TIP3   OH257907   0.934   2.455  15.034  0.0280 -0.2793  0.2725
12139TIP3    H157908   0.895   2.406  14.961 -0.1894  0.8229 -0.3737
12139TIP3    H257909   0.899   2.543  15.025  2.4288  0.7063 -0.1820
12140TIP3   OH257910   3.468   6.399  14.147 -0.4465  0.3445 -0.0643
12140TIP3    H157911   3.523   6.373  14.220 -3.1530  0.1656  2.0855
12140TIP3    H257912   3.499   6.487  14.124  0.6735  0.2768  1.0791
12141TIP3   OH257913   5.995   6.274  14.366  0.3779 -0.3108 -0.5565
12141TIP3    H157914   5.964   6.190  14.401 -0.7775 -0.2235 -1.2995
12141TIP3    H257915   5.923   6.335  14.385  1.2254  0.5279  0.0142
12142TIP3   OH257916   0.679   2.877  17.218 -0.1028  0.4205  0.6770
12142TIP3    H157917   0.673   2.816  17.291 -1.0041 -1.2744 -0.7435
12142TIP3    H257918   0.703   2.961  17.258  0.0624 -0.5966  2.8078
12143TIP3   OH257919   3.509   1.923  14.646  0.5160 -0.4392 -0.1309
12143TIP3    H157920   3.554   1.947  14.727  0.7618 -1.1049 -0.0623
12143TIP3    H257921   3.580   1.912  14.582  0.2458  1.3941 -0.8157
12144TIP3   OH257922   1.243   1.339   5.482  0.2280 -0.6791  0.8206
12144TIP3    H157923   1.190   1.260   5.474 -1.9873  0.7457  0.8020
12144TIP3    H257924   1.288   1.329   5.566 -1.8797 -0.9336  1.9898
12145TIP3   OH257925   1.731   6.691   0.288  0.3449  0.2085 -0.3191
12145TIP3    H157926   1.822   6.668   0.309 -0.2339 -1.3914  0.6082
12145TIP3    H257927   1.734   6.716   0.196  2.2245  3.2541  0.4419
12146TIP3   OH257928   1.482   5.014   0.108  0.4331  0.1368  0.0800
12146TIP3    H157929   1.574   5.036   0.126 -0.0706  3.0885 -0.4623
12146TIP3    H257930   1.438   5.026   0.192  0.4381 -0.8805  0.2432
12147TIP3   OH257931   3.153   0.676  14.826 -0.2033  0.3647 -0.0684
12147TIP3    H157932   3.146   0.683  14.731  2.5930  0.3161 -0.3652
12147TIP3    H257933   3.188   0.760  14.854 -0.4384  0.1685  0.8375
12148TIP3   OH257934   3.569   4.347   1.574 -0.0692 -0.0063 -0.5549
12148TIP3    H157935   3.536   4.414   1.634  0.4604  0.4157 -0.7228
12148TIP3    H257936   3.528   4.367   1.490  0.2190  0.2165 -0.6453
12149TIP3   OH257937   1.919   3.206   1.286 -0.0279  0.3001  0.1158
12149TIP3    H157938   1.875   3.158   1.356 -0.3601  3.0468  1.9726
12149TIP3    H257939   1.887   3.167   1.205 -2.3720 -0.7507  1.4543
12150TIP3   OH257940   3.545   5.893  16.266 -0.1197 -0.0948  0.5298
12150TIP3    H157941   3.561   5.983  16.294 -0.0313 -0.0545  0.3527
12150TIP3    H257942   3.552   5.895  16.171  1.8922 -0.6503  0.6161
12151TIP3   OH257943   4.372   5.143   1.061  0.0222  0.1460  0.5193
12151TIP3    H157944   4.296   5.118   1.113  1.2325 -0.4463  2.0783
12151TIP3    H257945   4.444   5.147   1.123  1.2499  0.8830 -0.8779
12152TIP3   OH257946   4.344   3.929  14.441  0.1977 -0.0359 -0.2292
12152TIP3    H157947   4.344   3.961  14.351  0.8890  0.2890 -0.1259
12152TIP3    H257948   4.256   3.895  14.455 -0.5075  1.5997 -0.4307
12153TIP3   OH257949   6.760   5.210  16.356 -0.0965 -0.0938  0.0355
12153TIP3    H157950   6.829   5.146  16.374 -2.2256 -2.0289  1.9692
12153TIP3    H257951   6.694   5.161  16.308 -0.6590  1.4048 -0.7816
12154TIP3   OH257952   6.174   0.084   4.107 -0.0162 -0.1609 -0.2152
12154TIP3    H157953   6.164   0.032   4.187  0.7739  0.0340  0.0308
12154TIP3    H257954   6.249   0.141   4.126 -1.5042  1.8589 -0.0378
12155TIP3   OH257955   3.912   1.227  14.512 -0.1776 -0.6876  0.0202
12155TIP3    H157956   3.823   1.252  14.490 -0.0080 -0.9403 -1.0195
12155TIP3    H257957   3.905   1.187  14.599 -0.9479 -0.0243  0.2725
12156TIP3   OH257958   5.288   3.413  16.199 -0.0836 -0.1123 -0.1353
12156TIP3    H157959   5.313   3.323  16.222  0.3680  0.4767  1.9243
12156TIP3    H257960   5.365   3.465  16.221 -0.3114  0.7939 -1.3893
12157TIP3   OH257961   4.310   4.322  12.100 -0.0210  0.6972  0.3522
12157TIP3    H157962   4.381   4.362  12.151  0.7592 -0.5995  0.3217
12157TIP3    H257963   4.300   4.235  12.137  0.3254 -0.1621 -1.4469
12158TIP3   OH257964   3.994   2.010   5.607  0.2695 -0.1081  0.2222
12158TIP3    H157965   3.952   1.925   5.607 -2.9014  1.2750  2.1361
12158TIP3    H257966   4.056   2.007   5.534 -1.0826 -3.3535 -0.9353
12159TIP3   OH257967   4.436   3.509  12.106 -0.2529 -0.0905 -0.2550
12159TIP3    H157968   4.441   3.445  12.177 -1.7963 -2.9480 -2.4721
12159TIP3    H257969   4.359   3.562  12.125  0.4148  0.4378  1.0768
12160TIP3   OH257970   3.551   2.034  11.848  0.2350  0.3793 -0.1275
12160TIP3    H157971   3.470   2.033  11.899  0.5694 -0.2305  0.4121
12160TIP3    H257972   3.620   2.026  11.914  0.6697 -0.5331 -0.6666
12161TIP3   OH257973   4.544   6.645  14.354 -0.2024  0.1142  0.3978
12161TIP3    H157974   4.620   6.702  14.355 -0.3163  0.2635  0.5622
12161TIP3    H257975   4.558   6.585  14.427  0.8404 -1.2988 -0.8911
12162TIP3   OH257976   2.971   1.361   3.342 -0.1491  0.3269 -0.0155
12162TIP3    H157977   3.051   1.412   3.345  0.0731  0.0623 -1.0992
12162TIP3    H257978   2.999   1.270   3.354 -0.3899  0.3102  0.4741
12163TIP3   OH257979   4.457   3.410   6.639 -0.1443  0.5302  0.1704
12163TIP3    H157980   4.475   3.358   6.561  2.2010  0.5136  0.6679
12163TIP3    H257981   4.461   3.348   6.711  2.2476  1.2345  0.7252
12164TIP3   OH257982   5.436   5.798   0.295 -0.3854  0.0592 -0.0477
12164TIP3    H157983   5.482   5.714   0.295 -2.0661 -0.8969 -0.0371
12164TIP3    H257984   5.352   5.779   0.254 -1.9209  1.0895  2.4362
12165TIP3   OH257985   1.067   5.102   1.463  0.5094 -0.2756 -0.3619
12165TIP3    H157986   1.101   5.016   1.438  0.1603 -0.9486  1.3449
12165TIP3    H257987   1.136   5.163   1.436  3.0314 -1.5357  2.5313
12166TIP3   OH257988   6.336   3.082  15.394  0.1146  0.2790 -0.3404
12166TIP3    H157989   6.302   3.094  15.483  1.7843  0.5615  0.3109
12166TIP3    H257990   6.395   3.007  15.401 -1.2683 -1.0007 -1.7042
12167TIP3   OH257991   5.541   3.706   0.815  0.1469  0.0878 -0.2389
12167TIP3    H157992   5.567   3.644   0.747  1.2604 -2.8653  2.6419
12167TIP3    H257993   5.447   3.719   0.800 -0.2847 -2.8377 -0.6507
12168TIP3   OH257994   1.549   2.414  16.048  0.3184 -0.9710 -0.5013
12168TIP3    H157995   1.554   2.370  16.133 -0.3214  0.3970  0.2804
12168TIP3    H257996   1.479   2.369  16.001 -2.1238  0.7160  1.2705
12169TIP3   OH257997   0.568   5.088   5.288 -0.3563  0.3127 -0.7296
12169TIP3    H157998   0.637   5.129   5.340  0.1623  0.6431 -1.6358
12169TIP3    H257999   0.486   5.121   5.324 -0.0991 -0.8208  0.9900
12170TIP3   OH258000   3.233   0.731   0.744  0.7524  0.7129 -0.3520
12170TIP3    H158001   3.141   0.707   0.747  1.1976 -1.0514  1.3983
12170TIP3    H258002   3.240   0.806   0.803  0.9990 -1.7389  3.0091
12171TIP3   OH258003   4.119   4.858  12.194 -0.1448  0.2348 -0.3875
12171TIP3    H158004   4.112   4.813  12.279 -2.4295 -0.1100 -0.6946
12171TIP3    H258005   4.127   4.951  12.217 -0.7366  0.1458  0.2216
12172TIP3   OH258006   1.349   3.062  15.626  0.9781 -0.5576  0.4265
12172TIP3    H158007   1.335   3.154  15.651  0.3131 -0.8410  1.1443
12172TIP3    H258008   1.283   3.046  15.559  0.4638 -0.7804  0.9858
12173TIP3   OH258009   5.492   5.157   4.167  0.0005 -0.1636  0.9656
12173TIP3    H158010   5.498   5.063   4.186  0.5879 -0.6272 -1.1966
12173TIP3    H258011   5.399   5.172   4.151 -0.3223 -0.0115  2.7409
12174TIP3   OH258012   0.846   4.680  11.715  0.2336 -0.3590  0.0618
12174TIP3    H158013   0.807   4.705  11.799 -0.2577  0.4271 -0.3881
12174TIP3    H258014   0.780   4.622  11.675  0.8490 -1.4623  0.5785
12175TIP3   OH258015   3.100   3.229   0.154  0.0745  0.6076  0.2031
12175TIP3    H158016   3.024   3.199   0.205  0.7547 -1.0403  0.3306
12175TIP3    H258017   3.131   3.307   0.200 -0.1062 -0.0931  1.5817
12176TIP3   OH258018   4.270   0.321   1.898 -0.2085  0.0928  0.6465
12176TIP3    H158019   4.240   0.255   1.961 -1.3941 -0.2291 -0.2132
12176TIP3    H258020   4.214   0.308   1.821 -0.1962  1.8256  0.2942
12177TIP3   OH258021   6.301   6.067   5.410  0.3569  0.2667 -0.1733
12177TIP3    H158022   6.266   6.095   5.494 -0.0383 -0.7601  0.0250
12177TIP3    H258023   6.327   5.976   5.424  0.9489  0.3018 -0.9637
12178TIP3   OH258024   1.102   6.013   2.967 -0.6441 -0.1496 -0.1331
12178TIP3    H158025   1.068   6.042   2.883 -0.6332 -1.2593 -0.5351
12178TIP3    H258026   1.029   5.968   3.009 -0.4231 -0.2806  0.1186
12179TIP3   OH258027   2.713   1.549  16.147 -0.6629  0.0748  0.0388
12179TIP3    H158028   2.677   1.531  16.060 -0.3170  0.9152 -0.2956
12179TIP3    H258029   2.777   1.618  16.132 -0.1057 -0.2461  0.8716
12180TIP3   OH258030   6.149   4.612   5.437  0.5503 -0.2159 -0.6785
12180TIP3    H158031   6.138   4.642   5.347 -0.2634 -0.5563 -0.7017
12180TIP3    H258032   6.063   4.621   5.477  1.2619  1.5172  0.5853
12181TIP3   OH258033   3.291   2.806   1.037 -0.3809 -0.6268 -0.8405
12181TIP3    H158034   3.366   2.833   0.983  0.3801 -0.2400  0.3538
12181TIP3    H258035   3.218   2.802   0.976 -0.6472  4.2510 -1.2195
12182TIP3   OH258036   3.709   1.103   4.116 -0.2353  0.4469  0.3908
12182TIP3    H158037   3.740   1.192   4.103 -2.5880  1.5274  1.5853
12182TIP3    H258038   3.666   1.080   4.033 -1.8620  1.4630  0.9063
12183TIP3   OH258039   6.443   1.580  13.745  0.4023 -0.2733 -0.3124
12183TIP3    H158040   6.479   1.668  13.760  1.1167 -0.5445 -0.3840
12183TIP3    H258041   6.449   1.537  13.831 -1.6702  0.3337  0.1940
12184TIP3   OH258042   2.875   3.494  16.162 -0.2687 -0.1418 -0.0340
12184TIP3    H158043   2.824   3.414  16.170 -0.4711  0.1142  1.6125
12184TIP3    H258044   2.921   3.503  16.246  0.3633  1.0492 -0.4694
12185TIP3   OH258045   5.526   4.272  15.725  0.5684 -0.2434 -0.0353
12185TIP3    H158046   5.523   4.177  15.738  1.5615 -0.0703  1.8065
12185TIP3    H258047   5.590   4.303  15.789 -0.6968  1.8323  0.3308
12186TIP3   OH258048   5.381   3.669  15.483  0.1984  0.3937 -0.3429
12186TIP3    H158049   5.393   3.736  15.416  1.5544 -0.0150 -0.5388
12186TIP3    H258050   5.361   3.590  15.434 -1.7441  0.6864 -0.0964
12187TIP3   OH258051   0.634   6.059   2.836  0.2645 -0.6100 -0.3542
12187TIP3    H158052   0.679   6.130   2.881  1.4598 -1.1778 -0.6041
12187TIP3    H258053   0.609   5.998   2.905  1.1825 -0.9835 -0.3362
12188TIP3   OH258054   4.169   1.384  13.829 -0.5720 -0.3549  0.3605
12188TIP3    H158055   4.171   1.399  13.923  1.1341 -0.6092  0.3993
12188TIP3    H258056   4.174   1.471  13.790 -0.2704 -0.3041  0.5146
12189TIP3   OH258057   1.352   3.963   4.873 -0.1712  0.2931 -0.1647
12189TIP3    H158058   1.410   4.023   4.825  0.3445 -0.3247 -0.3348
12189TIP3    H258059   1.317   3.905   4.805 -1.2180  0.8348 -0.1001
12190TIP3   OH258060   5.879   6.411   2.945  0.1554  0.4205  0.2782
12190TIP3    H158061   5.792   6.442   2.972  0.0833 -0.0799  0.6441
12190TIP3    H258062   5.938   6.483   2.967 -0.4826  1.9161 -2.4717
12191TIP3   OH258063   4.225   1.665  11.355 -0.5765  0.3258 -0.6789
12191TIP3    H158064   4.309   1.690  11.316  0.0257 -0.4581  0.0931
12191TIP3    H258065   4.200   1.741  11.408  0.4510 -0.0355  0.3747
12192TIP3   OH258066   5.337   1.907   1.183 -0.3261 -0.7182  0.6966
12192TIP3    H158067   5.316   1.996   1.153  1.1886  0.4693  2.8201
12192TIP3    H258068   5.295   1.900   1.268 -0.0408 -1.8667  0.7579
12193TIP3   OH258069   4.297   5.134   4.800  0.7154 -0.4672 -0.3386
12193TIP3    H158070   4.292   5.166   4.890 -0.3237  1.1887 -0.9469
12193TIP3    H258071   4.206   5.115   4.776  0.8364  0.1877 -1.3940
12194TIP3   OH258072   2.431   4.032  16.809  0.1866  0.1099 -0.6770
12194TIP3    H158073   2.427   3.997  16.898 -0.8420 -0.0751 -0.7916
12194TIP3    H258074   2.469   4.119  16.820 -1.4577  0.7682  0.1775
12195TIP3   OH258075   6.062   2.159  15.832  0.1096  0.3207 -0.0119
12195TIP3    H158076   6.106   2.239  15.804  1.0132  1.1416  3.2850
12195TIP3    H258077   6.125   2.089  15.814  0.7078  0.8175  0.1291
12196TIP3   OH258078   2.379   1.650   0.514  0.1736  0.3141 -0.1073
12196TIP3    H158079   2.319   1.584   0.548 -1.6766  2.0491  0.2645
12196TIP3    H258080   2.432   1.676   0.590 -0.2584  0.4053  0.1721
12197TIP3   OH258081   4.361   0.641  13.878 -0.4126  0.4115  0.2263
12197TIP3    H158082   4.411   0.613  13.955  2.2492  1.5836 -0.9447
12197TIP3    H258083   4.363   0.736  13.882 -1.2145  0.4819 -0.7203
12198TIP3   OH258084   4.066   4.244  15.240  0.2890  0.3409  0.3576
12198TIP3    H158085   4.124   4.289  15.178  0.3566  0.5430  0.5669
12198TIP3    H258086   3.990   4.302  15.249  1.0035  1.1124  1.7110
12199TIP3   OH258087   3.229   4.360  10.934  0.1296  0.1131 -0.2505
12199TIP3    H158088   3.271   4.371  10.848  0.1458 -0.9202 -0.3842
12199TIP3    H258089   3.278   4.290  10.976 -0.7727 -0.3739  0.0198
12200TIP3   OH258090   0.444   0.577   3.598  0.3105  0.0884 -0.3944
12200TIP3    H158091   0.484   0.643   3.542  0.3509  0.3937 -0.0093
12200TIP3    H258092   0.385   0.528   3.540 -1.0246  1.5482 -0.3168
12201TIP3   OH258093   4.867   5.688  15.134  0.6428  0.2824 -0.2748
12201TIP3    H158094   4.823   5.753  15.189  1.4086  0.8140 -0.2794
12201TIP3    H258095   4.834   5.705  15.046 -0.7765 -0.7318  0.0279
12202TIP3   OH258096   5.786   2.655   2.471  0.0511 -0.2805  0.5844
12202TIP3    H158097   5.760   2.567   2.498 -0.5888 -1.5693 -3.4657
12202TIP3    H258098   5.868   2.642   2.423 -0.9346  0.9317 -1.6019
12203TIP3   OH258099   6.120   4.971   4.928 -0.5757 -0.9562 -1.0784
12203TIP3    H158100   6.190   4.957   4.991  0.2058  2.6987 -0.9151
12203TIP3    H258101   6.040   4.978   4.981  0.0279  1.7542 -0.3805
12204TIP3   OH258102   6.547   3.170   3.787  0.0436  0.0374 -0.3349
12204TIP3    H158103   6.606   3.175   3.711 -1.3491  0.3565 -1.4424
12204TIP3    H258104   6.468   3.218   3.759 -0.4211  0.3637  1.4113
12205TIP3   OH258105   3.360   5.055   2.911 -0.1736  0.2704 -0.2849
12205TIP3    H158106   3.381   5.130   2.857  0.7225  1.5151  1.6780
12205TIP3    H258107   3.280   5.019   2.873 -0.4418  2.0076 -1.4684
12206TIP3   OH258108   2.754   4.469  11.196 -0.0190 -0.0512 -0.4259
12206TIP3    H158109   2.834   4.517  11.213  0.7237 -1.5696  0.6502
12206TIP3    H258110   2.780   4.377  11.198 -1.7913 -0.5927 -0.0007
12207TIP3   OH258111   6.355   4.239   1.988  0.1920 -0.0333 -0.4087
12207TIP3    H158112   6.346   4.243   1.893 -0.2926  3.3175 -0.3319
12207TIP3    H258113   6.267   4.214   2.019  0.2317 -0.6771 -0.7935
12208TIP3   OH258114   0.574   6.113   3.931  0.0958  0.3338  0.1400
12208TIP3    H158115   0.480   6.119   3.943  0.3533  1.6168  1.9425
12208TIP3    H258116   0.589   6.147   3.843 -1.1203 -0.1812 -0.2900
12209TIP3   OH258117   1.255   1.567  17.082  0.0929 -0.3806 -0.4069
12209TIP3    H158118   1.246   1.472  17.091  0.4011 -0.5091 -1.3744
12209TIP3    H258119   1.335   1.589  17.131 -0.1918 -0.5561  0.1462
12210TIP3   OH258120   2.312   5.559  13.111  0.2439 -0.2791 -0.2517
12210TIP3    H158121   2.319   5.482  13.053  1.0852 -0.6857  0.3718
12210TIP3    H258122   2.402   5.579  13.135 -0.1577 -1.3147  2.4467
12211TIP3   OH258123   0.837   4.333   5.011 -0.2385 -0.2015  0.5378
12211TIP3    H158124   0.828   4.262   5.074 -0.1754 -0.5183  0.1924
12211TIP3    H258125   0.915   4.380   5.038 -0.9902  0.5248  1.5442
12212TIP3   OH258126   4.163   3.834  16.156 -0.2316 -0.2736  0.4557
12212TIP3    H158127   4.118   3.910  16.119  0.4329  0.2074  0.6031
12212TIP3    H258128   4.243   3.871  16.195 -0.2911 -0.9463  1.2319
12213TIP3   OH258129   3.409   0.912  11.240  0.0070  0.1507  0.0563
12213TIP3    H158130   3.458   0.845  11.287 -0.9463 -1.8704 -1.6704
12213TIP3    H258131   3.434   0.902  11.148 -1.1507  1.2737 -0.4243
12214TIP3   OH258132   2.564   4.136  11.780  0.3104 -0.5748 -0.2487
12214TIP3    H158133   2.525   4.054  11.812 -1.1968  0.1731 -0.0898
12214TIP3    H258134   2.490   4.187  11.748  1.4248  0.0211 -2.0208
12215TIP3   OH258135   4.705   0.881   2.078  0.4153 -0.4754  0.3658
12215TIP3    H158136   4.753   0.804   2.047 -0.4855  0.1647 -3.0229
12215TIP3    H258137   4.737   0.953   2.024 -1.6725  0.7101  0.5912
12216TIP3   OH258138   0.250   1.337   4.692 -0.9570 -0.3281 -0.4206
12216TIP3    H158139   0.334   1.377   4.668 -0.3697 -0.3400  1.4539
12216TIP3    H258140   0.265   1.243   4.682 -1.1287 -0.2750 -1.2059
12217TIP3   OH258141   6.633   1.655  14.320 -0.2142 -0.4949 -0.1748
12217TIP3    H158142   6.644   1.693  14.233 -3.0911  1.8454  0.3178
12217TIP3    H258143   6.571   1.584  14.309 -1.4959  0.5517  0.0581
12218TIP3   OH258144   2.392   2.704   1.007  0.3503  0.2257  0.1965
12218TIP3    H158145   2.402   2.750   0.924 -0.1905  2.2933  1.2253
12218TIP3    H258146   2.307   2.660   0.999 -0.0037  0.9517 -0.0863
12219TIP3   OH258147   0.608   0.700  14.463 -0.2155 -0.4858  0.3608
12219TIP3    H158148   0.687   0.732  14.507 -0.5822 -0.2708  0.8672
12219TIP3    H258149   0.635   0.690  14.371 -0.0547  1.2054  0.1868
12220TIP3   OH258150   6.241   5.440  13.910 -0.4126  0.1847 -0.0940
12220TIP3    H158151   6.313   5.431  13.973  0.4918  0.2971 -1.0727
12220TIP3    H258152   6.227   5.351  13.878  0.6269  0.4362 -1.3099
12221TIP3   OH258153   4.709   4.523  12.720 -0.4620 -0.1717  0.1275
12221TIP3    H158154   4.719   4.459  12.649  1.4206 -0.1816  0.3778
12221TIP3    H258155   4.723   4.608  12.678  3.1960 -0.2938  0.8434
12222TIP3   OH258156   2.655   5.893  15.853  0.4042  0.2896 -0.1737
12222TIP3    H158157   2.740   5.851  15.861  0.6138  0.2036 -2.2801
12222TIP3    H258158   2.592   5.825  15.876  0.8765  0.3713  1.4572
12223TIP3   OH258159   4.116   3.241   0.659 -0.3393  0.2160  0.2961
12223TIP3    H158160   4.135   3.183   0.733 -0.5397 -0.3093 -0.0628
12223TIP3    H258161   4.066   3.313   0.698 -0.2742  0.0426  0.7067
12224TIP3   OH258162   0.599   4.425  16.742 -0.4597 -0.2917 -0.5064
12224TIP3    H158163   0.508   4.398  16.734 -0.4987 -0.0004 -1.1513
12224TIP3    H258164   0.645   4.377  16.673 -0.0334 -0.7899  0.1119
12225TIP3   OH258165   4.808   1.704  14.062  0.2065  0.6707 -0.0615
12225TIP3    H158166   4.855   1.709  14.145  0.7549  1.9998 -0.4239
12225TIP3    H258167   4.831   1.618  14.027  0.7877  0.5043  0.6934
12226TIP3   OH258168   4.127   0.357   5.259  0.6940  0.4305 -0.7252
12226TIP3    H158169   4.140   0.277   5.311  0.5896 -0.0485 -1.4200
12226TIP3    H258170   4.050   0.398   5.298  0.1942 -0.2899 -0.9294
12227TIP3   OH258171   4.854   4.101   6.081  0.0482  0.3972  0.0721
12227TIP3    H158172   4.858   4.197   6.090 -2.7280  0.6020 -0.2174
12227TIP3    H258173   4.770   4.077   6.119  0.6898 -1.9744  0.1240
12228TIP3   OH258174   4.754   4.357  14.413 -0.2672 -0.3105 -0.1939
12228TIP3    H158175   4.808   4.288  14.452  0.5222  0.5174  0.1958
12228TIP3    H258176   4.720   4.406  14.488 -1.1746 -0.5151 -0.4521
12229TIP3   OH258177   1.369   5.261  13.052  0.0490  0.3632  0.2367
12229TIP3    H158178   1.335   5.230  13.136 -0.5564  0.4124  0.0167
12229TIP3    H258179   1.464   5.255  13.060 -0.0102  0.3316  0.9093
12230TIP3   OH258180   0.104   5.173   5.486 -0.1627 -0.4457 -0.0795
12230TIP3    H158181   0.127   5.085   5.455 -0.2064 -0.5244  0.1123
12230TIP3    H258182   0.081   5.161   5.578  0.2897 -0.1586  0.0761
12231TIP3   OH258183   4.678   3.970  16.275  0.1362 -0.4823 -0.1797
12231TIP3    H158184   4.645   4.048  16.319  0.6411 -0.4552  0.1681
12231TIP3    H258185   4.749   3.939  16.332 -0.0695 -1.2001 -0.3056
12232TIP3   OH258186   3.040   1.648  12.974  0.5643  0.2581  0.0789
12232TIP3    H158187   3.040   1.706  12.898  1.9761  0.5825  0.2832
12232TIP3    H258188   3.063   1.706  13.048  0.0208 -0.2006  0.6189
12233TIP3   OH258189   3.000   4.556  14.477 -0.3822 -0.3304 -0.0480
12233TIP3    H158190   3.068   4.615  14.445 -0.2075 -1.3923 -1.7477
12233TIP3    H258191   3.042   4.507  14.548  0.0726  0.2161  0.0651
12234TIP3   OH258192   5.974   2.698  13.456 -0.0750 -0.2992 -0.2806
12234TIP3    H158193   6.005   2.781  13.419 -0.9023  0.4729  0.6931
12234TIP3    H258194   5.891   2.681  13.411 -0.3767 -0.0937  0.1873
12235TIP3   OH258195   4.070   6.364   1.069 -0.1881 -0.2637  0.0713
12235TIP3    H158196   4.053   6.445   1.021  0.2472 -0.1962  0.0285
12235TIP3    H258197   4.022   6.375   1.152  0.2105  0.2134  0.2414
12236TIP3   OH258198   5.612   1.174  17.061 -0.2439 -0.1010  0.6001
12236TIP3    H158199   5.542   1.233  17.089  1.1857  0.9754  2.0963
12236TIP3    H258200   5.642   1.133  17.142  1.6363  0.3647  0.1731
12237TIP3   OH258201   5.288   0.739  10.898 -0.3818 -0.3576  0.4357
12237TIP3    H158202   5.233   0.817  10.893 -2.1435 -1.5907 -0.1657
12237TIP3    H258203   5.342   0.753  10.976 -0.1212  1.7678 -0.0456
12238TIP3   OH258204   6.715   1.199   3.924 -0.4427  0.6508  0.5272
12238TIP3    H158205   6.778   1.185   3.994  2.2981  2.2806 -1.3800
12238TIP3    H258206   6.676   1.285   3.944  0.8920  1.4727 -0.2210
12239TIP3   OH258207   4.715   1.120  13.332  0.3794  0.4718 -0.1424
12239TIP3    H158208   4.699   1.214  13.328  1.8505  0.7340 -0.4832
12239TIP3    H258209   4.795   1.107  13.281  0.0983 -0.9970 -0.2636
12240TIP3   OH258210   6.160   2.243  13.654  0.0344  0.0033  0.1123
12240TIP3    H158211   6.065   2.237  13.668 -0.0057  0.3698  0.0018
12240TIP3    H258212   6.181   2.335  13.673  0.4585 -0.2105  0.7086
12241TIP3   OH258213   2.590   3.072  14.957 -0.9730 -0.4759 -0.2605
12241TIP3    H158214   2.595   2.977  14.967 -1.4910 -0.5653 -0.7884
12241TIP3    H258215   2.671   3.096  14.914 -0.2410 -0.5023  1.0396
12242TIP3   OH258216   6.104   0.952  16.958  0.5252  0.2567 -0.1386
12242TIP3    H158217   6.114   0.858  16.942 -1.6979  0.4175 -3.3108
12242TIP3    H258218   6.194   0.985  16.965  1.4121 -1.7809 -1.0922
12243TIP3   OH258219   6.074   1.756   4.011  0.2673 -0.7000 -0.1601
12243TIP3    H158220   6.168   1.766   3.997  0.4362  1.4111  1.9088
12243TIP3    H258221   6.035   1.832   3.969 -0.4339 -1.0531 -0.1683
12244TIP3   OH258222   0.360   4.549  16.371  0.0963 -0.8876  0.7661
12244TIP3    H158223   0.382   4.562  16.278  1.2670 -1.0410  1.0080
12244TIP3    H258224   0.425   4.600  16.418 -0.6010 -0.6654  1.5164
12245TIP3   OH258225   0.887   3.680  13.520  0.6102 -0.0509  0.3874
12245TIP3    H158226   0.808   3.636  13.552  2.2592 -2.1862  1.8047
12245TIP3    H258227   0.908   3.633  13.439  0.6737  0.2133  0.2527
12246TIP3   OH258228   5.427   0.407   0.624  0.0168  0.1538  0.7229
12246TIP3    H158229   5.394   0.496   0.612 -1.5958 -0.2355  1.9761
12246TIP3    H258230   5.436   0.373   0.535  0.7678  1.5718  0.2090
12247TIP3   OH258231   4.857   0.262  12.142  0.0250 -0.3574  0.3640
12247TIP3    H158232   4.860   0.355  12.120  0.4126 -0.6243 -0.7941
12247TIP3    H258233   4.906   0.254  12.223  0.6623  0.3418  0.0546
12248TIP3   OH258234   0.364   5.488  12.372 -0.0572  0.4789  0.0240
12248TIP3    H158235   0.283   5.471  12.323 -1.2294 -0.5568  2.1836
12248TIP3    H258236   0.405   5.560  12.325 -1.4722  0.0538 -2.0192
12249TIP3   OH258237   1.785   4.643   0.423  0.3535 -0.3595 -0.4717
12249TIP3    H158238   1.868   4.595   0.433  0.2910 -0.2084  0.8915
12249TIP3    H258239   1.812   4.734   0.411  0.4744 -0.6590 -3.1086
12250TIP3   OH258240   2.449   1.766  16.186 -0.0087  0.4357 -0.4759
12250TIP3    H158241   2.354   1.764  16.178  0.0027  1.8831 -1.2780
12250TIP3    H258242   2.481   1.755  16.096  0.5541  0.7916 -0.3283
12251TIP3   OH258243   6.005   5.821  11.187 -0.5348 -0.4549  0.3000
12251TIP3    H158244   5.970   5.891  11.133  0.1173  1.3429  2.0788
12251TIP3    H258245   6.086   5.795  11.143 -0.2669  0.6313  0.1242
12252TIP3   OH258246   5.890   4.418  14.699 -0.1303 -0.0660 -0.3788
12252TIP3    H158247   5.892   4.450  14.609 -0.3292 -0.5637 -0.5670
12252TIP3    H258248   5.955   4.347  14.701  1.2645  1.1704  0.3702
12253TIP3   OH258249   1.683   4.328   0.590  0.1994 -0.1173 -0.0186
12253TIP3    H158250   1.762   4.275   0.592  0.1711 -0.1522  0.1940
12253TIP3    H258251   1.676   4.357   0.499  0.8927  0.5383  0.1265
12254TIP3   OH258252   2.513   4.874  10.240  0.1238 -0.1653 -0.9828
12254TIP3    H158253   2.586   4.826  10.279  0.3436  1.5258  0.8448
12254TIP3    H258254   2.530   4.965  10.262 -2.7117  0.2537 -0.1838
12255TIP3   OH258255   5.936   4.226  16.987  0.5547 -0.6580  0.3460
12255TIP3    H158256   5.841   4.228  16.975  0.5551 -0.0937  0.3977
12255TIP3    H258257   5.970   4.272  16.911  0.8761 -2.0842 -0.4133
12256TIP3   OH258258   6.656   0.660  12.009 -0.0655 -0.6733 -0.4719
12256TIP3    H158259   6.680   0.749  11.984 -0.7513 -0.9431 -2.1829
12256TIP3    H258260   6.711   0.604  11.955  0.2198 -1.3219  0.4550
12257TIP3   OH258261   5.617   5.792  14.060  0.0591 -0.5595 -0.0813
12257TIP3    H158262   5.699   5.746  14.043  0.9343  1.2189 -0.9988
12257TIP3    H258263   5.636   5.849  14.134 -0.4455 -0.3771 -0.0848
12258TIP3   OH258264   5.764   1.050   2.385  0.0513 -0.4273 -0.3773
12258TIP3    H158265   5.716   1.033   2.466  0.4531 -2.2485 -0.4736
12258TIP3    H258266   5.739   0.978   2.326 -0.2892  0.8883 -1.9229
12259TIP3   OH258267   6.497   0.283  13.577 -0.0223 -0.0799 -0.0087
12259TIP3    H158268   6.522   0.331  13.656  1.8200  0.5806 -0.9275
12259TIP3    H258269   6.529   0.337  13.505 -3.3072  0.2784 -1.3472
12260TIP3   OH258270   3.997   2.930   2.236 -0.0898  0.0264  0.5402
12260TIP3    H158271   3.979   3.012   2.282 -0.3423  0.2789  0.0051
12260TIP3    H258272   3.921   2.875   2.255 -0.0333  0.0023  0.7014
12261TIP3   OH258273   0.740   6.405   5.320  0.1047 -0.2949  0.2638
12261TIP3    H158274   0.698   6.456   5.251 -0.3727 -1.2729 -0.1874
12261TIP3    H258275   0.827   6.443   5.328 -0.2053  0.5109 -0.1438
12262TIP3   OH258276   2.260   2.375   1.159 -0.3902 -0.2282 -0.2174
12262TIP3    H158277   2.227   2.440   1.221 -3.3650 -1.7181 -0.0328
12262TIP3    H258278   2.234   2.409   1.073  0.8205  0.2718 -0.3995
12263TIP3   OH258279   1.857   4.230  12.413 -0.2443  0.0161 -0.4477
12263TIP3    H158280   1.886   4.157  12.358 -2.1575 -0.8413 -0.3820
12263TIP3    H258281   1.766   4.210  12.434 -0.4241  1.7847  0.6618
12264TIP3   OH258282   5.843   2.552   1.541 -0.0036  0.2642  0.4891
12264TIP3    H158283   5.829   2.483   1.606  0.8194  0.4743  0.8991
12264TIP3    H258284   5.770   2.542   1.480  1.0941 -2.1646 -0.5379
12265TIP3   OH258285   0.883   1.762  16.348  0.9341 -0.4920 -0.5153
12265TIP3    H158286   0.851   1.684  16.302  0.9856 -0.0586 -1.3005
12265TIP3    H258287   0.867   1.744  16.441  1.1810 -1.5471 -0.6648
12266TIP3   OH258288   5.037   3.012  12.420  0.3656 -0.3701 -0.1700
12266TIP3    H158289   5.010   3.047  12.505  0.9402 -0.0250 -0.1280
12266TIP3    H258290   5.133   3.010  12.424  0.4182  0.2428 -1.0461
12267TIP3   OH258291   5.999   0.527   0.608  0.3115  0.4679  0.3766
12267TIP3    H158292   5.910   0.522   0.572  0.6054 -0.7647 -0.2664
12267TIP3    H258293   6.053   0.488   0.539  1.0405 -0.9898  1.7334
12268TIP3   OH258294   1.016   5.366   2.376 -0.1723 -0.1752  0.9377
12268TIP3    H158295   0.942   5.307   2.386 -0.6452  0.1305 -0.5029
12268TIP3    H258296   1.093   5.314   2.401 -0.4867 -1.6684 -0.9888
12269TIP3   OH258297   5.998   2.085  15.119 -0.5559  0.6690  0.4392
12269TIP3    H158298   5.955   2.021  15.063 -0.8708  0.5126  0.8467
12269TIP3    H258299   5.938   2.095  15.194 -0.3843  1.2372  0.5093
12270TIP3   OH258300   0.849   0.661   5.408 -0.6834  0.2315  0.4643
12270TIP3    H158301   0.881   0.585   5.457  0.4097  0.6314  0.3971
12270TIP3    H258302   0.754   0.657   5.417 -0.6025 -0.7648  1.0268
12271TIP3   OH258303   5.779   4.114  13.009  0.0564 -0.1266  0.4132
12271TIP3    H158304   5.858   4.110  12.955 -0.4171 -1.1916 -0.2353
12271TIP3    H258305   5.807   4.080  13.094  0.5076  0.3421  0.4527
12272TIP3   OH258306   6.524   1.787   4.827 -0.4078  0.4775  0.4943
12272TIP3    H158307   6.440   1.762   4.866  0.2098  0.4582  1.9050
12272TIP3    H258308   6.588   1.769   4.896  0.9276 -0.6500 -0.9612
12273TIP3   OH258309   2.442   5.608  11.563 -0.2000 -0.4021  0.0511
12273TIP3    H158310   2.360   5.629  11.608 -0.4403 -0.6280 -0.2756
12273TIP3    H258311   2.487   5.693  11.555 -1.3699  0.1246 -1.6663
12274TIP3   OH258312   3.134   2.014  16.502 -0.4473  0.7721  0.3492
12274TIP3    H158313   3.061   2.008  16.440 -1.6922 -1.1603  1.8365
12274TIP3    H258314   3.100   2.068  16.573 -0.5027 -0.2029  1.0897
12275TIP3   OH258315   4.621   1.047  14.823 -0.0731 -0.0907  0.0837
12275TIP3    H158316   4.712   1.046  14.792 -0.0261 -0.8053  0.2107
12275TIP3    H258317   4.568   1.031  14.745 -0.0661  0.0228  0.0566
12276TIP3   OH258318   0.602   4.769  14.382 -0.3531  0.1910 -0.1055
12276TIP3    H158319   0.610   4.847  14.327  0.5372  0.1328 -0.0838
12276TIP3    H258320   0.671   4.780  14.449 -0.3660 -0.5021  0.0304
12277TIP3   OH258321   0.933   1.278  14.999  0.2880  0.0082  0.1126
12277TIP3    H158322   0.949   1.224  15.076  0.8943 -0.2991 -0.2176
12277TIP3    H258323   0.917   1.366  15.033  2.3673  0.2843  0.5164
12278TIP3   OH258324   1.546   6.595   2.612 -0.2430 -0.0004  0.1753
12278TIP3    H158325   1.484   6.647   2.665  1.1379  1.6952  0.2252
12278TIP3    H258326   1.544   6.636   2.526  0.1385 -0.5130 -0.0837
12279TIP3   OH258327   3.132   5.949   0.682  0.0406 -0.8530 -0.6132
12279TIP3    H158328   3.162   5.873   0.633  1.5375 -0.8070  0.1746
12279TIP3    H258329   3.178   5.944   0.766 -1.4356 -0.2062  0.2697
12280TIP3   OH258330   3.963   0.203  13.349  0.2771  0.4312 -0.3858
12280TIP3    H158331   3.923   0.178  13.266 -0.6771 -0.1596  0.2378
12280TIP3    H258332   3.953   0.126  13.405 -0.5685  1.3674  0.8119
12281TIP3   OH258333   5.588   0.828  10.650 -0.4121  0.4195  0.0728
12281TIP3    H158334   5.660   0.792  10.598 -0.2921 -1.0005  1.1368
12281TIP3    H258335   5.572   0.915  10.614  1.7237  0.7028 -0.3179
12282TIP3   OH258336   1.100   5.739   4.393  0.1179 -0.7137  0.2808
12282TIP3    H158337   1.111   5.646   4.371 -0.7077 -0.4015 -1.6850
12282TIP3    H258338   1.185   5.764   4.429  1.4558 -1.5385 -2.0268
12283TIP3   OH258339   0.379   1.862  15.172  0.7426  0.5752 -0.1785
12283TIP3    H158340   0.342   1.879  15.259 -1.6516  0.3935 -1.0943
12283TIP3    H258341   0.431   1.782  15.184 -1.0853 -0.5341  0.7322
12284TIP3   OH258342   6.087   5.153  11.397  0.0130  0.0648  0.2650
12284TIP3    H158343   6.030   5.155  11.320 -1.3184 -0.2476  1.1956
12284TIP3    H258344   6.112   5.061  11.406  0.5976  0.1873 -0.0908
12285TIP3   OH258345   2.626   1.511   1.240 -0.5390  0.0902 -0.5238
12285TIP3    H158346   2.547   1.473   1.202 -0.9169  0.7237 -0.3861
12285TIP3    H258347   2.644   1.589   1.187 -1.5048  1.4229  1.0081
12286TIP3   OH258348   1.424   5.143  16.623  0.3207 -0.1532 -0.5043
12286TIP3    H158349   1.496   5.141  16.686 -1.0318  1.2589  1.1765
12286TIP3    H258350   1.422   5.054  16.586  2.0429 -0.6024  0.3898
12287TIP3   OH258351   3.852   4.665   3.972 -0.0724 -0.6892  0.3706
12287TIP3    H158352   3.927   4.659   4.031 -0.5669 -1.5111  0.9367
12287TIP3    H258353   3.851   4.580   3.927  1.5466  0.6400 -2.3944
12288TIP3   OH258354   3.959   2.334  11.870 -0.6987 -0.5527  0.0681
12288TIP3    H158355   3.995   2.407  11.922 -0.0344  0.7132 -2.0530
12288TIP3    H258356   4.008   2.257  11.900 -1.5225 -0.2066  2.4755
12289TIP3   OH258357   3.045   5.493  15.783  0.3259 -0.4469  0.0299
12289TIP3    H158358   3.090   5.490  15.867  1.2586 -1.6698 -0.4673
12289TIP3    H258359   3.041   5.401  15.755 -3.7373 -0.6655  0.6352
12290TIP3   OH258360   2.135   1.610  16.940 -0.2105  0.2204  0.0441
12290TIP3    H158361   2.166   1.595  16.850  0.8934  0.0585  0.4451
12290TIP3    H258362   2.111   1.702  16.941  0.0962  0.3098 -0.3316
12291TIP3   OH258363   2.122   2.574   5.052 -0.1026 -0.3466 -0.3169
12291TIP3    H158364   2.065   2.650   5.042 -0.4318 -0.2790  1.6813
12291TIP3    H258365   2.182   2.598   5.122 -0.3316 -1.9871  0.4840
12292TIP3   OH258366   4.275   4.637  12.904 -0.4834  0.3927  0.6932
12292TIP3    H158367   4.299   4.635  12.997  1.8268  2.6081  0.2590
12292TIP3    H258368   4.246   4.728  12.889  2.6909  1.2069 -1.4126
12293TIP3   OH258369   2.118   3.975   0.689  0.8009  0.4455  0.0793
12293TIP3    H158370   2.079   3.999   0.605  0.6310 -1.8395 -0.5835
12293TIP3    H258371   2.168   4.052   0.716  1.1045  1.1440 -2.2689
12294TIP3   OH258372   6.095   3.350  13.180  0.2220  0.5743  0.0819
12294TIP3    H158373   6.164   3.344  13.114  0.5102  2.5389  0.1642
12294TIP3    H258374   6.015   3.364  13.129 -0.0039 -0.7186  0.0409
12295TIP3   OH258375   5.752   5.908   1.573 -0.5643  0.2521 -0.4981
12295TIP3    H158376   5.660   5.911   1.597  0.2806 -0.1415  3.5572
12295TIP3    H258377   5.773   5.997   1.547 -2.1120  0.2514 -1.9054
12296TIP3   OH258378   4.262   6.295   3.273  0.1231 -0.3174 -0.7815
12296TIP3    H158379   4.323   6.238   3.321  0.6280 -0.9450 -2.1307
12296TIP3    H258380   4.293   6.384   3.290  2.3927 -0.6689 -2.6301
12297TIP3   OH258381   3.242   0.805   1.977 -0.0141  0.0865 -0.3861
12297TIP3    H158382   3.175   0.772   1.917  1.0283 -0.1039 -1.4738
12297TIP3    H258383   3.235   0.749   2.054 -0.2687 -0.7327 -0.9960
12298TIP3   OH258384   4.081   3.869  14.924  0.1487 -0.1485  0.7221
12298TIP3    H158385   4.035   3.883  15.007  1.4789  0.8080  1.3318
12298TIP3    H258386   4.088   3.956  14.885 -0.3238 -0.5645 -0.3598
12299TIP3   OH258387   1.160   0.284  16.011  0.0415  0.3258  0.1112
12299TIP3    H158388   1.100   0.210  16.010 -0.9210  1.0841 -0.6704
12299TIP3    H258389   1.198   0.285  15.923  2.2528 -0.9281  0.9614
12300TIP3   OH258390   5.413   4.360   3.236  0.2285 -0.4607  0.2917
12300TIP3    H158391   5.346   4.417   3.200  0.8172 -0.3936 -0.7324
12300TIP3    H258392   5.492   4.379   3.184  1.0196 -0.6120  1.3881
12301TIP3   OH258393   3.706   0.101   2.767  0.1678 -0.1079 -0.1109
12301TIP3    H158394   3.621   0.140   2.785  0.8829  0.8505  1.3620
12301TIP3    H258395   3.747   0.091   2.853  0.4395 -3.2114 -0.4811
12302TIP3   OH258396   2.067   0.252  12.279 -0.1694 -0.2356 -0.5762
12302TIP3    H158397   2.107   0.196  12.212  0.0187  0.1061 -0.7531
12302TIP3    H258398   2.141   0.288  12.328 -0.0975  1.9976 -2.1722
12303TIP3   OH258399   5.112   2.739  16.880  0.4013  0.1276 -0.1624
12303TIP3    H158400   5.139   2.651  16.907  0.6795  0.3722  0.3663
12303TIP3    H258401   5.136   2.744  16.787 -0.4273 -0.6653 -0.4267
12304TIP3   OH258402   3.574   3.189   4.982  0.2966  0.4238  0.1666
12304TIP3    H158403   3.627   3.241   5.043 -0.7656  0.0415  1.4695
12304TIP3    H258404   3.558   3.107   5.029 -1.1057  0.3755 -0.3507
12305TIP3   OH258405   0.619   2.518  14.204  0.4189 -0.3432 -0.3700
12305TIP3    H158406   0.596   2.601  14.161 -0.6969 -1.2584 -1.6184
12305TIP3    H258407   0.630   2.456  14.132  0.5156 -1.4624  0.5836
12306TIP3   OH258408   3.567   2.739  15.223  0.2988 -0.1416  0.0152
12306TIP3    H158409   3.490   2.768  15.175  0.0237 -0.7259  0.0956
12306TIP3    H258410   3.536   2.665  15.276  0.0505  1.7720  2.7474
12307TIP3   OH258411   2.271   4.334   4.329 -0.1334 -0.7725  0.3488
12307TIP3    H158412   2.219   4.256   4.314 -0.2488 -0.3207 -1.8254
12307TIP3    H258413   2.302   4.361   4.243 -1.4508  2.5248  0.7404
12308TIP3   OH258414   4.907   6.514  15.397  0.2915 -0.0095  0.3115
12308TIP3    H158415   4.895   6.440  15.337  3.1265 -0.5614  0.2795
12308TIP3    H258416   4.862   6.586  15.355 -0.4821 -1.1413 -0.8828
12309TIP3   OH258417   5.381   5.847  12.877  0.1945 -0.2922  0.2629
12309TIP3    H158418   5.339   5.795  12.809 -1.4474  2.0043 -0.5845
12309TIP3    H258419   5.335   5.824  12.958  0.1335 -0.8140  0.0834
12310TIP3   OH258420   4.593   4.066   4.646 -0.5416 -0.9658  0.1505
12310TIP3    H158421   4.517   4.013   4.669 -0.3724 -1.3084 -0.0780
12310TIP3    H258422   4.668   4.007   4.654 -0.2430 -0.5072  0.8263
12311TIP3   OH258423   4.476   4.518   5.977 -0.0965  0.1632 -0.4204
12311TIP3    H158424   4.440   4.587   6.032  1.3709  0.1748  0.5746
12311TIP3    H258425   4.505   4.451   6.038 -0.0271 -0.6180 -1.2853
12312TIP3   OH258426   6.426   6.077   1.418  0.2739 -0.5002  0.0481
12312TIP3    H158427   6.357   6.010   1.411 -0.2425  0.1644 -1.7744
12312TIP3    H258428   6.459   6.068   1.508 -0.7917 -2.1934  0.3200
12313TIP3   OH258429   5.869   0.776   4.358 -0.3225  0.1059 -0.0216
12313TIP3    H158430   5.863   0.681   4.362  0.0913  0.0874  0.2400
12313TIP3    H258431   5.832   0.799   4.274  0.7255 -0.3919 -0.6427
12314TIP3   OH258432   5.851   2.142  13.485 -0.3882  0.2656 -0.2088
12314TIP3    H158433   5.853   2.125  13.579  0.9005 -0.8428 -0.4064
12314TIP3    H258434   5.834   2.057  13.445  2.0820  0.0926 -1.0576
12315TIP3   OH258435   6.723   0.478   2.512 -0.2296 -0.1968  0.8533
12315TIP3    H158436   6.707   0.570   2.490 -1.0793 -0.1613  1.5628
12315TIP3    H258437   6.732   0.477   2.607  1.9925 -0.5489  0.6808
12316TIP3   OH258438   6.420   2.803  15.925  0.2650 -0.4035  0.2424
12316TIP3    H158439   6.401   2.772  16.013 -0.0164  0.5790  0.5416
12316TIP3    H258440   6.484   2.872  15.937 -1.0403  0.9296 -0.1371
12317TIP3   OH258441   2.298   3.085   2.648  0.1587 -0.8221 -0.3746
12317TIP3    H158442   2.206   3.086   2.676  0.3481 -1.4699  0.3132
12317TIP3    H258443   2.304   3.155   2.583 -0.7337 -0.5149 -0.1450
12318TIP3   OH258444   6.519   2.027  15.351  0.0898  0.3429  0.4627
12318TIP3    H158445   6.479   2.027  15.438  1.0943  1.3955  0.9431
12318TIP3    H258446   6.611   2.005  15.365  0.1652  0.0418 -0.3957
12319TIP3   OH258447   5.228   2.656   0.659  0.1842 -0.3523  0.4289
12319TIP3    H158448   5.206   2.671   0.751  1.2203  0.7971  0.5221
12319TIP3    H258449   5.323   2.643   0.659  0.7320  2.7825 -0.7469
12320TIP3   OH258450   5.374   2.387  12.818 -0.1507  0.0063  0.0463
12320TIP3    H158451   5.375   2.481  12.800  0.4709  0.3993  1.8769
12320TIP3    H258452   5.286   2.359  12.795 -0.2714  0.9753 -0.7548
12321TIP3   OH258453   3.851   2.801   0.264  0.2504  0.4170 -0.3115
12321TIP3    H158454   3.771   2.831   0.308 -0.2317 -0.3317 -0.6520
12321TIP3    H258455   3.863   2.863   0.192  1.4987  2.1400  1.2868
12322TIP3   OH258456   1.297   4.257  11.375 -0.0942  0.6690 -0.2511
12322TIP3    H158457   1.389   4.274  11.360  0.0054  0.1748 -0.2344
12322TIP3    H258458   1.253   4.285  11.295 -0.2576  3.2551  0.6498
12323TIP3   OH258459   5.570   2.313  12.036  0.1727 -0.4497 -0.0805
12323TIP3    H158460   5.561   2.218  12.021  0.6085 -0.5849  0.5093
12323TIP3    H258461   5.605   2.320  12.124  0.2508  0.2649 -0.1670
12324TIP3   OH258462   5.749   0.306  10.700 -0.2652 -0.0024  0.3833
12324TIP3    H158463   5.742   0.399  10.723 -0.4111 -0.0606  0.5807
12324TIP3    H258464   5.658   0.274  10.700 -0.3386  0.1622 -1.0124
12325TIP3   OH258465   4.319   1.356   1.801 -0.0485  0.3262 -0.1982
12325TIP3    H158466   4.379   1.388   1.734 -0.1818 -1.0144 -1.0063
12325TIP3    H258467   4.272   1.284   1.758  0.6915 -1.3716  1.6874
12326TIP3   OH258468   4.416   0.709   0.616  0.1652 -0.4083  0.1693
12326TIP3    H158469   4.388   0.679   0.702 -1.3704  0.2104 -0.0758
12326TIP3    H258470   4.344   0.764   0.585  2.1842  2.2993 -0.0358
12327TIP3   OH258471   0.110   5.734  16.952  0.4573  0.2713  0.5063
12327TIP3    H158472   0.054   5.789  16.897 -0.8184 -0.1844  1.3036
12327TIP3    H258473   0.049   5.680  17.002  1.5908  0.1801  1.8652
12328TIP3   OH258474   3.607   1.075   4.647  0.5581  0.6573 -0.0756
12328TIP3    H158475   3.695   1.092   4.613 -0.1048 -0.9050 -2.9035
12328TIP3    H258476   3.615   0.994   4.697  0.4583 -0.6160 -2.0178
12329TIP3   OH258477   4.313   3.574   4.557  0.2175  0.6673  0.2329
12329TIP3    H158478   4.352   3.494   4.593  1.4997  1.0651 -0.2156
12329TIP3    H258479   4.247   3.600   4.622 -1.3521 -1.5633 -0.3182
12330TIP3   OH258480   5.179   2.798   5.747  0.0446  0.3214 -0.1463
12330TIP3    H158481   5.179   2.820   5.654 -1.1792  1.5972  0.1269
12330TIP3    H258482   5.108   2.735   5.757 -0.0258  0.4217 -0.0191
12331TIP3   OH258483   6.072   1.888   0.052  0.4510 -0.1705  0.1186
12331TIP3    H158484   6.106   1.833  -0.019 -0.0758 -1.5707  0.9176
12331TIP3    H258485   6.070   1.976   0.015  0.8983 -0.7485 -1.3509
12332TIP3   OH258486   6.528   6.619   1.733  0.5376 -0.1702 -0.1733
12332TIP3    H158487   6.604   6.627   1.791  1.3935 -1.8340 -0.9871
12332TIP3    H258488   6.530   6.698   1.679  0.3978  0.8436  1.2384
12333TIP3   OH258489   3.841   3.211  14.703 -0.6532 -0.0451  0.0024
12333TIP3    H158490   3.902   3.225  14.631 -0.5801 -0.1916  0.0361
12333TIP3    H258491   3.849   3.118  14.724 -2.3813 -0.5751 -1.3654
12334TIP3   OH258492   1.907   5.761   2.583  0.2384  0.2995 -0.5462
12334TIP3    H158493   1.988   5.777   2.631  0.0026  0.1643 -0.1019
12334TIP3    H258494   1.936   5.720   2.501  0.5517 -0.6610  0.0315
12335TIP3   OH258495   3.353   2.673   2.461  0.0995 -0.2475 -0.5779
12335TIP3    H158496   3.290   2.609   2.495 -1.4628  0.3698 -2.0963
12335TIP3    H258497   3.377   2.726   2.536 -0.1017 -1.3942  0.3197
12336TIP3   OH258498   4.059   0.969  12.522 -0.1813 -0.0675 -0.3509
12336TIP3    H158499   4.086   0.944  12.434 -0.8956  0.7300 -0.8130
12336TIP3    H258500   3.972   1.007  12.511  0.7411  2.4661  0.2845
12337TIP3   OH258501   3.110   1.104   0.588  0.4338  0.0669 -0.2028
12337TIP3    H158502   3.142   1.192   0.567 -0.4563  0.3413 -0.4356
12337TIP3    H258503   3.072   1.072   0.507  0.8978 -0.6108 -0.1636
12338TIP3   OH258504   3.042   1.915  13.472 -0.2910  0.6517  0.0102
12338TIP3    H158505   3.014   1.863  13.547 -0.4765  0.3674 -0.2531
12338TIP3    H258506   2.969   1.908  13.409  0.9886 -1.4447 -1.3691
12339TIP3   OH258507   3.739   2.944  14.382  0.7021 -0.0556  0.4664
12339TIP3    H158508   3.705   3.014  14.438 -1.9905 -1.8438  1.2533
12339TIP3    H258509   3.779   2.882  14.443  0.5253 -0.5328  0.1079
12340TIP3   OH258510   3.015   0.826  12.118  0.0846 -0.6042 -0.3057
12340TIP3    H158511   2.959   0.798  12.191  1.1163 -1.4453  0.1954
12340TIP3    H258512   2.956   0.829  12.043 -1.2601  1.3794  0.7466
12341TIP3   OH258513   3.712   0.371  17.108 -0.3118  0.3061  0.4326
12341TIP3    H158514   3.660   0.338  17.181  0.7271  1.4431  1.7483
12341TIP3    H258515   3.676   0.327  17.031 -2.3764  0.1141  1.4296
12342TIP3   OH258516   2.841   2.982   1.744  0.3116 -0.3843 -0.1630
12342TIP3    H158517   2.805   3.032   1.671 -0.6254 -1.8325 -0.7391
12342TIP3    H258518   2.926   3.023   1.761  0.5671 -0.0107 -2.0691
12343TIP3   OH258519   0.259   4.383   5.011 -0.6960  0.2005 -0.5315
12343TIP3    H158520   0.238   4.472   5.039 -1.9612 -0.7028  1.6764
12343TIP3    H258521   0.175   4.346   4.984 -0.2608 -0.4601 -1.0187
12344TIP3   OH258522   4.931   2.159  13.196 -0.1695 -0.1810 -0.3731
12344TIP3    H158523   4.935   2.161  13.291 -0.3262 -1.5387 -0.3185
12344TIP3    H258524   4.996   2.093  13.171 -0.0016  0.2931 -1.2187
12345TIP3   OH258525   0.275   2.497  13.984  0.0267 -0.3079  0.2847
12345TIP3    H158526   0.271   2.589  14.009  0.1722 -0.2659  0.1522
12345TIP3    H258527   0.187   2.476  13.953  1.0827  1.0569 -4.2785
12346TIP3   OH258528   4.076   6.054   4.465 -0.1611  0.3810  0.1403
12346TIP3    H158529   4.133   5.982   4.492 -0.2872  0.3475  0.3278
12346TIP3    H258530   4.109   6.081   4.380 -0.2838 -0.0815 -0.0550
12347TIP3   OH258531   4.784   4.193   3.878 -0.0729  0.4100  0.2500
12347TIP3    H158532   4.851   4.126   3.863  0.4425  0.4886  1.9337
12347TIP3    H258533   4.834   4.274   3.886 -0.0652  0.2079  3.4319
12348TIP3   OH258534   4.666   0.579   6.511  0.2581 -0.7182 -0.6864
12348TIP3    H158535   4.754   0.617   6.511 -0.7136  1.8492  1.5797
12348TIP3    H258536   4.614   0.636   6.455 -0.9916  0.9929  1.9740
12349TIP3   OH258537   0.270   5.873  15.730  0.1739 -0.0561  0.3234
12349TIP3    H158538   0.203   5.869  15.663  1.0881  3.1459 -0.9715
12349TIP3    H258539   0.324   5.795  15.716  0.4227  0.5734 -2.8241
12350TIP3   OH258540   4.698   5.911  15.968  0.1091 -0.6061 -0.2407
12350TIP3    H158541   4.672   5.823  15.993  1.3255 -0.5433  1.4623
12350TIP3    H258542   4.780   5.899  15.921  1.6916 -0.3325  2.2217
12351TIP3   OH258543   0.263   0.555  16.259  0.2806  0.3946 -0.1241
12351TIP3    H158544   0.241   0.582  16.348  0.7547  2.4026 -0.5578
12351TIP3    H258545   0.290   0.464  16.267 -0.6728  0.2211  1.6140
12352TIP3   OH258546   0.386   2.999   3.437  0.5685  0.2194 -0.4501
12352TIP3    H158547   0.301   3.022   3.400 -0.1242 -0.8663  0.3795
12352TIP3    H258548   0.423   3.082   3.465 -0.6245  0.6401 -0.0242
12353TIP3   OH258549   5.377   5.998   6.080  0.3800 -0.1015  0.1327
12353TIP3    H158550   5.460   6.032   6.048 -0.1032  0.4075 -0.6195
12353TIP3    H258551   5.398   5.959   6.165  1.2768  0.5241  0.2139
12354TIP3   OH258552   2.107   6.584   3.289  0.6040  0.3702  0.3922
12354TIP3    H158553   2.051   6.544   3.222 -0.4810 -0.1977  1.5731
12354TIP3    H258554   2.196   6.559   3.265  0.4217  1.6073 -1.7541
12355TIP3   OH258555   4.117   2.582   5.591 -0.4733 -0.1386  0.4620
12355TIP3    H158556   4.120   2.567   5.497  2.6422 -0.4590  0.5215
12355TIP3    H258557   4.172   2.513   5.628  0.4355  1.4596  2.2644
12356TIP3   OH258558   4.954   2.134  15.033 -0.1534 -0.4133 -0.3099
12356TIP3    H158559   4.873   2.125  15.084  0.0751 -1.3127 -0.0865
12356TIP3    H258560   4.924   2.137  14.942 -0.5321  0.7694 -0.1654
12357TIP3   OH258561   2.975   4.204  12.652  0.1540 -0.5090 -0.2668
12357TIP3    H158562   3.059   4.234  12.689  0.5505 -1.4233 -0.4000
12357TIP3    H258563   2.986   4.216  12.557 -0.5152  0.9582 -0.1884
12358TIP3   OH258564   6.704   5.269  13.353  0.3268 -0.2587 -0.5005
12358TIP3    H158565   6.622   5.317  13.341  1.0548  1.1286 -0.1515
12358TIP3    H258566   6.719   5.271  13.447  1.0152 -0.0494 -0.6104
12359TIP3   OH258567   4.901   2.430   2.328 -0.2031 -0.2946 -0.1765
12359TIP3    H158568   4.807   2.432   2.309 -0.2007 -1.1117 -0.3172
12359TIP3    H258569   4.923   2.520   2.350 -1.3227 -0.3514  1.3249
12360TIP3   OH258570   2.281   0.075   5.816  0.2526 -0.2940 -0.4509
12360TIP3    H158571   2.269   0.004   5.879  0.3526  0.3718  0.3266
12360TIP3    H258572   2.367   0.060   5.778  2.3125  1.8061  2.8874
12361TIP3   OH258573   6.478   1.627   4.509 -0.4983  0.1259  0.5590
12361TIP3    H158574   6.530   1.705   4.490 -2.5928  1.1934 -1.1295
12361TIP3    H258575   6.543   1.559   4.525  1.5134  1.0350 -2.7756
12362TIP3   OH258576   6.445   0.971  16.301  0.6139  0.1538 -0.3119
12362TIP3    H158577   6.437   0.960  16.207 -2.9785 -1.7199  0.0391
12362TIP3    H258578   6.441   0.883  16.337  1.6446  0.8315  1.6583
12363TIP3   OH258579   1.340   1.664   5.671  0.7689 -0.4257 -0.1673
12363TIP3    H158580   1.277   1.637   5.604  1.1793  1.0984 -1.2349
12363TIP3    H258581   1.395   1.729   5.627  1.9739 -0.4225  1.2529
12364TIP3   OH258582   3.586   6.569  13.278 -0.3578 -0.3199  0.0364
12364TIP3    H158583   3.548   6.523  13.353  0.0219 -1.1846 -0.2896
12364TIP3    H258584   3.675   6.591  13.306 -0.3938 -0.1652  0.0316
12365TIP3   OH258585   2.264   2.876   3.984 -0.4489  0.0893  0.1029
12365TIP3    H158586   2.288   2.807   3.922 -0.4735  0.0044  0.1883
12365TIP3    H258587   2.307   2.852   4.065  0.8778  1.0286 -0.2924
12366TIP3   OH258588   0.204   6.571  14.622 -0.4024  0.6209 -0.1978
12366TIP3    H158589   0.115   6.538  14.613 -0.4373  1.1909 -2.7201
12366TIP3    H258590   0.212   6.594  14.715 -2.1413 -1.3725  0.5247
12367TIP3   OH258591   6.170   4.894  16.292 -0.2522  0.0527  0.6426
12367TIP3    H158592   6.173   4.798  16.302  0.6354 -0.1333 -1.0342
12367TIP3    H258593   6.252   4.916  16.248 -0.0296  1.7242  1.8240
12368TIP3   OH258594   1.684   1.259  16.952  0.3385 -0.0961 -0.1244
12368TIP3    H158595   1.723   1.268  17.039  2.0238  0.0922 -0.8677
12368TIP3    H258596   1.657   1.348  16.929 -0.2188 -0.1660  0.2419
12369TIP3   OH258597   3.910   4.471  15.187  0.2462  0.0564  0.6783
12369TIP3    H158598   3.843   4.456  15.254  0.8075 -0.4792  1.1355
12369TIP3    H258599   3.869   4.442  15.106 -0.9439  2.0058  0.5398
12370TIP3   OH258600   6.575   4.206  12.051  0.6617  0.9163  0.8309
12370TIP3    H158601   6.564   4.259  11.971  0.2087  0.4396  0.5674
12370TIP3    H258602   6.665   4.222  12.078  0.5851  1.6917  0.6597
12371TIP3   OH258603   6.039   6.661   3.697  0.6356 -0.0158  0.3223
12371TIP3    H158604   6.112   6.619   3.742  0.3838  1.0771  1.8219
12371TIP3    H258605   6.074   6.687   3.612  1.6051 -0.6364  0.5166
12372TIP3   OH258606   3.410   4.700  11.738 -0.4395  0.0902  0.1380
12372TIP3    H158607   3.394   4.633  11.804  1.3001 -0.7399 -0.2351
12372TIP3    H258608   3.466   4.764  11.781 -2.1836  1.4297  0.5274
12373TIP3   OH258609   3.455   2.383  15.729  0.1134  0.1878 -1.0678
12373TIP3    H158610   3.499   2.360  15.647 -1.5154  2.0824 -2.5943
12373TIP3    H258611   3.447   2.479  15.725 -2.1241  0.1224  0.1269
12374TIP3   OH258612   3.621   6.486   1.800 -0.5240  0.0018  0.2493
12374TIP3    H158613   3.529   6.473   1.776 -0.9476  0.8172  1.3564
12374TIP3    H258614   3.629   6.445   1.886  0.4612 -1.0893 -0.3373
12375TIP3   OH258615   3.368   1.708   3.624  0.4822 -0.2442  0.4309
12375TIP3    H158616   3.331   1.620   3.622  0.7141 -0.3639  1.1304
12375TIP3    H258617   3.411   1.718   3.539 -1.0536 -0.1283 -0.3749
12376TIP3   OH258618   2.928   1.585   5.509 -0.0232 -0.0540 -0.2503
12376TIP3    H158619   2.997   1.630   5.556  0.9450  0.1882 -1.8408
12376TIP3    H258620   2.847   1.608   5.556  0.8016  0.8139  0.7790
12377TIP3   OH258621   4.105   4.114   1.546 -0.0414  0.4537  0.0488
12377TIP3    H158622   4.129   4.201   1.577  1.7743 -0.4870  1.4622
12377TIP3    H258623   4.012   4.105   1.569  0.0112  1.6456  0.7888
12378TIP3   OH258624   0.510   2.788  14.110  0.5702  0.3111  0.0958
12378TIP3    H158625   0.443   2.775  14.043  0.2297 -1.3181  0.7318
12378TIP3    H258626   0.461   2.803  14.191  0.9746 -0.2603  0.4482
12379TIP3   OH258627   6.327   2.529   5.048  0.3332  0.2105  0.3723
12379TIP3    H158628   6.258   2.492   5.102 -1.2615  1.2378 -0.8598
12379TIP3    H258629   6.401   2.540   5.107 -0.8822 -0.0229  1.9914
12380TIP3   OH258630   5.387   2.693  15.705 -0.1724  0.4534  0.9953
12380TIP3    H158631   5.298   2.723  15.688 -0.0372  0.4716  0.3200
12380TIP3    H258632   5.380   2.597  15.706 -0.0445  0.4279  0.0603
12381TIP3   OH258633   6.813   3.194   3.194 -0.0231  0.3213  0.4183
12381TIP3    H158634   6.728   3.157   3.218  1.0825 -2.4202  0.5296
12381TIP3    H258635   6.822   3.175   3.101  0.2187  1.1690  0.2614
12382TIP3   OH258636   0.002   0.573   3.986 -0.5069 -0.5700 -0.0316
12382TIP3    H158637  -0.026   0.622   3.909  0.7324 -1.3128 -1.0005
12382TIP3    H258638   0.061   0.506   3.951  3.9413  1.9069  1.9011
12383TIP3   OH258639   2.553   1.717   1.740  0.6742  0.0603 -0.2849
12383TIP3    H158640   2.631   1.717   1.684 -0.3734 -1.5419 -1.8642
12383TIP3    H258641   2.489   1.664   1.692 -1.1588  0.7197  1.2946
12384TIP3   OH258642   5.482   1.158   2.346 -0.5269 -0.8321 -0.3676
12384TIP3    H158643   5.425   1.082   2.334  0.4776 -1.6276 -0.2171
12384TIP3    H258644   5.570   1.121   2.356 -0.2934  0.1555  2.0369
12385TIP3   OH258645   1.526   5.620   1.695 -0.4496  0.0583  0.2781
12385TIP3    H158646   1.603   5.676   1.679 -1.3632  0.7364 -2.3881
12385TIP3    H258647   1.554   5.533   1.667 -0.2669  0.0331  0.5358
12386TIP3   OH258648   4.944   2.193   1.291 -0.1804  0.4640  0.4043
12386TIP3    H158649   4.857   2.187   1.254 -0.3148 -1.9072  0.9453
12386TIP3    H258650   5.003   2.192   1.215 -0.5602  3.8472 -0.0755
12387TIP3   OH258651   4.670   2.998   3.719 -0.0827 -0.2546  0.0280
12387TIP3    H158652   4.707   2.930   3.662  1.0954 -0.8130  1.4005
12387TIP3    H258653   4.622   3.056   3.659  1.0113 -0.8626 -1.5013
12388TIP3   OH258654   5.537   4.293  14.256  0.2863 -0.4001  0.0235
12388TIP3    H158655   5.619   4.325  14.292 -0.8312 -0.1786  2.5488
12388TIP3    H258656   5.509   4.223  14.316 -1.3729 -0.4799 -0.7604
12389TIP3   OH258657   6.563   4.261  14.970 -0.1397 -0.1749 -0.6566
12389TIP3    H158658   6.481   4.306  14.993  0.3849 -0.3996  1.8653
12389TIP3    H258659   6.631   4.326  14.987  0.6301 -1.6897  3.0078
12390TIP3   OH258660   2.861   3.041   2.237 -0.0718 -0.2105 -0.1409
12390TIP3    H158661   2.911   2.987   2.298  0.8715 -1.2151 -1.7123
12390TIP3    H258662   2.928   3.094   2.193 -0.8215  1.0838  0.2484
12391TIP3   OH258663   5.105   3.213  13.136  0.2363 -0.6989  0.3834
12391TIP3    H158664   5.155   3.137  13.105  0.8469 -0.4068  0.6426
12391TIP3    H258665   5.061   3.181  13.215 -0.5064 -1.1428 -0.1976
12392TIP3   OH258666   5.568   0.955   4.281  0.0569 -0.3395 -0.2309
12392TIP3    H158667   5.628   0.901   4.229 -0.8991 -0.5988 -1.1170
12392TIP3    H258668   5.481   0.933   4.247 -0.5077  0.3637  0.7007
12393TIP3   OH258669   0.128   5.493   0.429 -0.0553  0.0941 -0.1993
12393TIP3    H158670   0.091   5.555   0.492  1.0619  0.0991  0.4953
12393TIP3    H258671   0.120   5.408   0.472  0.0637  0.0011 -0.3601
12394TIP3   OH258672   2.456   5.598   4.207 -0.7061 -0.0457 -0.3806
12394TIP3    H158673   2.531   5.606   4.148 -1.6663  1.8836 -1.4283
12394TIP3    H258674   2.475   5.659   4.278 -0.6927 -0.5133  0.0165
12395TIP3   OH258675   5.272   5.652  12.730 -0.3082 -0.3495 -0.2780
12395TIP3    H158676   5.187   5.653  12.773 -0.6948 -0.6614 -1.0111
12395TIP3    H258677   5.298   5.560  12.733 -0.5339 -0.4426 -1.0752
12396TIP3   OH258678   4.948   5.539  12.827  0.0163 -0.8653  0.5161
12396TIP3    H158679   4.927   5.500  12.912  1.0610 -0.1020  1.1494
12396TIP3    H258680   4.960   5.465  12.768 -1.7464 -1.3904  0.7519
12397TIP3   OH258681   1.840   0.577   5.183 -0.1099 -0.0852  0.6340
12397TIP3    H158682   1.805   0.512   5.121  1.8085  2.3733 -3.4285
12397TIP3    H258683   1.929   0.593   5.153 -0.8559  5.3330  0.3218
12398TIP3   OH258684   2.306   1.594  14.939  0.2676  0.0127  0.4599
12398TIP3    H158685   2.267   1.662  14.884 -0.6658 -0.8469  0.0189
12398TIP3    H258686   2.263   1.513  14.910  2.1487 -0.9358  0.2093
12399TIP3   OH258687   1.491   0.259   5.855 -0.5110  0.2019 -0.4426
12399TIP3    H158688   1.401   0.252   5.887 -0.4025 -1.2559 -0.3698
12399TIP3    H258689   1.499   0.349   5.825 -1.8607  0.4791 -0.0404
12400TIP3   OH258690   6.484   2.881  16.560 -0.3683  0.2672  0.0975
12400TIP3    H158691   6.420   2.810  16.569 -0.9906  0.7665 -0.2842
12400TIP3    H258692   6.552   2.846  16.503 -0.9297  0.1396 -0.5061
12401TIP3   OH258693   0.535   4.021  12.663 -0.2019  0.3183  0.6276
12401TIP3    H158694   0.503   3.938  12.628 -0.7964  0.8269 -0.0557
12401TIP3    H258695   0.524   4.012  12.758  1.1764 -0.9662  0.6920
12402TIP3   OH258696   4.021   6.048  13.694  0.0905 -0.0466 -0.3410
12402TIP3    H158697   4.043   6.124  13.748 -0.2693 -0.5643  0.5514
12402TIP3    H258698   3.931   6.064  13.667  0.3829  0.3854 -1.1180
12403TIP3   OH258699   5.256   3.853   5.376 -0.0757 -0.4344  0.1172
12403TIP3    H158700   5.260   3.936   5.424  0.3462  0.6331 -1.6737
12403TIP3    H258701   5.213   3.875   5.293  1.4370 -1.6475 -1.0508
12404TIP3   OH258702   4.303   5.043  17.068  0.3348 -0.2983  0.3637
12404TIP3    H158703   4.220   5.038  17.023  0.9813 -0.1909 -0.8717
12404TIP3    H258704   4.282   5.083  17.153 -0.6851  0.7866 -0.3712
12405TIP3   OH258705   6.808   4.906   3.064  0.7081 -0.0883 -0.6129
12405TIP3    H158706   6.882   4.965   3.048  1.6277 -1.0297  0.0728
12405TIP3    H258707   6.827   4.865   3.148 -0.1844 -0.9775 -0.8217
12406TIP3   OH258708   1.094   0.168  11.367 -0.3142  0.6624 -0.2620
12406TIP3    H158709   1.097   0.083  11.410  0.9534  1.3875  1.1640
12406TIP3    H258710   1.091   0.232  11.438 -0.5221  1.8448 -1.2897
12407TIP3   OH258711   0.668   3.480   0.478  0.2264 -0.0783 -0.2347
12407TIP3    H158712   0.630   3.547   0.421  0.3981 -0.0849 -0.3570
12407TIP3    H258713   0.632   3.397   0.445 -0.6870  0.0247  0.4725
12408TIP3   OH258714   5.078   5.318   0.538 -0.0177 -0.1321 -0.2484
12408TIP3    H158715   5.149   5.290   0.481  0.4806  0.9441 -0.1706
12408TIP3    H258716   5.117   5.324   0.625  0.6520  3.3086 -0.6422
12409TIP3   OH258717   4.033   6.602  16.098  0.0301 -0.1191 -0.3580
12409TIP3    H158718   4.074   6.681  16.132  0.0546 -0.3287  0.1071
12409TIP3    H258719   4.017   6.621  16.006 -1.4021  1.0262  0.0999
12410TIP3   OH258720   2.547   5.033   5.262 -0.4190  0.0736  0.0784
12410TIP3    H158721   2.581   4.944   5.252  0.5212  0.5818 -1.5636
12410TIP3    H258722   2.468   5.034   5.208 -1.1112 -0.0856  1.0627
12411TIP3   OH258723   4.020   2.972  12.145  0.4071  0.2638 -0.0969
12411TIP3    H158724   4.080   3.015  12.084  0.5590  0.4819  0.2032
12411TIP3    H258725   4.001   3.038  12.211  0.6251 -0.1138  0.3549
12412TIP3   OH258726   1.500   2.891  12.428 -0.3507 -0.2244 -0.0738
12412TIP3    H158727   1.413   2.857  12.451  0.0976 -0.3324  1.6292
12412TIP3    H258728   1.506   2.974  12.476 -0.0956  0.5677 -1.4321
12413TIP3   OH258729   3.146   0.897   4.913  0.4448 -0.3584  0.3410
12413TIP3    H158730   3.070   0.920   4.967 -1.1350 -0.5371 -1.6963
12413TIP3    H258731   3.129   0.807   4.886  1.5025 -0.4686  0.0004
12414TIP3   OH258732   3.426   5.136  16.373  0.3078  0.3522 -0.1598
12414TIP3    H158733   3.350   5.105  16.323  0.3816  0.1020 -0.1224
12414TIP3    H258734   3.390   5.201  16.434  0.1052  0.1576 -0.0707
12415TIP3   OH258735   4.083   0.472  16.593 -0.0365 -0.7118  0.9848
12415TIP3    H158736   4.054   0.557  16.562  0.0574 -0.4187  1.6860
12415TIP3    H258737   4.129   0.433  16.519 -1.2815 -0.7424  0.1995
12416TIP3   OH258738   2.166   2.361   4.722 -0.3427 -0.3348 -0.2006
12416TIP3    H158739   2.244   2.305   4.714  0.3861  0.8559 -2.0159
12416TIP3    H258740   2.107   2.329   4.654 -0.3278  0.4571 -0.5967
12417TIP3   OH258741   4.089   3.635   4.083  0.0139 -0.0663  0.1274
12417TIP3    H158742   4.122   3.611   4.170 -1.1728 -0.7512  0.4054
12417TIP3    H258743   3.994   3.641   4.094 -0.1313  0.0855 -1.0663
12418TIP3   OH258744   1.985   5.197  12.096 -0.1109  0.3338  0.1708
12418TIP3    H158745   2.016   5.217  12.185 -0.6530  0.5371  0.3179
12418TIP3    H258746   1.956   5.281  12.061  0.0373  0.2434 -0.1781
12419TIP3   OH258747   3.739   0.788   0.195 -0.2690  0.2811  0.0042
12419TIP3    H158748   3.808   0.735   0.153 -0.6953  0.6394 -1.1603
12419TIP3    H258749   3.701   0.728   0.260  1.7734  0.3731  1.4109
12420TIP3   OH258750   2.753   0.588  16.249  0.3339  0.1183  0.3763
12420TIP3    H158751   2.716   0.517  16.197 -0.5020  0.6597  0.2053
12420TIP3    H258752   2.775   0.656  16.184  1.4225 -0.0951  0.5010
12421TIP3   OH258753   5.190   5.070  13.660 -0.0605 -0.2230 -0.2493
12421TIP3    H158754   5.233   5.153  13.682 -0.4489 -0.4851  1.6605
12421TIP3    H258755   5.259   5.004  13.669 -0.2376 -0.3427  0.2182
12422TIP3   OH258756   5.758   1.217   4.745 -0.5763  1.1033 -0.0235
12422TIP3    H158757   5.697   1.143   4.744  0.2150  0.4110  1.0766
12422TIP3    H258758   5.842   1.179   4.718  0.1173  1.3117  1.7330
12423TIP3   OH258759   1.958   5.195   5.832 -0.2180  0.2747 -0.0524
12423TIP3    H158760   1.869   5.230   5.838  0.0237  0.6532  1.9243
12423TIP3    H258761   1.957   5.118   5.889  0.1633 -1.0276 -1.7387
12424TIP3   OH258762   2.797   4.733   0.820  0.2748 -0.2675 -0.4752
12424TIP3    H158763   2.876   4.708   0.868  0.7595 -0.0669 -1.1417
12424TIP3    H258764   2.740   4.773   0.885  1.4806  1.2575 -0.2985
12425TIP3   OH258765   0.361   3.891  15.082 -0.4648 -0.0815 -0.6774
12425TIP3    H158766   0.269   3.892  15.109 -0.3365 -1.6388 -0.0741
12425TIP3    H258767   0.360   3.847  14.997 -0.1976 -1.0693 -0.1904
12426TIP3   OH258768   6.000   4.852  11.369  0.0505  0.2365 -0.3058
12426TIP3    H158769   5.931   4.809  11.318 -0.8039  2.0907 -0.8056
12426TIP3    H258770   6.081   4.827  11.326 -0.1907 -2.3841  0.5786
12427TIP3   OH258771   1.180   3.081  15.925 -0.0197 -0.1665 -0.2922
12427TIP3    H158772   1.194   3.002  15.977  1.5845 -0.3712 -0.9745
12427TIP3    H258773   1.098   3.118  15.959 -0.1859 -1.4839  0.8307
12428TIP3   OH258774   3.834   5.179   2.647 -0.6268  0.4956 -0.8413
12428TIP3    H158775   3.876   5.260   2.615 -2.7507  1.7804 -0.5635
12428TIP3    H258776   3.895   5.110   2.622  1.3401  2.1696 -1.0060
12429TIP3   OH258777   2.073   5.876   5.280 -0.0104  0.4093 -0.8119
12429TIP3    H158778   2.075   5.933   5.204  0.5851  0.5940 -0.6613
12429TIP3    H258779   1.981   5.854   5.291 -0.1364  0.6361 -1.3933
12430TIP3   OH258780   2.991   5.546   3.788  0.3451  0.3230  0.3267
12430TIP3    H158781   2.928   5.519   3.854  0.3746  0.4489  0.4070
12430TIP3    H258782   2.948   5.529   3.705  0.3893 -0.0345  0.3755
12431TIP3   OH258783   0.935   1.300  14.700 -0.0049 -0.5910  0.4497
12431TIP3    H158784   0.989   1.329  14.774 -0.2987 -1.2389  0.9330
12431TIP3    H258785   0.908   1.211  14.723 -0.1220 -0.7946 -0.4354
12432TIP3   OH258786   4.792   3.742  12.445 -0.5258 -0.0516 -0.1432
12432TIP3    H158787   4.743   3.815  12.407  2.8490  2.6047  0.1006
12432TIP3    H258788   4.750   3.727  12.530 -3.1986 -0.6547 -1.4427
12433TIP3   OH258789   0.106   4.088   5.760 -0.2601  0.0777 -0.4750
12433TIP3    H158790   0.084   4.061   5.671 -1.6761  1.4698 -0.5848
12433TIP3    H258791   0.032   4.060   5.814 -1.2748  2.5575 -0.4160
12434TIP3   OH258792   6.558   1.868   3.279 -0.5357  0.0906  0.3678
12434TIP3    H158793   6.566   1.824   3.195  0.9390 -0.2142  0.6291
12434TIP3    H258794   6.648   1.871   3.313 -0.7405  2.2988  0.8761
12435TIP3   OH258795   5.332   4.400   0.566  0.3673 -0.3007  0.5242
12435TIP3    H158796   5.385   4.324   0.542  0.2325 -0.0370 -0.6409
12435TIP3    H258797   5.258   4.364   0.614 -1.5291 -1.3449 -2.8493
12436TIP3   OH258798   5.715   2.008   0.261 -0.3118  0.1370  0.5039
12436TIP3    H158799   5.743   1.961   0.183 -0.3738 -0.7718  1.0121
12436TIP3    H258800   5.752   1.958   0.334 -0.9884  0.4583  1.0856
12437TIP3   OH258801   0.564   1.649  17.162  0.3833  0.1533 -0.6969
12437TIP3    H158802   0.556   1.711  17.089  0.1187 -1.2684 -1.9143
12437TIP3    H258803   0.655   1.619  17.158  0.3946  0.1428 -0.3792
12438TIP3   OH258804   6.542   3.422  15.859 -0.3758 -0.2930  0.1956
12438TIP3    H158805   6.545   3.517  15.851 -0.4808 -0.3692 -0.9777
12438TIP3    H258806   6.451   3.399  15.841 -0.1963 -0.6617 -0.2710
12439TIP3   OH258807   5.680   6.517  15.477  0.3891 -0.0959  0.3557
12439TIP3    H158808   5.729   6.544  15.554  0.5670  0.8193 -0.0646
12439TIP3    H258809   5.663   6.598  15.429 -1.6215 -0.3617  0.5234
12440TIP3   OH258810   6.551   3.641   3.010 -0.4668  0.2993 -0.3571
12440TIP3    H158811   6.626   3.670   2.957 -0.5488  0.2897 -0.4782
12440TIP3    H258812   6.564   3.547   3.020 -2.9854 -0.7738 -4.5373
12441TIP3   OH258813   5.801   6.184  14.093 -0.2689 -0.0996  0.1484
12441TIP3    H158814   5.861   6.110  14.101  1.2678  1.1690  1.0989
12441TIP3    H258815   5.743   6.176  14.169 -1.1417 -1.1673 -0.6093
12442TIP3   OH258816   6.001   3.428  15.730 -0.7128  0.6247 -0.7043
12442TIP3    H158817   5.998   3.477  15.812  1.8626 -1.4483  0.7769
12442TIP3    H258818   6.007   3.496  15.662 -0.4609  2.3828  0.9721
12443TIP3   OH258819   0.578   0.582   4.180  0.1607  0.2685 -0.6310
12443TIP3    H158820   0.616   0.502   4.218  2.0343  0.9097 -1.0115
12443TIP3    H258821   0.568   0.642   4.254  1.0257  0.4921 -0.6833
12444TIP3   OH258822   1.719   6.303  13.333 -0.1012 -0.3495 -0.0895
12444TIP3    H158823   1.743   6.255  13.412  1.6319  0.4547 -0.1008
12444TIP3    H258824   1.691   6.389  13.364  1.4709  0.2926 -0.3813
12445TIP3   OH258825   2.742   6.508   2.366  0.0776  0.3743  0.1688
12445TIP3    H158826   2.785   6.446   2.307 -0.1533  1.8573 -1.6564
12445TIP3    H258827   2.663   6.534   2.319  0.9112  3.1431  0.1591
12446TIP3   OH258828   3.513   5.873   0.106  0.2687  0.6619  0.0868
12446TIP3    H158829   3.442   5.934   0.127  1.3949  2.0500  0.0639
12446TIP3    H258830   3.535   5.833   0.190 -0.7076  0.0034  0.0456
12447TIP3   OH258831   0.203   6.543  15.644 -0.5416  0.3814 -0.2194
12447TIP3    H158832   0.149   6.504  15.712  1.5514  1.9536  2.5716
12447TIP3    H258833   0.245   6.469  15.601 -0.9409 -0.6407  1.0944
12448TIP3   OH258834   4.759   4.880   1.397 -0.8052 -0.5286  0.3989
12448TIP3    H158835   4.714   4.958   1.428 -0.1621  0.2692 -0.6287
12448TIP3    H258836   4.704   4.848   1.325 -0.1108  0.0533 -0.4024
12449TIP3   OH258837   0.545   4.435  14.656 -0.1911  0.1884 -0.1466
12449TIP3    H158838   0.608   4.492  14.700 -0.2483 -0.1244  0.3397
12449TIP3    H258839   0.481   4.413  14.723 -0.6250  0.2092 -0.5447
12450TIP3   OH258840   1.781   5.541  15.302 -0.3020 -0.0508 -0.2332
12450TIP3    H158841   1.768   5.622  15.351 -0.2689 -0.8019  1.0510
12450TIP3    H258842   1.854   5.497  15.346 -1.3648 -1.5332  0.1247
12451TIP3   OH258843   0.038   5.217   4.198  0.1638 -0.3097  0.4951
12451TIP3    H158844   0.123   5.182   4.225  0.3571  0.3322  0.7590
12451TIP3    H258845   0.038   5.307   4.232 -0.4071 -0.1351  0.0525
12452TIP3   OH258846   4.422   3.724  12.480 -0.1288 -0.0591  0.1804
12452TIP3    H158847   4.350   3.743  12.540 -1.7400 -2.4261 -0.8236
12452TIP3    H258848   4.401   3.637  12.444  3.1308 -0.7510 -0.3706
12453TIP3   OH258849   3.365   5.232  15.615 -0.5402  0.0530 -0.0917
12453TIP3    H158850   3.337   5.306  15.560 -0.7860  1.5238  1.8777
12453TIP3    H258851   3.368   5.158  15.555  0.0878  1.7109 -2.2656
12454TIP3   OH258852   5.625   5.077  12.701  0.0841  0.2549 -0.1611
12454TIP3    H158853   5.550   5.025  12.670 -1.1958  2.0493 -0.2425
12454TIP3    H258854   5.688   5.075  12.629 -1.4587  1.6763 -1.6436
12455TIP3   OH258855   5.102   0.704  13.260  0.2683  0.3422  0.4156
12455TIP3    H158856   5.023   0.665  13.222 -0.1679  0.1012  1.5226
12455TIP3    H258857   5.123   0.647  13.334  1.9269 -0.0203 -0.2990
12456TIP3   OH258858   4.495   4.319  13.549  0.0924  0.0747 -0.1224
12456TIP3    H158859   4.421   4.323  13.610  0.5201 -1.8693  0.5897
12456TIP3    H258860   4.566   4.363  13.595  1.0837 -3.3435  1.9134
12457TIP3   OH258861   2.213   6.185   1.291 -0.1636 -0.1646  0.0387
12457TIP3    H158862   2.232   6.113   1.351  0.6236 -1.0727 -1.2643
12457TIP3    H258863   2.186   6.257   1.349  1.9063 -0.5556  1.6107
12458TIP3   OH258864   1.416   1.568  14.425  0.0155  0.9025 -0.0764
12458TIP3    H158865   1.337   1.517  14.408 -0.6570  2.9786 -4.4451
12458TIP3    H258866   1.483   1.502  14.442 -1.6932 -1.1995 -0.9774
12459TIP3   OH258867   6.626   2.059   1.586 -0.1185 -0.7945 -0.0415
12459TIP3    H158868   6.717   2.036   1.568  0.3756  0.0293  1.2353
12459TIP3    H258869   6.580   1.976   1.587  0.4435 -1.1605 -1.4972
12460TIP3   OH258870   6.790   3.449   1.660  0.2404  0.3677 -0.2265
12460TIP3    H158871   6.883   3.463   1.648  0.4686 -0.6169  0.2461
12460TIP3    H258872   6.772   3.477   1.750  0.3003 -0.4138  0.0367
12461TIP3   OH258873   3.538   1.119   1.480  0.0786 -0.2860  0.0542
12461TIP3    H158874   3.481   1.070   1.539  0.4837  0.6077  1.2088
12461TIP3    H258875   3.505   1.208   1.482  0.2725 -0.1837 -0.8572
12462TIP3   OH258876   3.001   5.612   4.868 -0.1738  0.5576  0.3018
12462TIP3    H158877   2.947   5.669   4.922 -0.2009 -0.4799  1.4013
12462TIP3    H258878   3.052   5.672   4.814  0.9932  1.7049  2.5528
12463TIP3   OH258879   4.865   1.444  15.706  0.2299 -0.1605 -0.1135
12463TIP3    H158880   4.931   1.384  15.742 -0.9948 -1.1421  0.5777
12463TIP3    H258881   4.810   1.466  15.781  1.3567  2.8986 -0.0600
12464TIP3   OH258882   6.397   0.351  12.671  0.0136 -0.1616  0.7833
12464TIP3    H158883   6.311   0.351  12.711 -0.1067 -1.0267  0.5328
12464TIP3    H258884   6.389   0.293  12.596  0.9810 -0.7492  1.1162
12465TIP3   OH258885   2.708   2.497   4.311 -0.0707  0.4746  0.1070
12465TIP3    H158886   2.689   2.414   4.268  0.3025  0.6389 -0.3877
12465TIP3    H258887   2.751   2.473   4.393 -0.9244  0.1557  0.4684
12466TIP3   OH258888   3.545   1.178   3.261  0.5702 -0.0339  0.0977
12466TIP3    H158889   3.570   1.147   3.174  0.4175 -0.9059  0.3536
12466TIP3    H258890   3.598   1.256   3.275 -0.2277  0.7788 -1.2330
12467TIP3   OH258891   0.501   3.361  14.787 -0.2881  0.1992 -0.3026
12467TIP3    H158892   0.406   3.371  14.780 -0.3015 -0.0256 -0.4352
12467TIP3    H258893   0.528   3.431  14.846 -0.3968  0.9625 -1.1403
12468TIP3   OH258894   0.573   4.713  12.852 -0.0610 -0.3166  0.1297
12468TIP3    H158895   0.482   4.722  12.826  0.2767  1.1612 -0.6901
12468TIP3    H258896   0.621   4.771  12.792  1.2793 -0.2072  1.2470
12469TIP3   OH258897   3.855   5.220   2.360  0.2476 -0.4074  0.4396
12469TIP3    H158898   3.942   5.181   2.366 -0.0987 -1.5270 -1.1935
12469TIP3    H258899   3.859   5.279   2.285 -0.5591 -0.9745 -0.0720
12470TIP3   OH258900   6.155   0.576   4.724 -1.0175 -0.1081  0.0207
12470TIP3    H158901   6.138   0.617   4.639  0.1563 -0.0317 -0.2002
12470TIP3    H258902   6.149   0.648   4.787  1.3837  0.5632 -0.4053
12471TIP3   OH258903   6.368   5.369   0.157  0.7319 -0.3202 -0.3207
12471TIP3    H158904   6.393   5.293   0.210  4.0474  1.0774  0.3749
12471TIP3    H258905   6.400   5.348   0.069  3.1114  0.7619  0.1996
12472TIP3   OH258906   2.323   2.839  13.246 -0.0853  0.3781  0.0540
12472TIP3    H158907   2.348   2.770  13.185 -1.1061  0.7587 -0.8178
12472TIP3    H258908   2.236   2.814  13.276  1.0050 -0.6376  2.6268
12473TIP3   OH258909   0.738   0.424  12.282 -0.0732  0.2906  0.0302
12473TIP3    H158910   0.722   0.460  12.194 -0.2295 -2.8454 -1.3390
12473TIP3    H258911   0.833   0.427  12.291 -0.1243  1.7225  0.2952
12474TIP3   OH258912   2.194   1.268  11.772  0.3848 -0.2847  0.2982
12474TIP3    H158913   2.189   1.232  11.683  2.5230 -2.4438  0.9508
12474TIP3    H258914   2.187   1.363  11.760  3.7087 -0.2210 -2.5666
12475TIP3   OH258915   1.417   4.644  11.983  0.5007  0.4744 -0.3678
12475TIP3    H158916   1.414   4.599  12.067  0.4828 -0.7234 -0.9845
12475TIP3    H258917   1.483   4.712  11.994  1.2333 -0.3255  0.2984
12476TIP3   OH258918   5.614   1.759   6.520 -0.1087  0.3451  0.8264
12476TIP3    H158919   5.619   1.679   6.572 -1.3303  0.5540  1.3051
12476TIP3    H258920   5.603   1.829   6.584 -0.1756  0.7686  0.3619
12477TIP3   OH258921   4.221   1.663   6.516  0.4493  0.3779 -0.4920
12477TIP3    H158922   4.272   1.741   6.534 -1.1969  1.2585  0.6230
12477TIP3    H258923   4.134   1.696   6.494 -1.0313 -1.1175  2.4595
12478TIP3   OH258924   2.647   3.551   4.551  0.3560 -0.9516 -0.3585
12478TIP3    H158925   2.704   3.624   4.525  2.3196 -1.9019  1.1329
12478TIP3    H258926   2.617   3.574   4.639 -1.5969 -0.5029 -1.0850
12479TIP3   OH258927   3.299   0.860  15.763  0.6411 -0.6747 -0.0221
12479TIP3    H158928   3.275   0.950  15.788  0.1985 -0.6798 -0.4309
12479TIP3    H258929   3.345   0.826  15.840 -1.3526 -0.9407  1.1428
12480TIP3   OH258930   2.326   3.038  12.610 -0.4441 -0.0441 -0.6837
12480TIP3    H158931   2.265   3.092  12.659 -2.3723 -0.1036 -2.8586
12480TIP3    H258932   2.318   2.951  12.649  1.4166  0.7499  1.7172
12481TIP3   OH258933   0.533   1.782  14.519  0.0133  0.1936 -0.6541
12481TIP3    H158934   0.495   1.773  14.606 -2.6163 -3.2150 -1.9428
12481TIP3    H258935   0.605   1.719  14.518  1.5745  1.8702 -0.3564
12482TIP3   OH258936   1.916   3.318   4.189  0.3631 -0.3766 -0.4969
12482TIP3    H158937   1.938   3.332   4.096  0.0059 -0.2892 -0.5676
12482TIP3    H258938   1.995   3.278   4.226  0.9141  0.5832 -0.5902
12483TIP3   OH258939   3.824   3.065   5.957  0.5657 -0.4675  0.2458
12483TIP3    H158940   3.851   3.143   5.908 -1.2682 -0.0909 -0.2491
12483TIP3    H258941   3.833   3.091   6.049 -1.4954  0.9925  0.1298
12484TIP3   OH258942   3.375   4.068  15.246 -0.3375  0.4255 -0.1947
12484TIP3    H158943   3.442   4.067  15.314  0.2241  3.5977 -0.5388
12484TIP3    H258944   3.418   4.031  15.169  0.3002  0.3858  0.1780
12485TIP3   OH258945   6.593   4.664  11.855  0.5011 -0.0452 -0.0386
12485TIP3    H158946   6.677   4.629  11.885 -0.1128 -2.4239 -0.8709
12485TIP3    H258947   6.530   4.634  11.920  0.3809  2.8388  1.3069
12486TIP3   OH258948   5.137   4.877   5.690  0.1059 -0.2987 -0.3852
12486TIP3    H158949   5.084   4.955   5.679 -0.4809 -0.7295 -0.6895
12486TIP3    H258950   5.098   4.831   5.764  1.5472  0.5712  0.9506
12487TIP3   OH258951   5.889   1.090  11.791  0.0643  0.1093  0.0787
12487TIP3    H158952   5.799   1.057  11.791  0.5744 -1.3313  0.2904
12487TIP3    H258953   5.939   1.025  11.840  0.6615  2.5935  3.0733
12488TIP3   OH258954   0.588   5.667   0.081  0.0838  0.1060  0.0179
12488TIP3    H158955   0.570   5.589   0.028  0.2996 -0.8610  1.3250
12488TIP3    H258956   0.502   5.699   0.107  0.0211 -0.5512  0.6583
12489TIP3   OH258957   3.078   1.729   5.702  0.0611 -0.2816  0.6139
12489TIP3    H158958   3.054   1.769   5.785 -2.6791  1.9213 -1.0266
12489TIP3    H258959   3.124   1.799   5.654  1.7241 -1.5438  0.2588
12490TIP3   OH258960   0.129   0.757   4.854 -0.4476  0.5343  0.2374
12490TIP3    H158961   0.091   0.697   4.919 -1.9696  2.9271  1.7022
12490TIP3    H258962   0.059   0.771   4.791  0.1020  0.3401 -0.4247
12491TIP3   OH258963   2.708   2.816  14.104  0.2318  0.4192  0.1125
12491TIP3    H158964   2.801   2.825  14.087 -0.1333  1.7094 -1.3557
12491TIP3    H258965   2.694   2.721  14.110  1.6047  0.2117  0.2859
12492TIP3   OH258966   1.780   5.635  11.579 -0.5161 -0.1945 -1.0382
12492TIP3    H158967   1.774   5.721  11.538  0.2474 -0.2874 -1.3489
12492TIP3    H258968   1.749   5.649  11.669  2.4127  1.1069 -0.1030
12493TIP3   OH258969   4.272   3.683   1.185  0.0827  0.0086  0.1273
12493TIP3    H158970   4.219   3.610   1.218 -1.7146  0.0619 -2.3888
12493TIP3    H258971   4.216   3.760   1.197  0.8468  0.5720  0.1845
12494TIP3   OH258972   1.208   2.652  11.262 -0.0406 -0.0178 -0.6458
12494TIP3    H158973   1.197   2.742  11.231  1.2674 -0.2591 -1.9231
12494TIP3    H258974   1.279   2.657  11.327  1.8610 -0.4347 -2.5786
12495TIP3   OH258975   4.438   1.185  12.429 -0.7088 -0.4508  0.1061
12495TIP3    H158976   4.520   1.137  12.436 -0.7578 -0.4440  0.7880
12495TIP3    H258977   4.398   1.179  12.516 -1.0899  0.1491 -0.0129
12496TIP3   OH258978   2.701   0.610   6.340 -0.1883 -0.4935 -0.0097
12496TIP3    H158979   2.628   0.601   6.278 -0.8522 -0.0815  0.7021
12496TIP3    H258980   2.706   0.525   6.383 -0.8643 -0.2356  0.5986
12497TIP3   OH258981   0.734   0.377  11.595 -0.5322 -0.4888 -1.2404
12497TIP3    H158982   0.723   0.311  11.527  0.2432 -0.9962 -0.8874
12497TIP3    H258983   0.739   0.327  11.677  1.3807 -0.1097 -1.0922
12498TIP3   OH258984   2.821   0.480   0.397  0.1074  0.0845 -0.2847
12498TIP3    H158985   2.899   0.532   0.417  0.9377 -0.9986 -0.6177
12498TIP3    H258986   2.854   0.405   0.348 -1.0596 -0.7467  0.1577
12499TIP3   OH258987   4.319   4.294   3.803  0.1705  1.0374  0.3408
12499TIP3    H158988   4.409   4.325   3.798  0.7204 -0.7036 -1.6099
12499TIP3    H258989   4.312   4.228   3.735 -1.6070 -1.3550  2.6327
12500TIP3   OH258990   2.891   2.743   1.881  0.6560  0.2963  0.1012
12500TIP3    H158991   2.876   2.819   1.825  1.7372  1.2722  1.0605
12500TIP3    H258992   2.984   2.722   1.868  1.6252  1.9948  3.1032
12501TIP3   OH258993   5.340   3.816  15.239  0.3403 -0.4343  0.0571
12501TIP3    H158994   5.256   3.773  15.252  0.8356 -1.3126  0.3987
12501TIP3    H258995   5.344   3.833  15.145 -0.2418 -0.3359  0.0490
12502TIP3   OH258996   4.059   2.332  16.805 -0.2620 -0.6265  0.0251
12502TIP3    H158997   4.012   2.278  16.742 -1.6710 -0.7703  1.1444
12502TIP3    H258998   4.128   2.374  16.754 -2.1759  0.3656 -1.9353
12503TIP3   OH258999   6.161   1.824  16.358  0.7915  0.6395 -0.3578
12503TIP3    H159000   6.221   1.897  16.344 -0.6535  2.0451  0.4282
12503TIP3    H259001   6.212   1.759  16.406  1.1711  2.6633  2.1934
12504TIP3   OH259002   3.187   5.434   3.358  0.5616 -0.2134  0.1709
12504TIP3    H159003   3.187   5.384   3.439 -0.7236  0.0529  0.3646
12504TIP3    H259004   3.160   5.372   3.291  2.1180 -0.5625 -0.1689
12505TIP3   OH259005   6.813   6.835   2.239  0.0854  0.2337 -0.1945
12505TIP3    H159006   6.811   6.831   2.335  0.8343  0.6876 -0.1486
12505TIP3    H259007   6.791   6.925   2.218 -1.8878 -0.2939 -0.5446
12506TIP3   OH259008   5.942   5.823  15.160  0.0605 -0.2020 -0.3597
12506TIP3    H159009   5.995   5.875  15.099 -0.5303 -1.2547 -1.8190
12506TIP3    H259010   5.999   5.813  15.237  1.6524 -0.5576 -1.5267
12507TIP3   OH259011   5.529   1.862   1.393 -0.4209 -0.1801  0.3840
12507TIP3    H159012   5.563   1.908   1.315 -1.0787 -1.3688 -0.6423
12507TIP3    H259013   5.463   1.922   1.429 -0.5172  0.1505 -0.3193
12508TIP3   OH259014   3.708   0.932  12.728 -0.4992  0.4686  0.6214
12508TIP3    H159015   3.656   1.005  12.694  0.2063  1.6498  1.9664
12508TIP3    H259016   3.703   0.941  12.823  1.2818 -0.0156  0.7979
12509TIP3   OH259017   5.190   4.316  14.550  0.1228  0.0095 -0.0513
12509TIP3    H159018   5.165   4.402  14.516  0.4901 -0.0644 -0.5305
12509TIP3    H259019   5.109   4.278  14.581  0.3866  1.9318  3.5033
12510TIP3   OH259020   2.287   3.706  15.001 -0.2016  0.7583 -0.1297
12510TIP3    H159021   2.266   3.706  14.908 -0.8878  1.7434  0.0014
12510TIP3    H259022   2.381   3.689  15.005 -0.3120 -0.0896 -0.9502
12511TIP3   OH259023   3.067   0.324   4.629 -0.6241 -0.5150 -0.0262
12511TIP3    H159024   2.986   0.274   4.641 -0.1909 -1.2652 -0.2335
12511TIP3    H259025   3.136   0.258   4.622 -0.0540  0.1038 -0.3566
12512TIP3   OH259026   3.641   2.438  14.096 -0.4979  0.0072 -0.3088
12512TIP3    H159027   3.603   2.524  14.079 -2.8218  0.0012  3.5093
12512TIP3    H259028   3.709   2.455  14.161  0.5700 -0.8668 -1.1692
12513TIP3   OH259029   2.815   6.034  14.782  0.1824  0.0863 -0.2090
12513TIP3    H159030   2.726   6.043  14.747  0.4203 -1.2519 -1.2046
12513TIP3    H259031   2.808   6.068  14.872 -1.3383 -0.0417 -0.2436
12514TIP3   OH259032   1.257   6.427   5.091  0.3425 -0.6233  0.3268
12514TIP3    H159033   1.317   6.438   5.165  1.7053  0.5019 -0.8869
12514TIP3    H259034   1.202   6.353   5.117  0.1600  0.2760  2.8358
12515TIP3   OH259035   3.776   3.624   2.813  1.2436 -0.0963 -0.1514
12515TIP3    H159036   3.784   3.719   2.810 -0.5299  0.0894 -2.4840
12515TIP3    H259037   3.721   3.606   2.889  0.1059  0.9244 -0.7026
12516TIP3   OH259038   5.871   4.212   6.733 -0.0664 -0.3301 -0.3011
12516TIP3    H159039   5.937   4.171   6.789 -1.9200 -1.1972  1.3366
12516TIP3    H259040   5.806   4.143   6.718 -0.7078  0.5492 -1.7280
12517TIP3   OH259041   1.664   5.346  16.720 -0.4060 -0.0285  0.3378
12517TIP3    H159042   1.661   5.441  16.722  1.8378  0.1074  3.4236
12517TIP3    H259043   1.708   5.321  16.801  1.7290 -3.5716 -1.6712
12518TIP3   OH259044   4.308   2.797   5.638  0.2429  0.2037  0.0354
12518TIP3    H159045   4.240   2.735   5.613  0.1854 -0.2678  1.2850
12518TIP3    H259046   4.307   2.863   5.569  0.9048 -1.6323 -1.8338
12519TIP3   OH259047   2.687   3.325   3.361 -0.3488 -0.1531  0.4349
12519TIP3    H159048   2.635   3.253   3.324 -1.8963  1.1206  0.0626
12519TIP3    H259049   2.769   3.323   3.311  0.0435 -2.1734  1.0179
12520TIP3   OH259050   1.139   0.128   0.303  0.2637 -0.2642  0.2387
12520TIP3    H159051   1.151   0.191   0.232  1.1113  0.4506  1.0001
12520TIP3    H259052   1.047   0.138   0.328  0.5222  1.1206  0.7377
12521TIP3   OH259053   3.169   1.494  13.855  0.2969  0.5191  0.6434
12521TIP3    H159054   3.227   1.561  13.819 -1.3952  1.2280 -0.9481
12521TIP3    H259055   3.228   1.428  13.891  2.0640  1.5578 -0.2058
12522TIP3   OH259056   2.943   6.715  11.433  0.2810  0.1194  0.2594
12522TIP3    H159057   2.903   6.634  11.401  0.7144 -0.4297  1.0620
12522TIP3    H259058   3.036   6.696  11.437  0.4891  0.9589 -0.3782
12523TIP3   OH259059   4.213   3.106   3.604 -0.3411  0.7135 -0.2883
12523TIP3    H159060   4.127   3.121   3.643 -0.7559  1.3676 -1.3838
12523TIP3    H259061   4.250   3.033   3.653 -1.2815  0.8015  0.5773
12524TIP3   OH259062   1.323   4.372  13.365 -0.2287 -0.4064  0.4655
12524TIP3    H159063   1.260   4.442  13.382 -0.7357 -0.4452 -1.0725
12524TIP3    H259064   1.389   4.413  13.310 -0.3146 -1.0208 -0.1052
12525TIP3   OH259065   3.280   0.183  17.034  0.1448  0.7473  0.2397
12525TIP3    H159066   3.294   0.207  17.126  0.3363  1.6340 -0.0163
12525TIP3    H259067   3.185   0.172  17.028  0.1204  0.7758  0.5237
12526TIP3   OH259068   0.484   4.351   3.835  0.6601  0.1428 -0.2725
12526TIP3    H159069   0.434   4.274   3.809  0.6637 -0.4048  1.2938
12526TIP3    H259070   0.457   4.419   3.772 -1.4071 -0.3684 -0.0169
12527TIP3   OH259071   2.068   5.942  14.419 -0.2051 -0.2199 -0.4509
12527TIP3    H159072   2.036   5.913  14.333 -4.3974  1.1497  0.4247
12527TIP3    H259073   2.043   6.034  14.424  1.8410  0.3135  1.4815
12528TIP3   OH259074   2.008   0.682   4.916  0.4039  0.3563  0.2608
12528TIP3    H159075   1.913   0.680   4.905  0.6165  0.0518 -1.9707
12528TIP3    H259076   2.033   0.590   4.920  0.7967  0.3213 -1.7787
12529TIP3   OH259077   1.158   1.734   1.616  0.3964 -0.1716 -0.1522
12529TIP3    H159078   1.101   1.771   1.683 -1.9516 -0.4031 -1.9012
12529TIP3    H259079   1.198   1.657   1.658  1.2527  1.2691  1.8280
12530TIP3   OH259080   6.629   4.659   3.345  0.1025  0.2829  0.4733
12530TIP3    H159081   6.679   4.597   3.291 -1.0345 -0.5222  0.3076
12530TIP3    H259082   6.690   4.730   3.362  1.7134 -1.2140  1.2962
12531TIP3   OH259083   3.357   5.565  13.402 -0.1148 -0.3154 -0.6530
12531TIP3    H159084   3.445   5.587  13.372 -0.3082  0.7980 -0.4680
12531TIP3    H259085   3.371   5.516  13.483  0.3430  1.4196  0.3706
12532TIP3   OH259086   2.575   6.102  11.677 -0.0647  0.2394 -0.1104
12532TIP3    H159087   2.643   6.063  11.732 -1.3297 -0.7330  0.8183
12532TIP3    H259088   2.622   6.130  11.598  1.5233  0.2401  0.7856
12533TIP3   OH259089   4.408   3.005   2.041 -0.1804  0.1371  0.0198
12533TIP3    H159090   4.345   3.049   1.983 -0.0097  1.8091  1.0598
12533TIP3    H259091   4.480   2.981   1.983 -0.3182  1.1730 -0.6103
12534TIP3   OH259092   1.384   2.231  15.830  0.0661  0.6375 -0.0170
12534TIP3    H159093   1.418   2.218  15.741 -1.8920  0.8658 -0.8515
12534TIP3    H259094   1.323   2.305  15.822  0.3281  1.0853  1.6679
12535TIP3   OH259095   1.054   2.651   4.660  0.2047 -0.3393  0.3313
12535TIP3    H159096   1.148   2.642   4.672  0.2442 -1.5947 -0.5996
12535TIP3    H259097   1.044   2.670   4.567 -0.4279  0.7201  0.6036
12536TIP3   OH259098   3.986   1.066   6.172 -0.8787 -0.2160 -0.0356
12536TIP3    H159099   3.905   1.115   6.156 -0.7830 -0.4180 -1.1840
12536TIP3    H259100   3.981   0.990   6.113  1.1136  0.8876 -1.7666
12537TIP3   OH259101   2.590   5.694   1.825  0.6451 -0.0168  0.4087
12537TIP3    H159102   2.500   5.727   1.814  0.1746 -1.0494  1.0276
12537TIP3    H259103   2.631   5.708   1.740 -0.5456 -0.8233 -0.3324
12538TIP3   OH259104   6.716   4.080   3.880 -0.2072  0.4553  0.0849
12538TIP3    H159105   6.808   4.101   3.899 -0.4076  0.4540  1.1036
12538TIP3    H259106   6.684   4.038   3.959 -0.6491 -1.0271 -0.8454
12539TIP3   OH259107   4.478   6.754  13.349  0.6985  0.3799  0.3778
12539TIP3    H159108   4.383   6.767  13.355  0.3781 -0.7926 -1.3811
12539TIP3    H259109   4.515   6.841  13.359 -0.7050  1.1884 -0.9630
12540TIP3   OH259110   5.415   6.674  15.579 -0.1196  0.2441 -0.6593
12540TIP3    H159111   5.352   6.744  15.560 -3.1410 -1.4413  2.0134
12540TIP3    H259112   5.371   6.595  15.549  1.4648 -0.9002 -0.0880
12541TIP3   OH259113   3.755   6.638  15.978  0.7233 -0.0423 -0.1046
12541TIP3    H159114   3.785   6.728  15.968  0.1018  0.2457  0.5797
12541TIP3    H259115   3.747   6.625  16.072 -0.5534 -0.3484 -0.2310
12542TIP3   OH259116   4.659   4.844   4.543 -0.5820  0.5239 -0.5441
12542TIP3    H159117   4.683   4.898   4.618  0.4558 -0.9731  0.2367
12542TIP3    H259118   4.660   4.755   4.576  0.5791 -0.2415 -2.4901
12543TIP3   OH259119   1.498   5.139  15.389 -0.1391 -0.1428 -1.0824
12543TIP3    H159120   1.473   5.152  15.480  1.0701 -1.7682 -0.4648
12543TIP3    H259121   1.517   5.227  15.356  2.4413  0.3053  1.1831
12544TIP3   OH259122   3.894   5.947   6.049  0.2896 -0.0654 -0.7001
12544TIP3    H159123   3.896   5.914   6.139  0.7433  0.0204 -0.6789
12544TIP3    H259124   3.837   6.024   6.053  0.3647 -0.0218 -0.4755
12545TIP3   OH259125   6.193   1.867   2.207 -0.3135  0.6552 -0.0375
12545TIP3    H159126   6.287   1.883   2.203 -0.2782  0.2605 -0.8068
12545TIP3    H259127   6.184   1.777   2.238 -0.4257  0.4819 -0.5676
12546TIP3   OH259128   5.481   5.889   6.437  0.2163 -0.6610  0.1139
12546TIP3    H159129   5.448   5.944   6.508 -0.8606  0.1582 -0.9666
12546TIP3    H259130   5.524   5.951   6.378  0.2737 -1.1832 -0.4004
12547TIP3   OH259131   2.703   6.075  14.147 -0.2178 -0.2783 -0.1756
12547TIP3    H159132   2.618   6.036  14.127 -1.4834  1.2432  1.8356
12547TIP3    H259133   2.695   6.103  14.239  2.2254  0.4902 -0.1399
12548TIP3   OH259134   1.075   3.681  15.145  0.4944 -0.0919 -0.0185
12548TIP3    H159135   1.101   3.761  15.101  1.5651  0.6399  1.8219
12548TIP3    H259136   1.151   3.623  15.138  0.7732  0.1287  1.0389
12549TIP3   OH259137   0.743   0.746  13.045  0.1607 -0.4759  0.4510
12549TIP3    H159138   0.666   0.775  12.996 -1.1210 -1.9661  1.4684
12549TIP3    H259139   0.785   0.683  12.987  0.2995 -0.0822  0.1203
12550TIP3   OH259140   1.813   2.512  15.972  0.7196  0.1789  1.2662
12550TIP3    H159141   1.726   2.472  15.981  0.5077 -0.0990 -1.1710
12550TIP3    H259142   1.819   2.573  16.045 -0.8463 -0.9739  2.4364
12551TIP3   OH259143   4.045   5.683   3.426 -0.4768  0.8343  0.2668
12551TIP3    H159144   4.099   5.677   3.505  0.3237 -0.3668 -0.3313
12551TIP3    H259145   3.966   5.729   3.454  1.4314  4.0608  0.8200
12552TIP3   OH259146   1.902   2.441   5.664 -0.0662 -0.1264 -0.5114
12552TIP3    H159147   1.959   2.518   5.658 -0.4304  0.3036  1.1915
12552TIP3    H259148   1.951   2.378   5.715 -1.1691  0.3767  1.2846
12553TIP3   OH259149   0.800   4.089   4.781 -0.2723  0.4226 -0.4775
12553TIP3    H159150   0.784   4.176   4.817  0.4964  1.4642 -2.4704
12553TIP3    H259151   0.893   4.089   4.759 -0.6693 -0.1236 -2.3594
12554TIP3   OH259152   5.407   4.699  13.162  0.0897  0.0984  0.2210
12554TIP3    H159153   5.383   4.786  13.131  1.8660  0.1420 -1.2030
12554TIP3    H259154   5.330   4.645  13.144 -0.4148  1.0150 -0.4686
12555TIP3   OH259155   5.355   2.698   6.152  0.0229 -0.2582  0.3535
12555TIP3    H159156   5.271   2.738   6.130 -0.7809 -2.0060  0.0495
12555TIP3    H259157   5.345   2.668   6.242  0.7716  0.5638  0.7289
12556TIP3   OH259158   4.713   1.209  15.617  0.2200 -0.4067  0.0208
12556TIP3    H159159   4.786   1.179  15.562  1.0881 -0.0461  0.9245
12556TIP3    H259160   4.743   1.294  15.651  0.1365 -1.0312  1.7720
12557TIP3   OH259161   6.610   2.476   0.082 -0.1724  0.6753 -0.2073
12557TIP3    H159162   6.582   2.563   0.110  0.5407  1.0582 -0.6545
12557TIP3    H259163   6.544   2.417   0.118 -0.2446  1.3218  0.7750
12558TIP3   OH259164   6.086   0.981  15.519  0.4050  0.2466  0.4679
12558TIP3    H159165   6.128   0.913  15.572 -0.2858 -3.7314 -3.4867
12558TIP3    H259166   6.156   1.016  15.464  0.4026  1.4651  1.2150
12559TIP3   OH259167   4.083   3.026  14.974  0.0467 -0.0122 -0.1532
12559TIP3    H159168   4.123   3.071  14.900  1.6365  0.2020  0.7792
12559TIP3    H259169   4.011   2.977  14.936  0.2462  0.8060 -1.6906
12560TIP3   OH259170   3.113   6.245   5.916 -0.0815 -0.2813  0.4925
12560TIP3    H159171   3.080   6.155   5.920  1.1401 -0.8081 -0.5326
12560TIP3    H259172   3.094   6.274   5.827 -1.4658  0.9128  1.1404
12561TIP3   OH259173   4.076   2.230   0.669 -0.2532  0.2825 -0.0725
12561TIP3    H159174   4.073   2.143   0.629  1.0754  0.2251 -0.0814
12561TIP3    H259175   4.145   2.224   0.735 -0.7375  1.0942  0.5205
12562TIP3   OH259176   4.928   4.430  13.761 -0.0906  0.1373 -0.3436
12562TIP3    H159177   4.962   4.345  13.792 -0.8380 -0.0281  0.0464
12562TIP3    H259178   4.956   4.434  13.670 -1.3161 -1.2303 -0.8242
12563TIP3   OH259179   5.181   5.100  16.199 -0.3258 -0.0776 -0.3727
12563TIP3    H159180   5.169   5.010  16.230 -0.5489 -0.5023 -1.6522
12563TIP3    H259181   5.237   5.091  16.122  1.9057  1.1388  0.9910
12564TIP3   OH259182   0.959   4.237  15.726  0.7511 -0.2848 -0.0019
12564TIP3    H159183   0.914   4.198  15.650  1.3056  0.7615 -0.8960
12564TIP3    H259184   0.887   4.269  15.781  0.3434  0.3968 -0.8887
12565TIP3   OH259185   6.089   2.945  11.530 -0.2137 -0.1748 -0.0901
12565TIP3    H159186   6.135   2.947  11.613 -2.0129 -0.1000  0.9545
12565TIP3    H259187   6.018   2.881  11.543  1.0567 -2.2494 -2.4841
12566TIP3   OH259188   0.438   0.389   1.610 -0.7068 -1.1386 -0.1891
12566TIP3    H159189   0.442   0.430   1.696 -1.2631  1.0909 -1.1485
12566TIP3    H259190   0.501   0.437   1.557  0.1586 -2.9414 -0.8836
12567TIP3   OH259191   4.279   1.051  14.246  0.1350 -0.2258  0.1499
12567TIP3    H159192   4.243   1.032  14.332 -0.2073 -0.6017 -0.0681
12567TIP3    H259193   4.213   1.016  14.185 -0.0287  0.7868 -0.2645
12568TIP3   OH259194   5.721   4.495   2.063 -0.0349 -0.2367 -0.2473
12568TIP3    H159195   5.728   4.586   2.032  0.7642 -0.2435 -0.1280
12568TIP3    H259196   5.648   4.458   2.014 -0.0158  0.3172 -0.7064
12569TIP3   OH259197   4.661   0.033  11.275  0.3404  0.4234 -0.4208
12569TIP3    H159198   4.749  -0.002  11.292  0.2713 -0.4959 -1.7847
12569TIP3    H259199   4.676   0.107  11.216  0.2107  0.3641 -0.5282
12570TIP3   OH259200   0.485   3.015   4.961 -0.1875  0.3626 -0.4446
12570TIP3    H159201   0.554   3.035   4.898  0.8014  2.9418  1.2586
12570TIP3    H259202   0.529   2.969   5.032 -0.6479  0.1422 -0.2987
12571TIP3   OH259203   1.150   4.657   6.382 -0.2490 -0.2102 -0.2135
12571TIP3    H159204   1.240   4.652   6.413  0.2941  0.3366 -1.6063
12571TIP3    H259205   1.122   4.746   6.403 -0.5372 -0.4418  0.3941
12572TIP3   OH259206   3.071   6.681   1.308 -0.6866 -0.6140  0.2971
12572TIP3    H159207   3.123   6.601   1.294  0.1381 -0.0467  0.0841
12572TIP3    H259208   2.984   6.658   1.275 -1.0871 -2.1518  2.2323
12573TIP3   OH259209   0.889   6.826  13.839 -0.1063  0.0606 -0.0623
12573TIP3    H159210   0.915   6.918  13.834 -0.5034  0.1893  0.1649
12573TIP3    H259211   0.917   6.798  13.927 -0.6332  0.1695  0.1416
12574TIP3   OH259212   4.078   0.791  12.747 -0.0441 -0.2412 -0.7301
12574TIP3    H159213   4.065   0.873  12.700  0.3550 -0.2843 -0.9215
12574TIP3    H259214   3.995   0.744  12.738 -0.5354  0.4754  0.0435
12575TIP3   OH259215   5.863   5.979   5.981 -0.0848  0.1151  0.0826
12575TIP3    H159216   5.938   5.998   6.038 -1.5887 -2.7779  3.3599
12575TIP3    H259217   5.900   5.931   5.908  1.4086 -0.4825  1.1832
12576TIP3   OH259218   0.705   1.413  15.755 -0.0991 -0.5379  0.0178
12576TIP3    H159219   0.773   1.459  15.705  1.1364  0.4688  2.4868
12576TIP3    H259220   0.690   1.333  15.706  0.8793  0.4673 -2.0646
12577TIP3   OH259221   4.798   4.685  12.321  0.1902 -0.4976 -0.1070
12577TIP3    H159222   4.771   4.736  12.398 -0.5909 -2.2166  0.8091
12577TIP3    H259223   4.886   4.653  12.344 -0.1323 -1.1901  0.1690
12578TIP3   OH259224   1.760   4.519  12.834 -0.3346  0.2258 -0.2358
12578TIP3    H159225   1.753   4.503  12.740 -0.8862 -0.7811 -0.0298
12578TIP3    H259226   1.799   4.439  12.870 -0.3734  0.4925  0.4314
12579TIP3   OH259227   2.401   6.493   1.233 -0.2681 -0.0300 -0.2430
12579TIP3    H159228   2.419   6.578   1.272 -1.5020 -0.8602  2.3740
12579TIP3    H259229   2.445   6.430   1.290  0.3995 -1.2014 -1.9622
12580TIP3   OH259230   0.400   1.812   5.382  0.3648  0.0204  0.0014
12580TIP3    H159231   0.436   1.752   5.447 -0.9989 -1.2747 -0.3799
12580TIP3    H259232   0.307   1.789   5.377  0.0380  1.4335 -0.9667
12581TIP3   OH259233   0.732   0.206  14.094  0.0098  0.0035  0.2948
12581TIP3    H159234   0.705   0.126  14.139  0.2722 -0.1768  0.1363
12581TIP3    H259235   0.825   0.216  14.116  0.1233 -0.0498 -0.1482
12582TIP3   OH259236   2.686   3.613  12.820  0.1452 -0.5490  0.0648
12582TIP3    H159237   2.761   3.671  12.818  0.9690 -1.5941 -1.3077
12582TIP3    H259238   2.680   3.578  12.731 -1.3576 -1.2477  0.4035
12583TIP3   OH259239   6.258   2.285  11.212  0.1096  0.2285  0.2262
12583TIP3    H159240   6.250   2.273  11.118 -2.1418  0.1863  0.3771
12583TIP3    H259241   6.351   2.269  11.230  0.4393 -0.5174 -1.8604
12584TIP3   OH259242   6.522   1.039   3.434 -0.4520 -0.3316 -0.9490
12584TIP3    H159243   6.573   1.092   3.372  0.2965 -0.6219 -0.6050
12584TIP3    H259244   6.588   1.005   3.494 -1.0458 -0.8988 -0.6160
12585TIP3   OH259245   2.917   1.980  14.404  0.5359 -0.5411 -0.2857
12585TIP3    H159246   2.858   1.935  14.344  1.2669  0.4244 -1.7948
12585TIP3    H259247   2.997   1.994  14.353  0.9400  0.9197  0.6774
12586TIP3   OH259248   4.719   0.638  17.026  0.0527  0.3432  0.3752
12586TIP3    H159249   4.789   0.582  17.060  0.0092  0.8534  1.3479
12586TIP3    H259250   4.648   0.627  17.089 -0.8354 -0.3392 -0.7224
12587TIP3   OH259251   0.424   2.403   6.646  0.3179  0.4261  0.5098
12587TIP3    H159252   0.392   2.336   6.706 -1.1851  1.3582  0.7968
12587TIP3    H259253   0.435   2.357   6.563  0.0811 -0.3547  0.8995
12588TIP3   OH259254   3.670   0.579  11.163 -0.6943 -0.7793 -0.9237
12588TIP3    H159255   3.719   0.652  11.124 -1.4884 -1.2584 -2.9576
12588TIP3    H259256   3.710   0.501  11.125  2.2381 -1.8255  3.5169
12589TIP3   OH259257   3.425   3.637   2.610 -0.3283 -0.0602  0.3327
12589TIP3    H159258   3.512   3.638   2.570 -1.0961 -0.6171 -1.4542
12589TIP3    H259259   3.374   3.701   2.560 -0.8152  0.6612  1.7126
12590TIP3   OH259260   0.115   2.723   4.775  0.2756 -0.2103  0.6643
12590TIP3    H159261   0.058   2.798   4.760 -0.5476 -0.7414  1.0702
12590TIP3    H259262   0.203   2.755   4.754 -0.0965  0.7782  0.5639
12591TIP3   OH259263   5.446   1.018   2.043 -0.1079 -0.4064 -0.1831
12591TIP3    H159264   5.351   1.016   2.052 -0.0106  0.3581  1.4313
12591TIP3    H259265   5.476   0.940   2.090  0.1603  0.8520  1.8654
12592TIP3   OH259266   0.005   1.678   4.547  0.2861  0.1603  0.1779
12592TIP3    H159267  -0.057   1.743   4.580 -0.9505  0.2565 -2.1384
12592TIP3    H259268   0.071   1.671   4.616  0.4410  3.7844  0.6091
12593TIP3   OH259269   3.600   2.738   3.974 -0.4967  0.1030  0.0883
12593TIP3    H159270   3.564   2.819   4.011 -1.6380 -0.5109  0.3556
12593TIP3    H259271   3.656   2.703   4.043  0.0574  0.6824 -0.0514
12594TIP3   OH259272   3.643   3.845  16.914  0.0108 -0.1731  0.5649
12594TIP3    H159273   3.562   3.850  16.863  0.8539  0.0131 -0.8113
12594TIP3    H259274   3.646   3.928  16.961 -0.2345  0.1441  0.0344
12595TIP3   OH259275   4.004   1.762   0.137  0.2841  0.3826 -1.1249
12595TIP3    H159276   3.921   1.720   0.114 -0.0392 -0.2285  0.9420
12595TIP3    H259277   3.983   1.855   0.146 -0.2157  0.2176 -0.5200
12596TIP3   OH259278   4.562   4.809  16.529  0.2609  0.1351  0.4789
12596TIP3    H159279   4.591   4.739  16.588 -0.4739 -0.2509  0.4003
12596TIP3    H259280   4.539   4.763  16.448  1.2069  0.6527 -0.1029
12597TIP3   OH259281   1.020   5.232  17.002  0.7316  0.4823  0.2025
12597TIP3    H159282   0.998   5.268  16.917 -2.0079 -0.0614  0.5864
12597TIP3    H259283   0.984   5.143  17.001 -0.0830  0.7344  2.1677
12598TIP3   OH259284   0.687   2.274   2.201  0.0526 -0.0700  0.2191
12598TIP3    H159285   0.773   2.297   2.236  0.3344 -1.2675  0.3460
12598TIP3    H259286   0.668   2.344   2.138  1.4298 -0.1414 -0.3127
12599TIP3   OH259287   6.080   2.568  15.996 -0.1363 -0.3106  0.7814
12599TIP3    H159288   6.012   2.528  15.941 -0.0366  0.3097  0.1985
12599TIP3    H259289   6.161   2.554  15.948 -0.3915  2.9361 -0.8474
12600TIP3   OH259290   4.741   4.709  16.218  0.1770  0.1663  0.0842
12600TIP3    H159291   4.740   4.659  16.136  0.2675  0.6971 -0.2403
12600TIP3    H259292   4.654   4.694  16.255 -0.5221  1.3610 -0.9880
12601TIP3   OH259293   4.857   4.382   4.190  0.0107 -0.4485 -0.0845
12601TIP3    H159294   4.910   4.407   4.266  1.5653 -0.2075 -1.2053
12601TIP3    H259295   4.861   4.459   4.132  2.2684 -1.9913 -2.1955
12602TIP3   OH259296   3.078   1.446   2.856 -0.2404 -0.4052  0.1804
12602TIP3    H159297   3.095   1.489   2.940 -2.0576  3.0169 -0.9851
12602TIP3    H259298   3.164   1.430   2.818  0.6121 -1.8864  2.5345
12603TIP3   OH259299   2.734   5.045   4.318  0.4991  0.2103  0.3123
12603TIP3    H159300   2.707   5.035   4.409  1.9174  0.7992  0.8348
12603TIP3    H259301   2.671   4.994   4.268  0.8378 -1.8033  1.8059
12604TIP3   OH259302   1.393   0.285  11.343 -0.2298 -0.6114  0.0922
12604TIP3    H159303   1.302   0.257  11.348 -0.1927 -1.0537 -1.2281
12604TIP3    H259304   1.440   0.207  11.313  0.7228 -0.6195  1.4968
12605TIP3   OH259305   0.438   2.419  11.103  0.3198  0.1570  0.8785
12605TIP3    H159306   0.521   2.373  11.116  1.7794  2.4471  0.2279
12605TIP3    H259307   0.463   2.510  11.088 -2.3333  0.9276  0.6393
12606TIP3   OH259308   1.647   0.500   3.278 -0.8303  0.0559 -0.2454
12606TIP3    H159309   1.685   0.420   3.241 -0.1742 -0.0694  0.6761
12606TIP3    H259310   1.554   0.478   3.290 -0.4834 -0.9480  0.9178
12607TIP3   OH259311   0.434   3.400  14.074  0.1648 -0.1459  0.1277
12607TIP3    H159312   0.510   3.439  14.117 -0.3865  0.3580  0.6700
12607TIP3    H259313   0.361   3.455  14.100 -0.5464 -1.1888  0.4182
12608TIP3   OH259314   2.554   3.736  13.286 -0.4045  0.5304  0.7964
12608TIP3    H159315   2.590   3.719  13.373  1.0266  0.1042  0.1484
12608TIP3    H259316   2.462   3.759  13.302 -0.9772 -2.2857  2.2063
12609TIP3   OH259317   6.666   6.802   3.098  0.1474  0.2910 -0.5757
12609TIP3    H159318   6.591   6.818   3.041  0.7478  2.0517 -0.9312
12609TIP3    H259319   6.684   6.708   3.088 -0.2736  0.3792 -2.6558
12610TIP3   OH259320   6.252   2.951   5.623  0.2068  0.2974 -0.0761
12610TIP3    H159321   6.305   3.001   5.685 -0.5659  0.7236  0.2530
12610TIP3    H259322   6.165   2.947   5.662 -0.0320 -0.3371 -0.6398
12611TIP3   OH259323   4.829   5.164  11.751  0.1954  0.0494 -0.3052
12611TIP3    H159324   4.880   5.174  11.671  0.4820  0.4364 -0.0783
12611TIP3    H259325   4.825   5.070  11.766 -0.6285 -0.0873 -1.2611
12612TIP3   OH259326   2.171   6.099  17.070  0.4147 -0.0413 -0.1382
12612TIP3    H159327   2.179   6.179  17.122  1.0137 -0.2956  0.1728
12612TIP3    H259328   2.211   6.031  17.125 -1.1822 -0.8111  0.1386
12613TIP3   OH259329   1.642   5.691  16.476  0.2018 -0.5358  0.1234
12613TIP3    H159330   1.632   5.696  16.571 -0.3905  1.3002  0.0161
12613TIP3    H259331   1.651   5.783  16.449 -1.9341 -0.8161 -1.8153
12614TIP3   OH259332   6.067   2.907  16.516  0.2007  0.1279 -0.1586
12614TIP3    H159333   5.993   2.938  16.464  0.4780 -0.3232 -0.8298
12614TIP3    H259334   6.122   2.985  16.527 -0.3072  0.4351  0.2349
12615TIP3   OH259335   5.422   3.322   0.764 -0.4491  0.2767  0.2729
12615TIP3    H159336   5.395   3.273   0.842 -1.8018 -0.5954 -0.6967
12615TIP3    H259337   5.360   3.395   0.759 -0.3036  0.3856  0.0680
12616TIP3   OH259338   6.386   6.622   2.606  0.3421 -0.8950  0.1028
12616TIP3    H159339   6.378   6.533   2.572  0.6234 -1.7128  2.0461
12616TIP3    H259340   6.296   6.654   2.611  0.3791  0.0622 -3.2338
12617TIP3   OH259341   5.143   5.899   0.387 -0.4500  0.5388 -0.1257
12617TIP3    H159342   5.078   5.935   0.448 -0.2422  0.4414  0.1578
12617TIP3    H259343   5.173   5.819   0.430 -1.6878 -0.5769 -1.2418
12618TIP3   OH259344   3.080   6.455  16.666  0.2708  0.2528  0.6730
12618TIP3    H159345   3.162   6.411  16.645  0.2358 -1.4930  3.6548
12618TIP3    H259346   3.013   6.405  16.620  0.4646 -1.5491  2.2360
12619TIP3   OH259347   1.222   6.176   0.236 -0.1279  0.4457 -0.5196
12619TIP3    H159348   1.177   6.092   0.234  2.5066 -1.1658  1.6110
12619TIP3    H259349   1.315   6.154   0.233  0.6696  3.2460  0.3455
12620TIP3   OH259350   4.271   3.625   4.293  0.0004  0.2894 -0.1391
12620TIP3    H159351   4.315   3.710   4.281  1.8605 -0.6640 -0.5197
12620TIP3    H259352   4.291   3.602   4.384  0.1049 -0.0461 -0.2469
12621TIP3   OH259353   4.789   2.474   0.593  0.6429 -0.8418  0.4906
12621TIP3    H159354   4.832   2.496   0.675 -0.9205 -1.9779  1.6670
12621TIP3    H259355   4.757   2.558   0.559  0.5711 -0.4658  1.4694
12622TIP3   OH259356   5.879   0.983  15.351  0.2830  0.3156  0.4447
12622TIP3    H159357   5.904   0.924  15.280  1.0917  0.9600  0.1801
12622TIP3    H259358   5.958   0.989  15.405 -0.0629  0.4917  0.9365
12623TIP3   OH259359   1.247   0.175   1.307 -0.1645 -0.3374  0.1652
12623TIP3    H159360   1.341   0.167   1.322  0.0409 -0.2320 -0.9572
12623TIP3    H259361   1.221   0.089   1.272 -0.5893 -0.5404  0.9725
12624TIP3   OH259362   0.573   2.712   0.490 -0.5463 -0.3960 -0.2935
12624TIP3    H159363   0.555   2.772   0.418 -0.9174 -0.9162 -0.6349
12624TIP3    H259364   0.626   2.642   0.451  0.0449 -0.2083  0.1410
12625TIP3   OH259365   5.938   5.876  13.804 -0.0580 -0.0653  0.1769
12625TIP3    H159366   6.025   5.841  13.785 -0.1529  0.3809 -1.1403
12625TIP3    H259367   5.902   5.815  13.868  0.4787 -1.3585 -0.7095
12626TIP3   OH259368   1.268   6.058  14.325 -0.3554 -0.2611  0.7557
12626TIP3    H159369   1.268   5.971  14.285  2.5746  0.7817 -1.9517
12626TIP3    H259370   1.347   6.060  14.378 -1.5680  0.1016  2.6405
12627TIP3   OH259371   4.448   0.165  13.592  0.1189  0.0170 -0.0906
12627TIP3    H159372   4.368   0.182  13.641  0.0327  1.0804 -0.5827
12627TIP3    H259373   4.511   0.137  13.659  0.1583  1.9722  0.7386
12628TIP3   OH259374   1.311   2.788  10.768 -0.2377 -0.0014 -0.8172
12628TIP3    H159375   1.376   2.764  10.702  0.6240  1.6981 -0.6274
12628TIP3    H259376   1.234   2.736  10.745  0.5930 -0.7051 -2.1337
12629TIP3   OH259377   1.344   2.629   4.433  0.6277  0.3406  0.3237
12629TIP3    H159378   1.413   2.581   4.478 -0.6381 -1.3144  0.5955
12629TIP3    H259379   1.303   2.564   4.376 -0.4444  1.3850 -0.1363
12630TIP3   OH259380   3.201   3.785   2.161 -0.0379  0.0010 -0.8966
12630TIP3    H159381   3.127   3.750   2.112  0.1129  1.4840 -2.2651
12630TIP3    H259382   3.279   3.752   2.116  0.2475 -2.4173  1.1518
12631TIP3   OH259383   2.802   0.280  14.188  0.3819 -0.3985 -0.0482
12631TIP3    H159384   2.715   0.260  14.222  0.4372  0.6352  0.7437
12631TIP3    H259385   2.852   0.199  14.202 -0.2058 -0.6984  0.3256
12632TIP3   OH259386   5.717   6.028  13.716 -0.1691  0.3875 -0.1160
12632TIP3    H159387   5.663   5.952  13.693  0.6151 -0.1921 -0.1116
12632TIP3    H259388   5.794   5.990  13.758 -0.6349  1.3044  1.6797
12633TIP3   OH259389   1.741   2.460  12.432 -0.6534 -0.7913 -0.1165
12633TIP3    H159390   1.784   2.400  12.493 -0.0527 -0.0795  0.1707
12633TIP3    H259391   1.695   2.523  12.487 -0.1404 -0.1674 -0.3790
12634TIP3   OH259392   5.586   6.756  14.573 -0.4421 -0.1155  0.2498
12634TIP3    H159393   5.548   6.794  14.494 -2.1159 -0.6075  0.7659
12634TIP3    H259394   5.559   6.816  14.643 -0.6218 -0.6941  0.6813
12635TIP3   OH259395   6.726   6.765   0.150  0.7047  0.1448  0.1778
12635TIP3    H159396   6.712   6.836   0.087 -0.2330  0.5493  0.8217
12635TIP3    H259397   6.638   6.739   0.177  1.0906  0.7107  2.1210
12636TIP3   OH259398   3.945   2.453  10.446 -0.0456  0.2376  0.2107
12636TIP3    H159399   3.910   2.382  10.392  0.2572 -0.7075  1.2258
12636TIP3    H259400   3.877   2.520  10.444 -0.5322 -0.2631 -0.4017
12637TIP3   OH259401   6.564   3.086   2.805  0.2893  0.4122  0.2261
12637TIP3    H159402   6.525   3.063   2.889  1.0295  0.9656  0.7397
12637TIP3    H259403   6.656   3.062   2.814  0.7273  1.9582  0.1777
12638TIP3   OH259404   3.470   0.219   5.285 -0.4610 -0.2732  0.2036
12638TIP3    H159405   3.399   0.169   5.325 -0.4091  0.2315  0.9374
12638TIP3    H259406   3.511   0.266   5.358  1.4831 -1.5711  0.0428
12639TIP3   OH259407   2.737   0.859   2.996  0.1517 -0.4088 -0.2074
12639TIP3    H159408   2.712   0.925   2.931 -0.3854 -1.4076 -1.0475
12639TIP3    H259409   2.730   0.904   3.080 -1.9298  0.1310 -0.6202
12640TIP3   OH259410   6.079   1.591   3.539 -0.0333  0.2320 -0.1927
12640TIP3    H159411   5.988   1.565   3.521 -0.2015  0.9211 -0.3442
12640TIP3    H259412   6.125   1.572   3.457 -0.4822  1.8832 -0.8637
12641TIP3   OH259413   0.363   6.662   4.449  0.1899  0.0144 -0.2281
12641TIP3    H159414   0.417   6.678   4.526 -1.3301  1.3374  0.6298
12641TIP3    H259415   0.371   6.742   4.397  0.5863 -0.5578 -1.0549
12642TIP3   OH259416   6.818   5.985  14.197 -0.9338 -0.0606  0.3071
12642TIP3    H159417   6.777   5.997  14.283  1.4263  0.1082  1.4785
12642TIP3    H259418   6.893   6.044  14.198 -0.0910 -1.0448 -1.3614
12643TIP3   OH259419   5.879   1.771   0.467 -0.0024  0.1608 -0.9892
12643TIP3    H159420   5.941   1.772   0.394 -0.5295 -0.6110 -1.4589
12643TIP3    H259421   5.929   1.734   0.540 -0.5796 -2.9705 -2.0323
12644TIP3   OH259422   4.990   6.232   3.480 -0.3687 -0.1235 -0.6081
12644TIP3    H159423   5.000   6.140   3.505 -0.0999 -0.2344 -1.1109
12644TIP3    H259424   5.003   6.280   3.561  0.9490 -0.4516 -0.6004
12645TIP3   OH259425   5.030   4.848   1.984  0.0267 -0.2154 -0.1207
12645TIP3    H159426   4.938   4.826   1.976  0.2149 -2.2123  1.9553
12645TIP3    H259427   5.033   4.943   1.977 -1.9939 -0.2021 -1.5023
12646TIP3   OH259428   0.938   4.468   5.262  0.4646 -0.2088  0.3207
12646TIP3    H159429   0.846   4.445   5.250  0.5938  0.1950 -1.7916
12646TIP3    H259430   0.936   4.550   5.312 -0.3632  0.1732 -0.3123
12647TIP3   OH259431   1.706   2.593  14.545  0.0409  0.2896 -0.1641
12647TIP3    H159432   1.614   2.619  14.554  0.5254  1.7345  1.0094
12647TIP3    H259433   1.722   2.537  14.621  0.3461  0.7826  0.1439
12648TIP3   OH259434   6.315   5.348  13.055 -0.0889 -0.0410  0.0846
12648TIP3    H159435   6.389   5.332  12.997  1.2633  0.0925  1.6835
12648TIP3    H259436   6.303   5.444  13.054 -0.0590 -0.0376  0.0426
12649TIP3   OH259437   4.868   5.386  13.633  0.0211 -0.1629  0.6732
12649TIP3    H159438   4.914   5.445  13.573 -0.7044  0.0785  0.3316
12649TIP3    H259439   4.777   5.417  13.631 -0.3516 -1.2138  0.5800
12650TIP3   OH259440   0.831   6.680   1.513  0.4393 -0.6935  0.0414
12650TIP3    H159441   0.884   6.672   1.433 -0.7082  0.5196 -0.8806
12650TIP3    H259442   0.787   6.595   1.520  0.5211 -0.8054 -0.6415
12651TIP3   OH259443   5.217   4.840   4.216  0.1734  0.0714  0.0615
12651TIP3    H159444   5.302   4.797   4.231 -0.1013 -0.5298 -0.0633
12651TIP3    H259445   5.172   4.781   4.155 -0.5837  0.0664  0.6156
12652TIP3   OH259446   2.546   5.652   4.824  0.2767 -0.1264  0.5111
12652TIP3    H159447   2.539   5.586   4.893 -0.3132 -0.0903  0.4921
12652TIP3    H259448   2.635   5.642   4.790  0.2526 -0.7869  0.6321
12653TIP3   OH259449   4.541   5.688  11.756 -0.0490 -0.1113 -0.5695
12653TIP3    H159450   4.461   5.738  11.772  0.7342  0.8270  0.6904
12653TIP3    H259451   4.593   5.702  11.835  1.2609 -0.8943 -1.2633
12654TIP3   OH259452   0.507   5.505  14.328  0.7523 -0.1646 -0.4849
12654TIP3    H159453   0.413   5.487  14.328  0.1380  2.3093 -3.1437
12654TIP3    H259454   0.516   5.588  14.375  1.6533 -0.4814 -0.0717
12655TIP3   OH259455   5.818   3.154  13.397  0.3493  0.0849 -0.1591
12655TIP3    H159456   5.763   3.125  13.470  1.6577  0.0362  0.8539
12655TIP3    H259457   5.813   3.250  13.400  1.3563  0.1282  0.7999
12656TIP3   OH259458   0.329   4.424  16.747 -0.2795  0.4569 -0.4964
12656TIP3    H159459   0.261   4.458  16.690 -0.2987 -0.6769 -1.1769
12656TIP3    H259460   0.298   4.442  16.836  0.0463  2.8150 -0.7977
12657TIP3   OH259461   2.136   4.742  16.372 -0.1205 -0.7968 -0.1741
12657TIP3    H159462   2.124   4.737  16.277 -1.5109 -1.5555  0.0275
12657TIP3    H259463   2.117   4.654  16.403  1.1643 -0.7835  0.7490
12658TIP3   OH259464   3.805   0.043   2.046  0.1261 -0.6019 -0.0135
12658TIP3    H159465   3.790  -0.022   2.115 -0.5129 -1.7841 -1.2385
12658TIP3    H259466   3.750   0.014   1.973 -2.7461  2.9967  0.4071
12659TIP3   OH259467   3.579   5.329  16.103  0.0529  0.1049  0.1354
12659TIP3    H159468   3.640   5.255  16.099 -0.6223 -0.4038 -3.3690
12659TIP3    H259469   3.533   5.328  16.019 -1.6645  3.1448  0.8775
12660TIP3   OH259470   2.663   0.378   3.992  0.0647 -0.2057 -0.7547
12660TIP3    H159471   2.739   0.436   3.992 -1.3087  1.6991  0.0599
12660TIP3    H259472   2.696   0.294   4.024  1.9168  0.3913 -0.9981
12661TIP3   OH259473   3.461   3.101  13.150  0.1826 -0.3341  0.2531
12661TIP3    H159474   3.370   3.093  13.180 -1.2103 -1.3887 -3.6139
12661TIP3    H259475   3.475   3.022  13.097  2.4891  1.0121 -1.2905
12662TIP3   OH259476   3.496   4.706   3.006 -0.2151 -0.0037 -0.0500
12662TIP3    H159477   3.491   4.741   3.095 -1.0774 -0.8827  0.2630
12662TIP3    H259478   3.452   4.621   3.011  0.0743 -0.2378 -1.2321
12663TIP3   OH259479   5.944   5.710   6.629 -0.6305  0.1220 -0.2357
12663TIP3    H159480   6.014   5.775   6.613  0.6933 -0.9768  0.8363
12663TIP3    H259481   5.931   5.668   6.544  1.3848 -0.9308 -0.0801
12664TIP3   OH259482   6.389   5.508  12.056 -0.4657 -0.4238 -0.5569
12664TIP3    H159483   6.300   5.492  12.025 -0.7760  0.0734  0.0408
12664TIP3    H259484   6.413   5.428  12.103 -0.7763 -0.3879 -0.3310
12665TIP3   OH259485   1.203   3.813   3.535 -0.7271  0.0034 -0.5167
12665TIP3    H159486   1.171   3.750   3.599 -0.2858 -0.3900 -0.6890
12665TIP3    H259487   1.282   3.849   3.573 -1.0480  0.5590 -0.3572
12666TIP3   OH259488   1.181   2.661  17.204  0.7466  0.5368 -0.4532
12666TIP3    H159489   1.274   2.665  17.184  0.2594  2.6359 -2.6611
12666TIP3    H259490   1.173   2.584  17.261  3.4469 -1.2573 -2.2129
12667TIP3   OH259491   3.408   3.277   1.318  0.0101 -0.4831 -0.5815
12667TIP3    H159492   3.469   3.334   1.270  1.1718 -1.1844  0.0174
12667TIP3    H259493   3.392   3.203   1.259  1.3359 -1.2812  0.0223
12668TIP3   OH259494   3.661   5.278  15.651 -0.7351 -0.5886 -0.3309
12668TIP3    H159495   3.580   5.295  15.699 -0.7914 -0.7449 -0.3727
12668TIP3    H259496   3.644   5.198  15.602 -0.2155 -1.1946  0.4520
12669TIP3   OH259497   2.515   1.988   1.788 -0.8565 -0.4350 -0.2804
12669TIP3    H159498   2.443   2.016   1.732  0.1927 -0.7363 -1.8647
12669TIP3    H259499   2.523   1.894   1.772 -1.3271 -0.7689  1.3589
12670TIP3   OH259500   1.803   5.812  15.413  0.7337 -0.0194 -0.4275
12670TIP3    H159501   1.760   5.849  15.491  0.9160 -0.3480 -0.1703
12670TIP3    H259502   1.896   5.827  15.428  0.9631 -2.0314  0.4564
12671TIP3   OH259503   4.369   5.777  14.037 -0.3156  0.0165 -0.5221
12671TIP3    H159504   4.278   5.750  14.024 -0.8412  1.6137 -0.3765
12671TIP3    H259505   4.371   5.869  14.011  0.5283  0.9223  2.3695
12672TIP3   OH259506   0.008   2.448   0.288 -0.8840  0.0452  0.0008
12672TIP3    H159507  -0.039   2.474   0.208 -0.9615  1.2588  0.4159
12672TIP3    H259508  -0.039   2.493   0.358 -0.7631 -0.9486  0.7275
12673TIP3   OH259509   5.608   6.293  12.922  0.0239 -1.0490 -0.0524
12673TIP3    H159510   5.604   6.230  12.994  2.5065 -2.0684 -0.6976
12673TIP3    H259511   5.557   6.253  12.852  1.4614 -2.3920 -0.4096
12674TIP3   OH259512   3.682   2.417   5.572 -0.1918 -0.0678 -0.4487
12674TIP3    H159513   3.642   2.391   5.655  0.8155  0.6440  0.2780
12674TIP3    H259514   3.641   2.359   5.507 -1.4402 -0.2310  0.4376
12675TIP3   OH259515   3.864   4.091   6.534  1.6568 -0.6197  0.3513
12675TIP3    H159516   3.834   4.000   6.537  1.4957 -0.6469 -1.2556
12675TIP3    H259517   3.946   4.087   6.486 -0.0802  0.4113 -3.0645
12676TIP3   OH259518   2.578   1.691   0.723  0.3029  0.6554  0.5806
12676TIP3    H159519   2.647   1.701   0.657  1.6201  0.0430  1.8007
12676TIP3    H259520   2.625   1.674   0.804 -1.3129 -3.1664  0.9068
12677TIP3   OH259521   5.341   0.773   2.086  0.0979 -0.1826  0.0514
12677TIP3    H159522   5.386   0.762   2.002  1.9026 -1.2991  1.0861
12677TIP3    H259523   5.327   0.683   2.117 -1.0535  0.2052  0.6927
12678TIP3   OH259524   2.332   6.173   6.055 -0.0725  0.3766  0.3550
12678TIP3    H159525   2.252   6.175   6.003  1.1732 -0.3498 -1.7001
12678TIP3    H259526   2.360   6.081   6.053  1.3854  0.7992  0.1019
12679TIP3   OH259527   0.934   0.029  10.813  0.1193 -0.1377  0.1179
12679TIP3    H159528   0.889   0.008  10.732 -1.3729  1.0229  0.6016
12679TIP3    H259529   0.911  -0.041  10.874  0.2799 -0.3888 -0.1128
12680TIP3   OH259530   3.931   4.125   4.837 -0.0921 -0.5189 -0.0006
12680TIP3    H159531   3.992   4.198   4.823  1.6684 -2.0088 -0.5037
12680TIP3    H259532   3.965   4.055   4.781 -1.3329 -1.9477  0.9815
12681TIP3   OH259533   5.020   0.003   4.731  0.6129  0.0257  0.6441
12681TIP3    H159534   5.002  -0.082   4.770 -1.1343 -0.8461 -1.8163
12681TIP3    H259535   4.952   0.014   4.665  2.4878  2.0237 -1.1175
12682TIP3   OH259536   4.676   4.306   4.576  0.2171 -0.3179 -0.4969
12682TIP3    H159537   4.769   4.301   4.552 -0.2772 -0.6083 -2.5598
12682TIP3    H259538   4.650   4.215   4.588  0.2433 -0.2219  0.3389
12683TIP3   OH259539   6.045   0.113   2.859  0.4952 -0.0755 -0.4493
12683TIP3    H159540   6.005   0.100   2.945 -1.3461  1.6793 -0.9503
12683TIP3    H259541   6.069   0.025   2.830 -1.8042 -1.1083  0.5146
12684TIP3   OH259542   1.084   2.549  12.271  0.1701  0.0669 -0.3779
12684TIP3    H159543   1.151   2.610  12.241  1.3521 -0.6758  0.6261
12684TIP3    H259544   1.103   2.468  12.223  0.3847 -0.3237  0.3530
12685TIP3   OH259545   1.500   3.803   4.305  0.3478  0.4979  0.4378
12685TIP3    H159546   1.447   3.881   4.324 -0.4788 -0.6999  3.6190
12685TIP3    H259547   1.458   3.732   4.354  2.6150 -1.3879 -0.1515
12686TIP3   OH259548   1.514   4.992  14.004  0.2497  0.5444 -0.6984
12686TIP3    H159549   1.484   5.067  14.054  0.3663 -0.9231  1.7209
12686TIP3    H259550   1.604   4.977  14.034 -0.2057 -1.3173 -0.0976
12687TIP3   OH259551   2.424   1.660  14.553  0.0808 -0.3260  0.1609
12687TIP3    H159552   2.469   1.657  14.468  1.2260  0.6003  0.7032
12687TIP3    H259553   2.436   1.573  14.589 -1.3623 -1.0859 -1.0657
12688TIP3   OH259554   2.375   5.370  11.275  0.1116 -0.2851 -0.1428
12688TIP3    H159555   2.458   5.353  11.319 -0.2696 -0.8911  0.3672
12688TIP3    H259556   2.315   5.306  11.314 -0.1143 -1.2135 -1.9078
12689TIP3   OH259557   1.287   6.182  15.295  0.1924  0.1971 -0.7214
12689TIP3    H159558   1.221   6.243  15.328 -1.0955 -1.2560 -0.4992
12689TIP3    H259559   1.297   6.117  15.364  1.8699  0.3656 -0.7657
12690TIP3   OH259560   3.337   5.558   2.239 -0.5429 -0.3284  0.3186
12690TIP3    H159561   3.272   5.598   2.182  0.6542 -0.4748 -1.2127
12690TIP3    H259562   3.418   5.607   2.223  0.1917 -1.3501  0.7388
12691TIP3   OH259563   4.785   6.721   1.624  0.3714 -0.1447 -0.0549
12691TIP3    H159564   4.697   6.685   1.613  0.7487 -1.0160 -0.2530
12691TIP3    H259565   4.837   6.648   1.658  0.9107  0.4972  0.5262
12692TIP3   OH259566   4.561   5.681  12.469  0.4407 -0.0066 -0.5016
12692TIP3    H159567   4.465   5.682  12.470  0.4042 -1.0916  1.2002
12692TIP3    H259568   4.586   5.725  12.550  1.3580 -0.5460 -0.4828
12693TIP3   OH259569   2.511   2.150   3.629  1.1645  0.4055  0.0734
12693TIP3    H159570   2.429   2.125   3.586  0.1955  0.2640  1.8978
12693TIP3    H259571   2.554   2.067   3.649  1.5943  0.4688 -0.5844
12694TIP3   OH259572   6.624   5.173   1.486  0.2856  0.7675 -0.4502
12694TIP3    H159573   6.716   5.163   1.510 -0.1105 -0.9126  0.4856
12694TIP3    H259574   6.589   5.234   1.551  0.6700  1.2515 -0.6856
12695TIP3   OH259575   3.786   5.731   3.114  0.1126 -0.2096 -0.0331
12695TIP3    H159576   3.729   5.680   3.056 -0.3937  0.2653  0.0448
12695TIP3    H259577   3.737   5.810   3.133  0.9118  0.3269 -0.1634
12696TIP3   OH259578   0.003   2.394  17.194 -0.2446  0.6568  0.3104
12696TIP3    H159579  -0.086   2.426  17.202 -1.8998 -2.3935 -3.0712
12696TIP3    H259580   0.011   2.327  17.262 -0.0238  1.7756  1.4176
12697TIP3   OH259581   0.660   5.166  16.516 -0.0093 -0.4700  0.3181
12697TIP3    H159582   0.674   5.074  16.495 -0.2914 -0.6737  1.0071
12697TIP3    H259583   0.649   5.209  16.430  0.1742 -1.0616 -0.0058
12698TIP3   OH259584   2.272   6.556   3.933  0.1584  0.4747  0.1130
12698TIP3    H159585   2.188   6.554   3.886 -1.0198 -0.0030  2.1233
12698TIP3    H259586   2.251   6.595   4.017  1.3812 -2.0345  1.6845
12699TIP3   OH259587   1.241   4.129  16.585 -0.4051  0.3854  0.5388
12699TIP3    H159588   1.223   4.039  16.612  1.6930  0.1373  1.3079
12699TIP3    H259589   1.273   4.122  16.495  0.7992  0.2022  0.9637
12700TIP3   OH259590   5.245   3.485   1.507  0.0445  0.1449  0.0915
12700TIP3    H159591   5.196   3.418   1.554 -2.0653  0.7850 -1.0449
12700TIP3    H259592   5.264   3.445   1.422 -0.3689  0.6258 -0.2335
12701TIP3   OH259593   1.029   1.295   3.969  0.6113  0.3533  0.3170
12701TIP3    H159594   0.946   1.290   4.016  0.8057  1.3666  0.8100
12701TIP3    H259595   1.083   1.226   4.007 -0.1538 -0.6196 -0.3379
12702TIP3   OH259596   4.826   1.773   2.689 -0.4870  0.1010  0.0255
12702TIP3    H159597   4.875   1.809   2.614 -1.4857  0.4582 -0.4691
12702TIP3    H259598   4.821   1.679   2.672  1.1320 -0.1566  0.7416
12703TIP3   OH259599   3.609   6.559  11.686 -0.0232 -0.1456  0.0867
12703TIP3    H159600   3.517   6.578  11.705  0.3460  2.6252 -0.3581
12703TIP3    H259601   3.645   6.528  11.769 -0.9637  0.6193  0.8093
12704TIP3   OH259602   4.240   3.316   3.384  0.2778  0.0300  0.1233
12704TIP3    H159603   4.243   3.236   3.436  1.0057  0.1419  0.2662
12704TIP3    H259604   4.158   3.311   3.336  0.5549 -1.0492 -0.2636
12705TIP3   OH259605   0.779   4.905   4.720 -0.0523 -0.0106 -0.4188
12705TIP3    H159606   0.792   4.811   4.723  0.1161  0.0252  0.0099
12705TIP3    H259607   0.867   4.942   4.711  0.0077  0.1556  0.7295
12706TIP3   OH259608   0.821   3.773  16.544 -0.3061 -0.0588 -0.1257
12706TIP3    H159609   0.753   3.712  16.573 -0.4341  0.7105  1.2852
12706TIP3    H259610   0.871   3.793  16.623 -1.1543  2.7659 -0.1727
12707TIP3   OH259611   3.887   3.199   5.373  0.1310 -0.0000  0.4025
12707TIP3    H159612   3.879   3.275   5.431  1.1722  0.5497 -0.1364
12707TIP3    H259613   3.818   3.211   5.308 -0.2333  0.0441  0.7915
12708TIP3   OH259614   0.293   6.796  13.082 -0.3415 -0.0079  0.0321
12708TIP3    H159615   0.220   6.848  13.047  0.4754  2.9950  2.3765
12708TIP3    H259616   0.366   6.816  13.024 -0.0902  1.3846  0.7928
12709TIP3   OH259617   2.963   0.643   2.109 -0.0193  0.2941  0.2628
12709TIP3    H159618   2.948   0.550   2.124 -2.8438  0.8480  1.7217
12709TIP3    H259619   2.884   0.672   2.062  0.9788  1.8963 -0.5066
12710TIP3   OH259620   5.150   5.636   3.357 -0.2914 -0.2061 -0.5090
12710TIP3    H159621   5.094   5.595   3.422  0.0029  3.3387  2.3110
12710TIP3    H259622   5.238   5.632   3.395  0.4002 -0.4090 -2.0312
12711TIP3   OH259623   4.790   1.037  10.596  0.1900 -0.4568  0.2815
12711TIP3    H159624   4.817   1.001  10.511  0.3787  2.3034 -0.9392
12711TIP3    H259625   4.838   0.985  10.660  0.8221 -1.9816 -1.3388
12712TIP3   OH259626   4.461   4.703  16.297 -0.4892 -0.1216 -0.7892
12712TIP3    H159627   4.469   4.750  16.214 -1.3855 -0.6010 -1.1683
12712TIP3    H259628   4.376   4.659  16.291 -0.9149  0.4375  0.6951
12713TIP3   OH259629   5.007   4.804  14.186 -0.4028  0.1753 -0.1649
12713TIP3    H159630   4.984   4.821  14.094  1.7553 -0.8699 -0.9605
12713TIP3    H259631   4.988   4.886  14.231 -1.2235  0.8114 -1.5810
12714TIP3   OH259632   5.351   0.751   2.479  0.1751  0.0559  0.0393
12714TIP3    H159633   5.290   0.794   2.538  0.4966  0.4830  0.0637
12714TIP3    H259634   5.304   0.673   2.448 -0.6966  0.8185 -0.5939
12715TIP3   OH259635   2.934   0.865  12.735 -0.8028 -0.3257 -1.0015
12715TIP3    H159636   2.956   0.954  12.763 -0.2291 -0.4399 -1.0856
12715TIP3    H259637   2.845   0.851  12.769 -0.1997 -0.4048  0.6441
12716TIP3   OH259638   5.535   1.259  14.840 -0.5574  0.4919  0.1837
12716TIP3    H159639   5.491   1.217  14.914  0.9394  0.9498  1.3828
12716TIP3    H259640   5.533   1.193  14.771 -1.3606 -0.2235  0.8637
12717TIP3   OH259641   3.853   2.954  14.818 -0.1412 -0.2122  0.0704
12717TIP3    H159642   3.806   2.937  14.899  1.4920 -1.6384  0.7769
12717TIP3    H259643   3.796   2.920  14.749 -0.3093 -1.6101  0.8673
12718TIP3   OH259644   2.939   3.680   2.032 -0.0340  0.3278 -0.2507
12718TIP3    H159645   2.935   3.595   2.076  0.5627 -0.0455 -0.9053
12718TIP3    H259646   2.851   3.716   2.042 -0.2066 -0.2241  0.3006
12719TIP3   OH259647   4.608   6.229  15.290  0.9199  0.3304  0.5091
12719TIP3    H159648   4.513   6.224  15.288  0.9261  0.4077 -0.0971
12719TIP3    H259649   4.631   6.218  15.383  0.2749  1.3770  0.8060
12720TIP3   OH259650   1.422   2.532   0.730  0.5111  0.8197 -0.6993
12720TIP3    H159651   1.327   2.540   0.727  0.5308  1.5098  0.2141
12720TIP3    H259652   1.439   2.442   0.701 -0.4531  0.4736 -0.2310
12721TIP3   OH259653   1.460   1.221  11.668  0.2434  0.4178  0.0865
12721TIP3    H159654   1.413   1.149  11.626  1.8458 -1.4641  1.3384
12721TIP3    H259655   1.400   1.250  11.737  0.3877 -1.2128  0.9643
12722TIP3   OH259656   6.462   6.469   5.239  0.1581  0.1172  0.5122
12722TIP3    H159657   6.431   6.442   5.325  0.2089  0.4322  0.6312
12722TIP3    H259658   6.541   6.416   5.225  0.1476  0.0617  0.6569
12723TIP3   OH259659   3.279   5.603  11.667  0.1235 -0.1962  0.4408
12723TIP3    H159660   3.296   5.640  11.754  1.2934 -0.9622  0.5665
12723TIP3    H259661   3.245   5.676  11.616  0.0008  0.4174  1.3640
12724TIP3   OH259662   0.096   5.448   5.483 -0.0492  0.1690 -0.0939
12724TIP3    H159663   0.026   5.456   5.548  2.3223  0.4265  2.6649
12724TIP3    H259664   0.116   5.354   5.483  0.4808  0.2781  0.1834
12725TIP3   OH259665   3.149   5.222   5.375  0.0026 -0.3135  0.0335
12725TIP3    H159666   3.129   5.259   5.289 -0.0806 -1.1816 -0.3344
12725TIP3    H259667   3.237   5.184   5.365 -0.4302 -1.3416  0.0078
12726TIP3   OH259668   0.494   1.704  14.792  0.4577  0.0116  0.6767
12726TIP3    H159669   0.532   1.617  14.786  1.1596  0.4114 -1.0553
12726TIP3    H259670   0.562   1.758  14.833  0.7720  0.1552 -0.0234
12727TIP3   OH259671   5.240   1.300  11.447 -0.1957 -0.0383  0.3760
12727TIP3    H159672   5.206   1.220  11.487 -3.1082 -0.4177 -2.4546
12727TIP3    H259673   5.326   1.276  11.414 -0.0899 -1.2963  1.4568
12728TIP3   OH259674   1.626   0.680  11.552  0.1773 -0.4551  0.0472
12728TIP3    H159675   1.676   0.684  11.633  0.8066  1.3366 -0.3911
12728TIP3    H259676   1.578   0.597  11.557 -1.6958  0.6409  3.3592
12729TIP3   OH259677   0.024   4.660  11.939 -0.1178  0.3694 -0.5043
12729TIP3    H159678   0.064   4.678  12.024 -0.0302  0.7983 -0.6331
12729TIP3    H259679   0.086   4.603  11.895 -1.3172 -2.0135  0.6907
12730TIP3   OH259680   5.434   0.804   5.273 -0.0455 -0.2173  0.6291
12730TIP3    H159681   5.394   0.725   5.237  0.2238 -0.4050  0.7424
12730TIP3    H259682   5.460   0.854   5.196 -2.0258  0.7166  0.4951
12731TIP3   OH259683   4.765   4.293  16.181  0.4464  0.2696  0.1523
12731TIP3    H159684   4.833   4.226  16.171  0.0859 -0.4437  2.0816
12731TIP3    H259685   4.812   4.368  16.218  0.2011 -0.3149  1.7438
12732TIP3   OH259686   4.589   0.393   5.740 -0.0685  0.0284 -0.1284
12732TIP3    H159687   4.626   0.327   5.798 -1.3159  1.1317  2.0244
12732TIP3    H259688   4.666   0.430   5.695  0.8263 -1.5485  0.0295
12733TIP3   OH259689   2.247   1.114   0.477 -0.5006 -0.1141  0.3202
12733TIP3    H159690   2.315   1.173   0.446  0.8449 -1.1368  1.2176
12733TIP3    H259691   2.166   1.149   0.440  0.3128  1.9792  0.4060
12734TIP3   OH259692   5.789   1.515  13.369  0.1488  0.6490 -0.2082
12734TIP3    H159693   5.835   1.500  13.452 -0.9240 -2.1811 -0.0381
12734TIP3    H259694   5.824   1.448  13.310 -0.9887  0.9416 -1.2422
12735TIP3   OH259695   4.872   2.877   0.880 -0.3683 -0.4876  0.6724
12735TIP3    H159696   4.961   2.898   0.908  0.0349 -1.1267 -0.0759
12735TIP3    H259697   4.881   2.794   0.832 -1.0072  0.5126 -1.2716
12736TIP3   OH259698   5.933   5.243  12.320 -0.1487 -0.0484 -0.3903
12736TIP3    H159699   5.937   5.326  12.274  0.7656 -0.2898 -0.7637
12736TIP3    H259700   5.933   5.176  12.251  2.6780 -0.4696 -0.1296
12737TIP3   OH259701   4.963   5.768  15.903  0.1468  0.3334  0.4361
12737TIP3    H159702   4.942   5.677  15.923 -2.3647  0.7666  0.1504
12737TIP3    H259703   4.971   5.770  15.807 -2.6292  0.8273  0.1340
12738TIP3   OH259704   0.431   6.315   0.910  0.1020  0.5984  0.2410
12738TIP3    H159705   0.523   6.291   0.921 -0.3408 -0.8723  1.0362
12738TIP3    H259706   0.433   6.400   0.866  1.8247  0.3257 -0.2725
12739TIP3   OH259707   1.758   6.826   6.186 -0.3052  0.4416  0.3689
12739TIP3    H159708   1.761   6.908   6.236 -0.3768  0.6840 -0.0208
12739TIP3    H259709   1.671   6.790   6.205 -0.0766  0.1876  0.9583
12740TIP3   OH259710   5.791   0.087  13.821  0.7780 -0.9954 -0.0235
12740TIP3    H159711   5.781  -0.001  13.786  0.8433 -1.2129  0.4923
12740TIP3    H259712   5.886   0.099  13.828  0.7602 -1.0380  0.2889
12741TIP3   OH259713   6.092   5.222  12.698 -0.4298 -0.2911  1.0624
12741TIP3    H159714   6.003   5.239  12.727 -0.6430  0.0955  0.2125
12741TIP3    H259715   6.108   5.287  12.629 -0.2101 -1.6287 -0.1989
12742TIP3   OH259716   6.449   3.907   2.281 -0.1037 -0.0220  0.4599
12742TIP3    H159717   6.477   3.974   2.218 -0.3085  0.2100  0.6138
12742TIP3    H259718   6.373   3.945   2.323  0.3260  0.0284  1.2021
12743TIP3   OH259719   2.493   0.113   5.603  1.2840  0.3423 -0.0039
12743TIP3    H159720   2.483   0.066   5.521  0.5915  0.9817 -0.2952
12743TIP3    H259721   2.588   0.129   5.610  1.5686 -1.3271  0.2562
12744TIP3   OH259722   1.261   3.077   0.894 -0.3756  0.3569 -0.4332
12744TIP3    H159723   1.270   2.983   0.875  0.9891  0.6994 -1.6273
12744TIP3    H259724   1.197   3.108   0.830  0.3706  0.5300 -1.1079
12745TIP3   OH259725   3.840   0.617   6.148  0.5733 -0.7228 -0.0504
12745TIP3    H159726   3.935   0.625   6.154  0.5504 -0.0700 -0.4777
12745TIP3    H259727   3.815   0.567   6.226  1.0754  0.6885  1.0587
12746TIP3   OH259728   1.706   3.920  16.904 -0.3785  0.3761  0.5806
12746TIP3    H159729   1.788   3.936  16.950  0.9954  1.3114 -2.0269
12746TIP3    H259730   1.692   3.826  16.911  1.4557  0.0584  0.2398
12747TIP3   OH259731   1.155   5.054  14.281 -0.0558 -0.1284 -0.2373
12747TIP3    H159732   1.083   5.001  14.247 -2.1275  2.3006  0.1206
12747TIP3    H259733   1.191   5.098  14.204  0.1332 -0.2775 -0.2346
12748TIP3   OH259734   3.664   2.944   3.359  0.4353 -0.3025  0.5139
12748TIP3    H159735   3.580   2.914   3.393 -0.1152  0.7589  0.1576
12748TIP3    H259736   3.644   2.979   3.272  0.9750  1.1836  0.9413
12749TIP3   OH259737   6.297   1.184   1.912  0.2331 -0.2179 -0.4644
12749TIP3    H159738   6.341   1.215   1.833 -0.8668 -0.0053 -1.0171
12749TIP3    H259739   6.361   1.129   1.956  1.2511  0.5725 -0.9253
12750TIP3   OH259740   1.196   1.239  12.598 -0.2992 -0.3691  0.0076
12750TIP3    H159741   1.283   1.279  12.603 -0.3747 -0.3226  1.1603
12750TIP3    H259742   1.213   1.144  12.599 -0.2858 -0.3689  1.1605
12751TIP3   OH259743   5.274   5.078   4.750 -0.0856  0.8400 -0.1164
12751TIP3    H159744   5.320   5.005   4.790  0.5603  1.8112  0.9783
12751TIP3    H259745   5.240   5.043   4.668 -0.5651 -0.9379  0.7764
12752TIP3   OH259746   5.630   5.112  13.512  0.2120 -0.0428 -0.1384
12752TIP3    H159747   5.582   5.051  13.456 -0.6543  0.1416  0.3788
12752TIP3    H259748   5.593   5.198  13.491  0.2309  0.0870  0.3455
12753TIP3   OH259749   2.575   2.370   5.698  0.1637 -0.0512 -0.4769
12753TIP3    H159750   2.591   2.282   5.662 -0.4575 -0.0994 -0.6607
12753TIP3    H259751   2.480   2.381   5.690 -0.0095 -0.1140  1.2802
12754TIP3   OH259752   2.281   5.060   1.334 -0.3115  0.2751  0.0773
12754TIP3    H159753   2.205   5.061   1.276 -0.6532 -1.0089  0.4765
12754TIP3    H259754   2.243   5.052   1.422  0.2395  1.1039  0.4019
12755TIP3   OH259755   6.326   6.318   4.899 -0.4342  0.0026  0.2472
12755TIP3    H159756   6.276   6.290   4.975 -1.4411 -2.1455 -1.1036
12755TIP3    H259757   6.260   6.332   4.831  0.4039  2.2224 -0.2148
12756TIP3   OH259758   4.889   3.904   3.338  0.3988  0.0416 -0.4150
12756TIP3    H159759   4.932   3.843   3.277  0.2355 -0.7154  0.2074
12756TIP3    H259760   4.865   3.850   3.413  1.0456  1.0500  0.5521
12757TIP3   OH259761   5.294   6.773  14.120 -0.2701 -0.3133  0.2377
12757TIP3    H159762   5.308   6.863  14.090  2.0409 -0.4588  0.7646
12757TIP3    H259763   5.236   6.735  14.053  2.2133  0.2737 -2.4394
12758TIP3   OH259764   6.095   4.464   3.394  0.0293  0.2286 -0.2202
12758TIP3    H159765   6.073   4.404   3.324  1.7357  1.8208 -2.2618
12758TIP3    H259766   6.060   4.549   3.365  1.5920  1.1091  0.3270
12759TIP3   OH259767   2.912   0.071  13.943  0.2223  0.6378  0.7788
12759TIP3    H159768   3.006   0.055  13.957  0.3038  1.3521  1.1295
12759TIP3    H259769   2.868   0.012  14.003  0.4865  1.1081  1.4483
12760TIP3   OH259770   5.729   1.827   5.073 -0.5864 -0.9947 -1.2352
12760TIP3    H159771   5.756   1.736   5.057 -0.9208 -0.9918 -1.8589
12760TIP3    H259772   5.676   1.822   5.152  1.7411 -0.8998  0.4096
12761TIP3   OH259773   2.878   5.132   0.472  0.2123 -0.3069 -0.2573
12761TIP3    H159774   2.944   5.201   0.481 -1.2135  1.1485 -0.3865
12761TIP3    H259775   2.908   5.081   0.397 -0.5812  2.5401 -2.7217
12762TIP3   OH259776   5.804   4.461  12.340  0.4581  0.9861 -0.0629
12762TIP3    H159777   5.777   4.420  12.422  0.5979  0.0831 -0.4588
12762TIP3    H259778   5.870   4.525  12.366 -0.2213  1.4284  0.6302
12763TIP3   OH259779   4.855   2.039   1.586  1.2814  0.2399 -0.8377
12763TIP3    H159780   4.793   2.098   1.544  2.0271  1.5702 -0.1231
12763TIP3    H259781   4.843   1.955   1.540 -0.3812  0.7016 -1.3073
12764TIP3   OH259782   3.931   0.512  11.353 -0.5990 -0.6105  0.3209
12764TIP3    H159783   4.005   0.529  11.295 -0.8253 -0.2011  0.1472
12764TIP3    H259784   3.972   0.486  11.436 -0.2827 -2.1119 -0.2713
12765TIP3   OH259785   1.748   2.119  14.193  0.1955  0.3396 -0.3541
12765TIP3    H159786   1.733   2.121  14.098  0.0248 -0.8591 -0.3659
12765TIP3    H259787   1.830   2.071  14.204 -0.1415 -0.1369  0.1373
12766TIP3   OH259788   5.355   3.690   4.697 -0.5713  0.1718 -0.2759
12766TIP3    H159789   5.414   3.688   4.621 -2.0433  1.1251 -1.5146
12766TIP3    H259790   5.269   3.674   4.660 -1.3694  1.0067  1.1529
12767TIP3   OH259791   6.744   6.685  13.315  0.1446  0.1389  0.0617
12767TIP3    H159792   6.693   6.709  13.238  0.4651  1.6740  0.3046
12767TIP3    H259793   6.686   6.628  13.366  0.4306 -2.0961 -1.9596
12768TIP3   OH259794   1.526   2.305  11.765 -0.0632  0.3985  0.0461
12768TIP3    H159795   1.542   2.380  11.708 -2.1454  0.9897  0.1541
12768TIP3    H259796   1.553   2.335  11.852  3.6635 -0.7020 -0.5927
12769TIP3   OH259797   1.564   0.995   0.395  0.8871 -0.6136 -0.7452
12769TIP3    H159798   1.507   0.926   0.362  0.3426 -0.3935 -0.2814
12769TIP3    H259799   1.650   0.975   0.359  0.9434 -2.0416  0.1305
12770TIP3   OH259800   5.852   0.952   5.875 -0.4332  0.2566  0.0737
12770TIP3    H159801   5.898   1.029   5.842  0.0550  0.3230  0.8776
12770TIP3    H259802   5.921   0.888   5.892 -0.8896 -0.6376 -1.2506
12771TIP3   OH259803   4.857   2.837  14.493  0.1112 -0.2855 -0.0137
12771TIP3    H159804   4.816   2.882  14.419 -0.8521 -1.0187  0.0598
12771TIP3    H259805   4.844   2.744  14.475  0.0167 -0.4802  0.9977
12772TIP3   OH259806   6.427   1.812  15.213 -0.4603 -0.7181  0.2622
12772TIP3    H159807   6.405   1.761  15.291 -1.0598  1.0718  1.3206
12772TIP3    H259808   6.462   1.894  15.247 -0.3396 -0.0482 -1.3711
12773TIP3   OH259809   2.593   2.897  10.455  0.1234 -0.1560  0.5123
12773TIP3    H159810   2.558   2.809  10.443 -0.5870  0.3171 -1.0906
12773TIP3    H259811   2.531   2.939  10.516 -1.3144  0.1763 -1.1021
12774TIP3   OH259812   6.722   3.976   1.025  0.0088 -0.0059  0.2959
12774TIP3    H159813   6.798   4.002   0.972 -0.9324  0.1700 -0.9923
12774TIP3    H259814   6.674   4.057   1.039 -1.7585 -0.5999 -1.8523
12775TIP3   OH259815   1.362   4.426   2.953 -0.2863 -0.8779  0.3224
12775TIP3    H159816   1.369   4.331   2.944  2.5596 -0.7217  0.0521
12775TIP3    H259817   1.310   4.454   2.877 -1.1315 -2.1681  0.3987
12776TIP3   OH259818   6.426   2.546  13.113  0.3162 -0.2436 -0.2865
12776TIP3    H159819   6.425   2.465  13.062  0.3569  0.3971 -1.3262
12776TIP3    H259820   6.504   2.593  13.083 -0.0639  0.4778 -0.1790
12777TIP3   OH259821   6.828   4.154  15.577  0.4888 -0.0142  0.5051
12777TIP3    H159822   6.750   4.154  15.521  0.7961  1.8169  0.0092
12777TIP3    H259823   6.807   4.092  15.647 -0.8399 -0.6120 -0.3676
12778TIP3   OH259824   0.914   3.595   0.957 -0.4231 -0.0363 -0.2431
12778TIP3    H159825   0.918   3.611   0.862 -1.2993  1.4145 -0.0628
12778TIP3    H259826   0.822   3.607   0.979  0.0967  1.9156  1.1336
12779TIP3   OH259827   0.929   0.352   0.109 -0.2856 -0.1561  0.1384
12779TIP3    H159828   0.905   0.315   0.195 -2.3410  0.4595 -0.1054
12779TIP3    H259829   0.972   0.434   0.130  2.0161 -1.3981  0.6152
12780TIP3   OH259830   0.498   3.248  17.195  0.2812  0.1680 -0.4112
12780TIP3    H159831   0.423   3.288  17.150  0.2967  0.8614  0.1747
12780TIP3    H259832   0.573   3.267  17.139  0.1766  0.3198 -0.4982
12781TIP3   OH259833   1.031   2.796   0.257  0.5353 -0.0440  0.0860
12781TIP3    H159834   1.064   2.882   0.231  2.0164 -0.7734 -0.5863
12781TIP3    H259835   1.102   2.758   0.307 -0.6526 -0.3532  1.6015
12782TIP3   OH259836   0.343   3.998  11.462  1.0504 -0.8182  0.3715
12782TIP3    H159837   0.436   3.998  11.483  1.0666  0.2050  0.3419
12782TIP3    H259838   0.299   3.991  11.546  1.1402  1.3257  0.6439
12783TIP3   OH259839   6.073   2.662   1.444  0.6623  0.3862  0.1443
12783TIP3    H159840   5.998   2.608   1.470  0.9539  0.0433  0.2981
12783TIP3    H259841   6.051   2.750   1.471 -0.3979  0.5929 -1.2870
12784TIP3   OH259842   0.161   1.926  16.130  0.0249 -0.1781 -0.2045
12784TIP3    H159843   0.157   1.990  16.058  0.1330 -1.1714 -1.1136
12784TIP3    H259844   0.237   1.872  16.111  0.4154 -0.0911  1.0031
12785TIP3   OH259845   5.528   5.297  13.132  0.2557 -0.3967 -0.0454
12785TIP3    H159846   5.434   5.305  13.148  0.4868  0.3205  1.0104
12785TIP3    H259847   5.540   5.334  13.044 -0.5840 -1.4753 -0.6448
12786TIP3   OH259848   3.000   2.168   2.436 -0.4086 -0.2697  0.1631
12786TIP3    H159849   2.949   2.195   2.359  0.4541 -0.3270 -0.4405
12786TIP3    H259850   3.087   2.150   2.402 -0.5422 -2.3468  0.8045
12787TIP3   OH259851   0.582   3.136  13.153 -0.0234 -0.0362 -0.6860
12787TIP3    H159852   0.535   3.087  13.220  0.7905 -1.7463 -1.3142
12787TIP3    H259853   0.650   3.184  13.201  0.2946 -0.9266 -0.2357
12788TIP3   OH259854   0.671   3.294   5.181 -0.1596  0.7523  0.4685
12788TIP3    H159855   0.729   3.315   5.254  0.5116 -2.5042  1.0240
12788TIP3    H259856   0.585   3.282   5.221  0.2992 -1.4849  0.8802
12789TIP3   OH259857   2.363   3.769  12.496  0.5476 -0.1600 -0.5075
12789TIP3    H159858   2.285   3.806  12.538  0.1922  0.1066 -1.3820
12789TIP3    H259859   2.435   3.793  12.554  0.2076  1.1431 -0.5976
12790TIP3   OH259860   0.282   5.639  13.621 -0.0036 -0.2531 -0.3541
12790TIP3    H159861   0.219   5.665  13.688  0.6641  1.7944 -0.4507
12790TIP3    H259862   0.294   5.718  13.568  1.2599 -1.1449 -1.4683
12791TIP3   OH259863   3.516   1.749  15.786  0.5381  0.2858 -0.2503
12791TIP3    H159864   3.428   1.769  15.754 -0.4096 -0.0044  1.9769
12791TIP3    H259865   3.509   1.759  15.881  2.9271  0.2535 -0.0253
12792TIP3   OH259866   3.355   2.824  15.432 -0.1841  0.0527 -0.1959
12792TIP3    H159867   3.373   2.832  15.338 -0.5974 -2.4577 -0.5592
12792TIP3    H259868   3.275   2.874  15.445 -0.5590 -0.1976 -1.3689
12793TIP3   OH259869   3.433   1.957  15.072 -0.4662 -0.4208 -0.1415
12793TIP3    H159870   3.462   1.930  15.159  0.7402  0.8978 -0.0939
12793TIP3    H259871   3.512   1.950  15.018 -0.3727  1.7696 -0.3706
12794TIP3   OH259872   0.808   2.088  16.569 -0.3584 -0.2767 -0.2737
12794TIP3    H159873   0.842   2.052  16.487  0.3175  0.2421 -0.2298
12794TIP3    H259874   0.879   2.079  16.631 -0.5033  0.2833 -0.0189
12795TIP3   OH259875   6.470   5.401   2.792  0.3616  0.1230 -0.0913
12795TIP3    H159876   6.489   5.488   2.827  1.1606 -0.5453  1.2196
12795TIP3    H259877   6.374   5.396   2.791  0.2116  1.8110 -2.3452
12796TIP3   OH259878   1.175   2.755  13.269 -0.0954 -0.3437  0.1721
12796TIP3    H159879   1.192   2.848  13.256  0.2415 -0.4509 -0.1642
12796TIP3    H259880   1.108   2.733  13.205  0.2251 -0.4551 -0.1277
12797TIP3   OH259881   2.535   4.121   5.720  0.0796  0.1256  0.3482
12797TIP3    H159882   2.479   4.092   5.648 -0.1843 -0.3799  0.7512
12797TIP3    H259883   2.537   4.047   5.781  0.6399  0.3902  0.6634
12798TIP3   OH259884   1.492   0.702   0.544  0.4731  0.2273 -0.3082
12798TIP3    H159885   1.439   0.764   0.494  0.9959  0.0672 -1.0890
12798TIP3    H259886   1.454   0.617   0.525  0.4801  0.1951 -0.1789
12799TIP3   OH259887   3.270   4.453   5.287  0.2804 -0.2169 -0.0610
12799TIP3    H159888   3.277   4.540   5.327 -1.4056 -0.2675  0.4085
12799TIP3    H259889   3.224   4.468   5.205  0.5015 -0.6072 -0.2612
12800TIP3   OH259890   2.084   6.119   2.395 -0.8498 -0.3411 -0.6562
12800TIP3    H159891   2.101   6.211   2.416  0.3498  0.1638 -3.4226
12800TIP3    H259892   2.018   6.092   2.458  2.1535  0.9347  3.5332
12801TIP3   OH259893   2.299   3.238   3.877  0.4045  0.4657 -0.5659
12801TIP3    H159894   2.337   3.166   3.826 -1.5051 -0.2955 -0.9874
12801TIP3    H259895   2.294   3.311   3.815  1.4589  0.6894 -0.4062
12802TIP3   OH259896   3.347   6.129  14.243 -0.0972  0.1245 -0.0732
12802TIP3    H159897   3.367   6.160  14.154  1.9464  0.5585  0.4961
12802TIP3    H259898   3.321   6.209  14.290 -1.0138 -0.0805 -0.2010
12803TIP3   OH259899   1.572   1.086   2.176 -0.2197 -0.0892 -0.0507
12803TIP3    H159900   1.656   1.118   2.209  0.3029  0.3408 -1.6709
12803TIP3    H259901   1.521   1.165   2.159  0.4763 -0.0802 -2.5492
12804TIP3   OH259902   1.348   4.879   5.484 -0.3625  0.2699  0.1401
12804TIP3    H159903   1.409   4.837   5.423 -2.1173 -0.9009 -0.8924
12804TIP3    H259904   1.332   4.965   5.446 -0.8735 -0.1763 -0.6809
12805TIP3   OH259905   0.360   4.907  15.499 -0.3302 -0.4054  0.6322
12805TIP3    H159906   0.341   4.845  15.428  0.3727  0.0685  0.0147
12805TIP3    H259907   0.454   4.924  15.490 -0.3495  0.0861  1.3422
12806TIP3   OH259908   6.704   3.210  15.902  0.0224 -0.0331  0.4866
12806TIP3    H159909   6.791   3.249  15.898  0.3908 -0.8591  0.3127
12806TIP3    H259910   6.646   3.279  15.869  1.0994 -0.8705 -3.8660
12807TIP3   OH259911   6.367   2.346  16.026 -0.0361 -0.3466 -0.1939
12807TIP3    H159912   6.355   2.360  15.932 -2.2259  0.9967  0.2190
12807TIP3    H259913   6.438   2.406  16.049 -0.5270  0.4787 -0.7464
12808TIP3   OH259914   3.180   5.910   5.309  1.0049  0.6292 -0.2929
12808TIP3    H159915   3.226   5.831   5.281  1.0218  0.9489 -1.1803
12808TIP3    H259916   3.089   5.883   5.317  1.2580  0.0967  1.0803
12809TIP3   OH259917   4.490   6.398   1.767 -0.0114 -0.0697 -0.1874
12809TIP3    H159918   4.540   6.479   1.780 -0.8763  0.1522  2.2877
12809TIP3    H259919   4.400   6.428   1.753 -0.1665 -0.5927 -0.3295
12810TIP3   OH259920   5.467   6.105   4.280 -0.3626  0.1167 -0.5323
12810TIP3    H159921   5.451   6.174   4.216  0.7896  1.4340  0.5217
12810TIP3    H259922   5.522   6.042   4.234  1.2401  1.5096 -0.6145
12811TIP3   OH259923   6.537   1.141  13.903  0.2826  0.0221 -0.1064
12811TIP3    H159924   6.605   1.155  13.838 -0.3747  0.9728 -0.6239
12811TIP3    H259925   6.455   1.143  13.853 -0.1171 -1.6649  0.4212
12812TIP3   OH259926   2.438   2.564   1.563  0.1445  0.5123 -0.3464
12812TIP3    H159927   2.514   2.585   1.617  0.6110  1.6311 -1.3858
12812TIP3    H259928   2.455   2.607   1.479 -0.9631 -0.4416 -1.0988
12813TIP3   OH259929   3.783   2.124   0.943  1.2134 -0.3135  0.0478
12813TIP3    H159930   3.745   2.037   0.929 -0.9551  0.5326  0.3048
12813TIP3    H259931   3.801   2.157   0.855  1.3318 -0.7264 -0.0835
12814TIP3   OH259932   0.777   2.014  17.038 -0.2013 -0.0562 -0.0862
12814TIP3    H159933   0.864   2.006  17.078 -0.5621 -2.5437  0.3628
12814TIP3    H259934   0.792   2.001  16.945 -0.1660 -1.5860  0.1050
12815TIP3   OH259935   4.749   4.418  15.485 -0.1661 -0.1767 -0.2769
12815TIP3    H159936   4.778   4.341  15.436  0.5451 -0.9684  1.3034
12815TIP3    H259937   4.815   4.428  15.554 -2.8333 -1.2506  2.6754
12816TIP3   OH259938   0.238   3.571   5.907  0.3730 -0.0145  0.3744
12816TIP3    H159939   0.206   3.555   5.996  0.1916 -2.2793 -0.0426
12816TIP3    H259940   0.159   3.591   5.857  0.2846 -0.2345  0.4238
12817TIP3   OH259941   0.814   0.407  12.669 -0.2233  0.3367 -0.0597
12817TIP3    H159942   0.882   0.361  12.621  0.1265  0.0590  0.6791
12817TIP3    H259943   0.758   0.337  12.704  0.4035  0.4375  1.2054
12818TIP3   OH259944   5.586   5.090   3.766  0.5556 -0.2214  0.5262
12818TIP3    H159945   5.638   5.126   3.838  1.2053 -2.2430  1.1353
12818TIP3    H259946   5.648   5.040   3.713 -0.2867 -0.4426 -0.2939
12819TIP3   OH259947   0.433   5.109  10.678  0.2854  0.0589 -0.4502
12819TIP3    H159948   0.483   5.175  10.629  0.7945 -1.1545 -1.6355
12819TIP3    H259949   0.353   5.097  10.627  0.0997 -0.0872 -0.1220
12820TIP3   OH259950   2.298   3.958  13.923  0.3162  0.5666 -0.2161
12820TIP3    H159951   2.252   3.922  13.999  1.6839  1.7179  1.2482
12820TIP3    H259952   2.271   4.050  13.921  2.0423  1.1121  0.3067
12821TIP3   OH259953   2.019   3.379   0.870 -0.3761  0.1285  0.1195
12821TIP3    H159954   1.999   3.389   0.963 -0.1177  1.5937  0.0342
12821TIP3    H259955   2.107   3.415   0.860 -0.6449  0.5684 -0.7992
12822TIP3   OH259956   6.434   2.854   2.514 -0.8867 -0.1603  0.3641
12822TIP3    H159957   6.514   2.802   2.520 -1.0905 -0.5158  0.0354
12822TIP3    H259958   6.366   2.792   2.487 -1.3921  0.0238  1.1644
12823TIP3   OH259959   2.880   1.960   2.846 -0.1792 -0.3814 -0.2915
12823TIP3    H159960   2.971   1.990   2.853 -0.1859 -0.3948 -0.1400
12823TIP3    H259961   2.882   1.871   2.882 -0.1757 -0.5290 -0.6585
12824TIP3   OH259962   0.931   2.088   4.528 -0.6021 -0.2477  0.3351
12824TIP3    H159963   0.899   2.094   4.438 -1.9694 -0.3671  0.7919
12824TIP3    H259964   1.005   2.148   4.532  0.7923 -1.7243 -1.4031
12825TIP3   OH259965   1.163   2.273  12.100 -0.2452  0.3075  0.3457
12825TIP3    H159966   1.123   2.279  12.013  1.3167  0.4932 -0.4050
12825TIP3    H259967   1.254   2.247  12.082 -0.0595 -0.2443  1.9709
12826TIP3   OH259968   2.478   5.689  15.885 -0.0356  0.6108 -0.3699
12826TIP3    H159969   2.420   5.668  15.958 -0.0225 -0.3143 -0.6209
12826TIP3    H259970   2.539   5.616  15.881  1.4236  1.7641  0.1465
12827TIP3   OH259971   4.524   2.252   6.289 -0.5426 -0.2639  0.2724
12827TIP3    H159972   4.531   2.304   6.369  0.3315 -1.0420  0.7232
12827TIP3    H259973   4.434   2.266   6.260 -0.5158  1.0024  0.7062
12828TIP3   OH259974   6.724   1.080  13.001  0.2301 -0.2928 -0.0232
12828TIP3    H159975   6.798   1.077  12.940 -0.4959 -0.8434 -0.8918
12828TIP3    H259976   6.658   1.023  12.962 -0.4244 -0.3013  1.0609
12829TIP3   OH259977   6.731   6.327   4.860  0.3265  0.6580  0.2478
12829TIP3    H159978   6.787   6.251   4.873 -0.8203 -0.2708 -0.0431
12829TIP3    H259979   6.758   6.388   4.929  0.5840 -0.4265  1.1422
12830TIP3   OH259980   1.833   2.771  16.168 -0.0366  0.1924 -0.5929
12830TIP3    H159981   1.751   2.772  16.118  0.1494 -0.5779 -0.9269
12830TIP3    H259982   1.899   2.805  16.108 -0.1985  1.3609 -0.1364
12831TIP3   OH259983   5.214   2.304  16.880 -0.6110  0.3400  0.4691
12831TIP3    H159984   5.258   2.283  16.798  0.2465 -0.3926  1.1011
12831TIP3    H259985   5.253   2.387  16.908  2.4985 -1.5672  2.4002
12832TIP3   OH259986   0.381   3.741   5.718 -0.2703 -0.2942 -0.3157
12832TIP3    H159987   0.344   3.677   5.780  0.4304 -1.8910 -1.4656
12832TIP3    H259988   0.465   3.765   5.756 -1.8063  2.4485  1.7112
12833TIP3   OH259989   5.144   3.742  15.679  0.0741 -0.3166 -0.2245
12833TIP3    H159990   5.146   3.790  15.597 -3.0424  0.0859 -0.2033
12833TIP3    H259991   5.186   3.658  15.660 -0.3158 -0.1173 -2.1484
12834TIP3   OH259992   0.316   6.343   5.838  0.1178 -0.1765  0.1486
12834TIP3    H159993   0.282   6.412   5.782  0.0363 -0.2353  0.1250
12834TIP3    H259994   0.384   6.301   5.786 -1.2153 -1.4432 -0.6468
12835TIP3   OH259995   5.106   6.010   6.549 -0.0403 -0.6041 -0.0372
12835TIP3    H159996   5.181   6.043   6.599 -0.5132  0.8036 -0.2152
12835TIP3    H259997   5.058   5.955   6.611 -0.4262  0.8298  0.9926
12836TIP3   OH259998   0.977   6.380  16.502  0.6552 -0.1283 -0.3424
12836TIP3    H159999   0.986   6.469  16.536  1.1378 -0.4593  0.4108
12836TIP3    H260000   0.956   6.392  16.409 -3.3816  0.8643  0.5135
12837TIP3   OH260001   6.701   3.298  12.163  0.1068 -0.4258 -0.1540
12837TIP3    H160002   6.649   3.290  12.243  1.6398  1.3551  1.0895
12837TIP3    H260003   6.747   3.214  12.156 -1.8379 -1.5071 -0.5416
12838TIP3   OH260004   0.825   5.206   4.403 -0.1249  0.0728  0.0908
12838TIP3    H160005   0.838   5.114   4.378  0.3852 -0.0295  0.7072
12838TIP3    H260006   0.829   5.206   4.499 -1.6390  0.5208  0.1716
12839TIP3   OH260007   3.387   4.423  14.829  0.2478 -0.2567  0.1601
12839TIP3    H160008   3.415   4.507  14.866 -0.0328 -1.7428  4.3715
12839TIP3    H260009   3.462   4.392  14.779  1.0851  1.5869  0.1897
12840TIP3   OH260010   0.886   6.180   2.139  0.0493  0.0660 -0.2395
12840TIP3    H160011   0.793   6.198   2.130  0.4638  1.6085 -1.7374
12840TIP3    H260012   0.912   6.142   2.055  0.6523 -1.0419  0.4169
12841TIP3   OH260013   4.486   4.964  11.720  0.3772 -0.1684 -0.2457
12841TIP3    H160014   4.413   4.906  11.740 -0.1967  1.1227  1.6385
12841TIP3    H260015   4.557   4.935  11.777  0.5776  0.0502 -0.3828
12842TIP3   OH260016   0.614   3.482  12.997 -0.0182 -0.1414 -0.2158
12842TIP3    H160017   0.627   3.513  13.086  0.3687  0.9037 -0.6191
12842TIP3    H260018   0.528   3.517  12.972  0.7676  1.3628 -0.9525
12843TIP3   OH260019   6.329   5.335  10.846 -0.2401  0.3383 -0.2672
12843TIP3    H160020   6.310   5.272  10.916 -0.0041  1.6081  1.0126
12843TIP3    H260021   6.323   5.420  10.890  0.4409  1.1508 -1.6968
12844TIP3   OH260022   0.947   2.974   3.731  0.7834 -0.2539  0.3529
12844TIP3    H160023   0.899   2.929   3.661 -1.6320  2.7431 -0.1129
12844TIP3    H260024   0.980   2.903   3.786  0.7470 -2.6669 -2.4899
12845TIP3   OH260025   1.715   6.788  13.527 -0.7469 -0.3707 -0.1667
12845TIP3    H160026   1.685   6.879  13.525 -1.9276 -0.7672 -2.0768
12845TIP3    H260027   1.809   6.794  13.508 -0.7849  0.4546 -0.1332
12846TIP3   OH260028   5.474   5.158  11.607  0.1259  0.2801  0.3881
12846TIP3    H160029   5.404   5.204  11.560  0.8579  2.2553  1.1298
12846TIP3    H260030   5.554   5.185  11.564  0.6141 -0.0967  1.0406
12847TIP3   OH260031   5.843   1.530  12.587 -0.0147 -0.5748  0.7178
12847TIP3    H160032   5.924   1.507  12.540 -0.9838 -1.4737 -0.6010
12847TIP3    H260033   5.861   1.510  12.678  1.7764  0.7299  0.7042
12848TIP3   OH260034   1.809   6.124   5.852  0.5099 -0.4879 -0.2345
12848TIP3    H160035   1.774   6.209   5.828  2.5873  0.0969 -1.4306
12848TIP3    H260036   1.827   6.080   5.769  0.4324 -1.6925  0.3537
12849TIP3   OH260037   2.009   1.660  11.049 -0.6310  0.5801  0.3340
12849TIP3    H160038   2.006   1.751  11.021  1.1511  0.9638  1.2522
12849TIP3    H260039   2.092   1.626  11.015 -0.8748 -0.4511  0.7064
12850TIP3   OH260040   0.262   3.235   0.957  0.9387  0.3422  0.0827
12850TIP3    H160041   0.241   3.316   0.911 -1.0923  0.1873  0.6375
12850TIP3    H260042   0.265   3.169   0.889  1.8429  0.7244 -0.2723
12851TIP3   OH260043   6.711   6.005  14.450  0.2358  0.2138  0.2900
12851TIP3    H160044   6.740   5.958  14.528  0.2968  0.0075  0.1475
12851TIP3    H260045   6.646   6.068  14.481 -0.9947 -1.0054  0.2925
12852TIP3   OH260046   0.540   1.432  13.403 -0.6826 -0.4128  0.0086
12852TIP3    H160047   0.488   1.499  13.359 -0.0427 -0.9028 -1.5561
12852TIP3    H260048   0.483   1.355  13.407 -0.4915 -0.6015 -0.6883
12853TIP3   OH260049   2.824   2.893  13.353 -0.3142 -0.0594  0.4423
12853TIP3    H160050   2.901   2.865  13.304 -0.5777  1.0602 -0.6620
12853TIP3    H260051   2.849   2.979  13.388 -1.0000  0.2439  0.2006
12854TIP3   OH260052   4.393   6.106  11.881 -0.1853 -0.3659 -0.0019
12854TIP3    H160053   4.382   6.192  11.922 -1.2204 -0.9730  1.0677
12854TIP3    H260054   4.344   6.112  11.799 -1.5543 -0.3822  0.7828
12855TIP3   OH260055   2.472   5.502   5.967 -0.2972 -0.5202 -0.3603
12855TIP3    H160056   2.514   5.583   5.939 -0.4396 -0.2006  0.3321
12855TIP3    H260057   2.466   5.510   6.063 -0.5385 -1.2348 -0.3098
12856TIP3   OH260058   0.361   1.465  15.828  0.4609  0.6069  0.2355
12856TIP3    H160059   0.343   1.457  15.921 -1.4801  1.8133  0.0084
12856TIP3    H260060   0.437   1.523  15.823  2.3645 -1.6513  1.1004
12857TIP3   OH260061   4.126   2.626  16.305  0.8125  0.5971  0.0759
12857TIP3    H160062   4.182   2.685  16.356  0.5536  0.8823  0.0352
12857TIP3    H260063   4.157   2.636  16.215  1.0062  0.3934  0.1156
12858TIP3   OH260064   1.321   2.579   3.319 -0.1917 -0.0639 -0.2394
12858TIP3    H160065   1.375   2.501   3.327 -0.3778 -0.2330 -0.6012
12858TIP3    H260066   1.259   2.558   3.249 -1.5690 -0.3707  1.0205
12859TIP3   OH260067   3.384   3.641  14.018 -0.3042  0.2945  0.6252
12859TIP3    H160068   3.452   3.601  14.072  1.9996  1.6878 -1.0644
12859TIP3    H260069   3.431   3.680  13.945 -2.9951  1.0309 -0.8592
12860TIP3   OH260070   2.393   6.553  10.665 -0.5061 -0.5003 -0.4781
12860TIP3    H160071   2.388   6.503  10.583 -1.2302  0.1429 -0.8406
12860TIP3    H260072   2.334   6.506  10.724  0.1093 -1.0343 -0.2754
12861TIP3   OH260073   4.191   0.108  15.488 -0.2747  0.1694 -0.2806
12861TIP3    H160074   4.227   0.102  15.576 -0.2291 -0.1320 -0.3172
12861TIP3    H260075   4.183   0.017  15.459 -0.8795  0.2381 -0.3496
12862TIP3   OH260076   0.270   0.248  15.481 -0.3701 -0.1113  0.4056
12862TIP3    H160077   0.249   0.196  15.558  0.3949 -1.6888 -0.4197
12862TIP3    H260078   0.363   0.270  15.490 -0.3203 -0.1486  0.0309
12863TIP3   OH260079   5.555   4.695   4.073  0.2729  0.2936 -0.2669
12863TIP3    H160080   5.522   4.762   4.012  0.4682 -0.6529 -1.4448
12863TIP3    H260081   5.639   4.668   4.035  0.7481  0.1800  0.8238
12864TIP3   OH260082   0.421   4.167  14.699  0.6651 -0.4851  0.2870
12864TIP3    H160083   0.452   4.078  14.713  1.0169 -0.7341 -1.8187
12864TIP3    H260084   0.334   4.157  14.659  1.0435  0.0772 -0.7141
12865TIP3   OH260085   6.268   5.707  15.786  0.3207 -0.3451 -0.1054
12865TIP3    H160086   6.176   5.733  15.778  0.2453  0.4821  2.4812
12865TIP3    H260087   6.266   5.612  15.798 -0.1252 -0.4126 -0.6835
12866TIP3   OH260088   0.881   5.661  13.219  0.0463 -0.2898 -0.0447
12866TIP3    H160089   0.837   5.577  13.227 -1.6400  0.6853  2.3344
12866TIP3    H260090   0.816   5.719  13.179  0.7444  0.1890 -0.5261
12867TIP3   OH260091   2.040   6.646  14.459 -0.1218  0.0325  0.0044
12867TIP3    H160092   2.041   6.599  14.542 -1.0696  0.6577  0.3846
12867TIP3    H260093   1.947   6.652  14.436 -0.2186  3.1317  0.8065
12868TIP3   OH260094   4.102   4.401   6.486  0.0778  0.3583 -0.4457
12868TIP3    H160095   4.129   4.411   6.577 -0.0562  0.9792 -0.4696
12868TIP3    H260096   4.182   4.374   6.440  0.8949  2.9124 -0.6546
12869TIP3   OH260097   2.344   5.269  16.533  0.2344  0.6317  0.5652
12869TIP3    H160098   2.306   5.273  16.621  0.7324 -1.3909  0.9334
12869TIP3    H260099   2.317   5.183  16.499 -0.7533  1.7443 -1.6733
12870TIP3   OH260100   3.342   6.650  15.173 -0.0675  0.3900  0.4073
12870TIP3    H160101   3.358   6.713  15.243 -0.6258 -0.1707  1.0589
12870TIP3    H260102   3.361   6.565  15.213  0.0498  0.0983 -0.2605
12871TIP3   OH260103   4.594   6.269   3.890  0.4562  0.0486 -0.6200
12871TIP3    H160104   4.655   6.208   3.850  0.4661  0.5672 -1.4235
12871TIP3    H260105   4.635   6.355   3.879  1.0140  0.1071  1.5619
12872TIP3   OH260106   3.635   3.095   3.129 -0.2986 -0.6324 -0.2802
12872TIP3    H160107   3.727   3.123   3.124 -0.3953  0.1359  1.5150
12872TIP3    H260108   3.588   3.156   3.073 -0.0259  0.6031  0.8030
12873TIP3   OH260109   0.384   4.362   2.847 -0.7369  0.8123  0.0214
12873TIP3    H160110   0.324   4.287   2.848 -0.1225  0.3072 -0.1847
12873TIP3    H260111   0.329   4.437   2.824 -1.4645  0.5201  0.7542
12874TIP3   OH260112   0.884   5.270   1.895  0.0198 -0.0818 -0.5192
12874TIP3    H160113   0.958   5.266   1.956 -0.4880 -1.1323  0.0507
12874TIP3    H260114   0.922   5.307   1.815  0.3952  2.6722  0.8180
12875TIP3   OH260115   1.936   3.189  13.742  0.1661 -0.1954 -0.4564
12875TIP3    H160116   2.019   3.212  13.702 -0.2744 -0.0662 -1.3268
12875TIP3    H260117   1.915   3.262  13.800  0.1684  0.2528 -1.0143
12876TIP3   OH260118   4.076   3.904  15.358 -0.2157 -0.1421  0.6784
12876TIP3    H160119   4.068   3.823  15.308 -2.8119 -1.0736  2.3972
12876TIP3    H260120   4.018   3.891  15.433 -0.2766  3.1160  1.3073
12877TIP3   OH260121   6.471   1.076   0.633  0.4961 -0.0606  0.7289
12877TIP3    H160122   6.390   1.094   0.681 -0.8998  2.3040 -2.1771
12877TIP3    H260123   6.444   1.018   0.561  0.4837  3.0600 -2.0518
12878TIP3   OH260124   5.481   0.299   0.879 -0.1915 -0.4764  0.4949
12878TIP3    H160125   5.463   0.301   0.785  1.5686 -0.0205  0.1480
12878TIP3    H260126   5.515   0.386   0.899 -0.2599 -0.6684  1.4990
12879TIP3   OH260127   1.969   5.574   2.370  0.2869  0.3013 -0.4195
12879TIP3    H160128   2.062   5.554   2.376  0.3069  0.1445 -1.1531
12879TIP3    H260129   1.934   5.509   2.309 -0.4671 -0.1518  0.4529
12880TIP3   OH260130   3.647   3.293  13.956 -0.2806  0.2668 -0.9305
12880TIP3    H160131   3.716   3.349  13.991  1.0582 -1.1909 -1.1759
12880TIP3    H260132   3.579   3.295  14.023  1.1497 -0.4375  0.5992
12881TIP3   OH260133   2.352   0.606  13.032 -0.0774  0.0100  0.1351
12881TIP3    H160134   2.388   0.572  12.950 -0.9864  0.3829 -0.4284
12881TIP3    H260135   2.427   0.643  13.078  0.3734  0.1462 -0.7020
12882TIP3   OH260136   6.633   5.392  16.505  0.0260 -0.0247  0.2123
12882TIP3    H160137   6.686   5.345  16.440  0.9386  1.3289 -0.0909
12882TIP3    H260138   6.688   5.395  16.583  0.4793  1.4688 -0.1308
12883TIP3   OH260139   1.810   5.696  14.715  0.1149  0.2310  0.2990
12883TIP3    H160140   1.851   5.782  14.717  0.1323  0.2150  0.9348
12883TIP3    H260141   1.880   5.636  14.691  0.1564  0.3643  0.0879
12884TIP3   OH260142   6.783   4.938  14.706 -0.5474 -0.0024  0.9383
12884TIP3    H160143   6.723   4.866  14.729 -0.8335 -0.0063  0.2341
12884TIP3    H260144   6.792   4.931  14.611  1.1641 -0.4488  1.1083
12885TIP3   OH260145   0.872   0.844   5.623  0.8479  0.3807  0.8221
12885TIP3    H160146   0.864   0.786   5.699 -0.6253  0.7227  0.9538
12885TIP3    H260147   0.879   0.785   5.548 -2.5514 -0.0981  0.7351
12886TIP3   OH260148   2.663   6.514  11.970  0.1324  0.2530 -0.3364
12886TIP3    H160149   2.737   6.547  11.920  0.1216  0.8869  0.0652
12886TIP3    H260150   2.703   6.471  12.046  0.0885  0.6491 -0.0879
12887TIP3   OH260151   4.349   4.061  17.045  0.0469  0.1002 -0.2270
12887TIP3    H160152   4.381   3.993  17.104  0.2190  0.6752  0.3453
12887TIP3    H260153   4.274   4.020  17.001 -0.8483  0.0566  1.2645
12888TIP3   OH260154   4.879   2.862   3.974  0.6567  0.8469 -0.0931
12888TIP3    H160155   4.887   2.794   3.907 -0.3988  0.0858  0.5307
12888TIP3    H260156   4.866   2.943   3.924  4.0816  1.0285 -0.9439
12889TIP3   OH260157   3.402   5.872   2.335  0.0987  0.3091  0.0279
12889TIP3    H160158   3.337   5.941   2.341 -0.7076 -0.4336  0.0533
12889TIP3    H260159   3.398   5.842   2.244 -0.3515 -0.4398  0.2830
12890TIP3   OH260160   0.063   1.043  14.024  0.0461  0.5549 -0.0213
12890TIP3    H160161   0.004   0.977  13.986  2.2550 -2.3695  1.2416
12890TIP3    H260162   0.004   1.104  14.069 -2.1238 -1.8292  0.6529
12891TIP3   OH260163   3.289   1.586  15.244  0.4485 -0.4892  0.1435
12891TIP3    H160164   3.364   1.610  15.298  1.6028 -2.1070 -0.6700
12891TIP3    H260165   3.289   1.650  15.173  0.5688 -0.0212  0.5553
12892TIP3   OH260166   4.268   6.286  10.825 -0.3662 -0.2168 -0.2455
12892TIP3    H160167   4.297   6.373  10.852  0.0631 -0.3298 -0.3505
12892TIP3    H260168   4.327   6.261  10.755 -0.7941 -0.3932 -0.5472
12893TIP3   OH260169   2.072   2.670   5.690  0.5274  0.0821 -0.1379
12893TIP3    H160170   2.006   2.728   5.726  0.0027 -0.9588  0.6378
12893TIP3    H260171   2.156   2.708   5.718  0.1696  0.0305  1.0803
12894TIP3   OH260172   5.897   5.096  10.716 -0.6435 -0.4689 -0.4577
12894TIP3    H160173   5.845   5.135  10.646  2.5367  3.0935 -1.1844
12894TIP3    H260174   5.988   5.114  10.692  0.9892 -4.4029  1.7372
12895TIP3   OH260175   6.317   0.784   5.720  0.5476 -0.1369  0.0458
12895TIP3    H160176   6.282   0.769   5.808  0.0297  1.8481  0.2174
12895TIP3    H260177   6.242   0.766   5.662  0.7208 -0.8485  0.0250
12896TIP3   OH260178   2.334   4.018  12.326  0.0215  0.3058  0.2981
12896TIP3    H160179   2.418   4.003  12.368 -0.3855 -0.7470  0.7737
12896TIP3    H260180   2.295   4.091  12.375 -0.4558 -0.9057  1.8382
12897TIP3   OH260181   0.353   0.745   1.549  0.0153  0.4578 -0.0767
12897TIP3    H160182   0.397   0.768   1.631  1.5797 -0.2676 -0.6925
12897TIP3    H260183   0.410   0.778   1.480  0.0018 -1.1446 -0.8982
12898TIP3   OH260184   2.775   2.949   5.956  0.8706  0.0663 -0.0941
12898TIP3    H160185   2.681   2.945   5.973  0.4917  2.8130 -1.0405
12898TIP3    H260186   2.797   2.862   5.922 -1.6574 -0.1977 -1.2945
12899TIP3   OH260187   1.158   0.627   0.685 -0.3052  0.0167 -0.2583
12899TIP3    H160188   1.113   0.676   0.617  1.0229  2.8267  0.7468
12899TIP3    H260189   1.104   0.638   0.763  1.3067  2.3680  0.6437
12900TIP3   OH260190   1.056   0.302  12.018 -0.3461 -0.3346  0.2237
12900TIP3    H160191   1.041   0.324  12.110 -2.1370  1.1888 -0.3819
12900TIP3    H260192   1.039   0.208  12.013  3.6642 -1.3737  2.1246
12901TIP3   OH260193   0.123   4.157  11.095 -0.1679 -0.8852  0.4745
12901TIP3    H160194   0.096   4.244  11.066 -0.3055 -0.9738  0.3396
12901TIP3    H260195   0.209   4.144  11.053  0.1871 -0.5162  1.0783
12902TIP3   OH260196   5.587   4.171   4.757  0.0588 -0.4531  0.1743
12902TIP3    H160197   5.548   4.086   4.777 -0.8210 -0.2168 -0.4617
12902TIP3    H260198   5.668   4.149   4.711 -0.3444 -0.9613 -0.3143
12903TIP3   OH260199   4.504   0.183  13.344  0.5427 -0.2077 -0.3189
12903TIP3    H160200   4.485   0.179  13.438  0.0471 -0.2513 -0.4194
12903TIP3    H260201   4.561   0.259  13.335  0.2867  0.0235 -0.0304
12904TIP3   OH260202   6.592   1.927   5.756  0.2267  0.0412 -0.2665
12904TIP3    H160203   6.551   1.876   5.826  1.4962 -0.3217  0.2510
12904TIP3    H260204   6.665   1.972   5.798  0.4935  0.5130 -1.1890
12905TIP3   OH260205   1.290   2.871   1.266 -0.3364  0.2145  0.3954
12905TIP3    H160206   1.204   2.844   1.296 -0.4711 -0.6534 -0.7217
12905TIP3    H260207   1.336   2.899   1.345 -1.2333 -0.4477  1.1592
12906TIP3   OH260208   5.289   3.757   0.740  0.7555  0.7169 -0.1633
12906TIP3    H160209   5.277   3.844   0.701 -0.7613  0.3297 -0.6314
12906TIP3    H260210   5.232   3.757   0.817  1.3662  0.4038  0.2959
12907TIP3   OH260211   0.922   1.524  12.989 -0.3481  0.0370 -0.2801
12907TIP3    H160212   0.924   1.498  13.081 -2.3576 -0.8574 -0.4455
12907TIP3    H260213   1.008   1.564  12.973  0.9959 -2.0674  1.2968
12908TIP3   OH260214   5.113   4.490   5.559 -0.1786  0.3066 -0.3927
12908TIP3    H160215   5.110   4.564   5.498 -0.3579  2.3667  1.9644
12908TIP3    H260216   5.206   4.466   5.563  0.0814  1.2962 -0.2175
12909TIP3   OH260217   5.939   3.636  15.909 -0.0729  0.0671 -0.3523
12909TIP3    H160218   5.894   3.657  15.991  0.3107  0.1524 -0.1610
12909TIP3    H260219   5.873   3.651  15.841 -0.0067  1.2927 -0.1691
12910TIP3   OH260220   0.008   2.893  17.012 -0.2009 -0.2661 -0.0014
12910TIP3    H160221  -0.069   2.907  16.956  0.2144 -2.2047 -1.1443
12910TIP3    H260222   0.023   2.798  17.009  2.1332  0.0389  0.3349
12911TIP3   OH260223   4.605   3.612  14.849  0.1871  1.0464  0.0583
12911TIP3    H160224   4.673   3.667  14.890 -0.2833  2.7610 -1.3131
12911TIP3    H260225   4.579   3.551  14.918  1.1659  2.1709  1.4956
12912TIP3   OH260226   3.918   5.301  10.917 -0.5694 -0.5618  0.3463
12912TIP3    H160227   3.965   5.222  10.944 -1.0518 -1.1279 -0.4059
12912TIP3    H260228   3.950   5.370  10.975  1.1798 -0.9242 -0.1385
12913TIP3   OH260229   5.805   3.917  13.875  0.3324 -0.1904 -0.4626
12913TIP3    H160230   5.776   3.849  13.936 -3.2501 -0.0796 -1.8636
12913TIP3    H260231   5.855   3.869  13.808 -0.6217 -1.1920 -0.4840
12914TIP3   OH260232   5.979   1.017  16.078 -0.3144 -0.5868 -0.1428
12914TIP3    H160233   5.935   1.102  16.083 -0.0716 -0.3186 -1.9295
12914TIP3    H260234   5.919   0.961  16.029 -0.0197 -1.1421  0.1142
12915TIP3   OH260235   0.109   4.802  12.967  0.7583  0.4794  0.4128
12915TIP3    H160236   0.179   4.855  13.003  0.9859  0.1023  0.5375
12915TIP3    H260237   0.142   4.771  12.883  0.1911  1.4307 -0.1736
12916TIP3   OH260238   0.215   3.490   1.621 -0.0026  0.3997  0.5544
12916TIP3    H160239   0.228   3.478   1.527 -1.1252  0.1807  0.4172
12916TIP3    H260240   0.304   3.486   1.658  0.5855  1.6978 -0.6098
12917TIP3   OH260241   4.939   4.589   0.704  0.3222  0.3455  0.4013
12917TIP3    H160242   4.990   4.595   0.785 -0.1343  0.2928  0.6955
12917TIP3    H260243   4.924   4.680   0.678  1.0712  0.3585 -0.0130
12918TIP3   OH260244   2.565   5.555   2.746 -0.1610 -0.4304 -0.4920
12918TIP3    H160245   2.546   5.478   2.692  1.3392  0.1434 -1.9406
12918TIP3    H260246   2.661   5.563   2.743 -0.1054  0.2057  1.5077
12919TIP3   OH260247   5.190   2.405   6.673  0.2873  0.2170  0.1673
12919TIP3    H160248   5.189   2.499   6.690  0.2164  0.3976 -0.7667
12919TIP3    H260249   5.255   2.370   6.734  0.6472  0.9385  0.2071
12920TIP3   OH260250   2.396   4.648   3.882 -0.1714 -0.0706  0.3966
12920TIP3    H160251   2.329   4.681   3.942 -1.1611 -0.5091 -0.4398
12920TIP3    H260252   2.396   4.711   3.810  1.4781  0.8207  1.1160
12921TIP3   OH260253   4.539   4.257  13.266  0.0879 -0.1318  0.3137
12921TIP3    H160254   4.508   4.273  13.356  0.9530 -1.1345  0.8095
12921TIP3    H260255   4.634   4.265  13.272  0.1126  0.4256 -0.6623
12922TIP3   OH260256   4.506   0.971  13.234  0.2300  0.9733  0.2968
12922TIP3    H160257   4.584   1.014  13.270  1.5250  0.5672 -1.8389
12922TIP3    H260258   4.446   1.043  13.214  0.9612  1.4914 -0.0685
12923TIP3   OH260259   6.025   2.556   2.009 -0.6979 -0.3428 -0.3665
12923TIP3    H160260   6.120   2.555   1.997 -0.2129  0.5741  2.6519
12923TIP3    H260261   5.991   2.596   1.929  1.3504 -1.4085 -1.8617
12924TIP3   OH260262   2.478   4.762  12.054 -0.2265 -0.1483  0.3707
12924TIP3    H160263   2.554   4.722  12.013 -0.7817 -1.6571  0.7391
12924TIP3    H260264   2.498   4.762  12.148 -0.0481  0.8902  0.3474
12925TIP3   OH260265   0.489   2.884   1.322  0.0964 -0.5384 -0.0318
12925TIP3    H160266   0.463   2.886   1.230  0.3453 -0.4521 -0.0993
12925TIP3    H260267   0.475   2.973   1.353 -1.7291 -0.9669  0.4972
12926TIP3   OH260268   0.376   2.637  12.238  0.1184  0.0443 -0.4108
12926TIP3    H160269   0.393   2.581  12.162 -1.4556 -0.1396 -0.6579
12926TIP3    H260270   0.404   2.584  12.313 -1.5181 -1.2310 -0.6243
12927TIP3   OH260271   1.646   3.405   3.859  0.2660 -0.5299  0.0996
12927TIP3    H160272   1.728   3.370   3.823  1.3568  1.6673  0.2516
12927TIP3    H260273   1.649   3.382   3.952  1.1038  0.1488  0.2582
12928TIP3   OH260274   2.920   1.625   3.600  0.2679 -0.4316  0.3882
12928TIP3    H160275   2.989   1.561   3.617  0.8758  0.2400  0.4907
12928TIP3    H260276   2.847   1.597   3.657  0.3238 -1.3273  0.0422
12929TIP3   OH260277   2.147   6.543   0.027 -0.0439  0.7185 -0.6529
12929TIP3    H160278   2.183   6.629   0.003  2.0445  0.2390  0.5273
12929TIP3    H260279   2.200   6.481  -0.024  1.6715 -0.0671  1.8695
12930TIP3   OH260280   6.016   2.702  11.300  0.1697  0.3042 -0.6052
12930TIP3    H160281   6.004   2.730  11.391 -0.3630 -0.0504 -0.5630
12930TIP3    H260282   6.061   2.618  11.307 -2.3170 -1.1245 -0.5260
12931TIP3   OH260283   5.296   0.588   5.098 -0.3811  0.2359 -0.1363
12931TIP3    H160284   5.284   0.648   5.024 -0.0454 -0.8537 -1.1072
12931TIP3    H260285   5.252   0.508   5.072 -0.0730 -0.2423  0.7603
12932TIP3   OH260286   1.635   1.955   4.387  0.8709  0.2366 -0.4539
12932TIP3    H160287   1.556   1.950   4.441  1.3226  1.2211  0.3189
12932TIP3    H260288   1.607   1.923   4.301 -0.2482  0.1176 -0.0587
12933TIP3   OH260289   2.724   1.047  15.198 -0.0094 -0.0106  0.0319
12933TIP3    H160290   2.761   0.996  15.270 -0.6647  0.8213  0.9807
12933TIP3    H260291   2.765   1.133  15.205 -1.3077  0.5965  0.4568
12934TIP3   OH260292   3.478   5.322  10.560 -0.0316 -0.0410  0.1871
12934TIP3    H160293   3.551   5.360  10.609  0.2258 -0.7606  0.3825
12934TIP3    H260294   3.401   5.339  10.615 -0.2267  1.7985 -0.5946
12935TIP3   OH260295   3.520   2.568   0.212  0.3337  0.5324  0.6665
12935TIP3    H160296   3.477   2.626   0.274  1.3335  2.5254 -0.3945
12935TIP3    H260297   3.610   2.561   0.243  1.0695  2.2086 -0.8844
12936TIP3   OH260298   3.126   2.829  12.307 -0.3085 -0.4150  0.1147
12936TIP3    H160299   3.213   2.869  12.313  0.9204 -2.8403 -0.0941
12936TIP3    H260300   3.129   2.779  12.225 -1.5025 -1.4156  0.6558
12937TIP3   OH260301   1.955   5.105  17.083 -0.4056 -0.3222  1.2519
12937TIP3    H160302   1.960   5.010  17.088 -1.2229 -0.5418 -1.0480
12937TIP3    H260303   2.032   5.136  17.131  1.3272 -2.2209 -0.1586
12938TIP3   OH260304   2.266   4.884  11.890  0.2027  0.4020 -0.3852
12938TIP3    H160305   2.348   4.875  11.938 -0.8153  0.0010  1.3909
12938TIP3    H260306   2.286   4.945  11.819  1.7886  1.0716  0.5845
12939TIP3   OH260307   0.320   2.877  12.363  0.9767  0.2409  0.2155
12939TIP3    H160308   0.415   2.872  12.352  1.1262 -0.6757  1.5539
12939TIP3    H260309   0.289   2.789  12.341  0.4371  0.5385 -0.2199
12940TIP3   OH260310   4.464   6.209  16.453 -0.6712  0.5647 -0.2275
12940TIP3    H160311   4.407   6.254  16.391 -0.5933  0.0494 -0.6742
12940TIP3    H260312   4.553   6.230  16.424 -0.6337 -0.1564 -0.6444
12941TIP3   OH260313   3.648   3.345  15.012  0.0964 -0.6376 -0.0167
12941TIP3    H160314   3.610   3.328  15.098  1.4018 -0.1322  0.6848
12941TIP3    H260315   3.610   3.278  14.956 -2.4247  0.3035  0.4348
12942TIP3   OH260316   6.733   1.448   6.154 -0.0978  0.1215  0.4413
12942TIP3    H160317   6.658   1.465   6.211 -1.2203 -0.7317 -0.7144
12942TIP3    H260318   6.768   1.364   6.185  1.9382  1.5896  2.5061
12943TIP3   OH260319   2.998   0.739   0.929  0.0736  0.1372  0.0328
12943TIP3    H160320   2.962   0.770   1.012 -0.8244 -1.8313  0.4268
12943TIP3    H260321   3.047   0.814   0.895 -1.1260  1.6141  1.3982
12944TIP3   OH260322   4.622   2.193  15.556 -0.0058  0.3431 -0.2983
12944TIP3    H160323   4.568   2.129  15.510 -0.5375  1.5552 -1.4542
12944TIP3    H260324   4.565   2.231  15.622 -0.3858  1.1469 -1.0705
12945TIP3   OH260325   2.690   2.300  15.867 -0.0007 -0.5952 -0.8946
12945TIP3    H160326   2.697   2.280  15.773 -0.3704  0.7241 -1.2155
12945TIP3    H260327   2.760   2.363  15.884 -0.1830 -0.5305 -0.3590
12946TIP3   OH260328   3.018   1.412  16.003  1.2739 -0.3747  0.4409
12946TIP3    H160329   3.039   1.364  15.923  0.6487 -1.0863  0.6946
12946TIP3    H260330   2.948   1.361  16.044  1.0891  0.3774  1.0739
12947TIP3   OH260331   0.792   3.772  13.204  0.1198 -0.1862  0.0075
12947TIP3    H160332   0.736   3.783  13.127  0.1678 -2.8319 -0.5166
12947TIP3    H260333   0.739   3.806  13.276 -1.6680 -1.3252 -0.6723
12948TIP3   OH260334   1.415   1.938   3.045 -0.0594 -1.2609  0.1621
12948TIP3    H160335   1.422   2.021   2.998  0.2186 -1.2711  0.1884
12948TIP3    H260336   1.470   1.877   2.996  0.4143 -1.2160  0.6276
12949TIP3   OH260337   4.780   3.845   1.014 -0.5619  0.0331  0.3069
12949TIP3    H160338   4.761   3.819   1.104 -2.1406 -2.6253 -0.6782
12949TIP3    H260339   4.715   3.798   0.961  1.0142  0.5892 -2.3088
12950TIP3   OH260340   6.690   1.069   6.512 -0.1788 -0.6226  0.3541
12950TIP3    H160341   6.778   1.095   6.541  0.0894 -0.5098 -0.5158
12950TIP3    H260342   6.674   0.985   6.554  1.8442 -2.4535 -2.2043
12951TIP3   OH260343   6.174   1.233  16.371 -0.2451 -0.0169 -0.0381
12951TIP3    H160344   6.137   1.150  16.340 -0.0200 -1.8367  3.9871
12951TIP3    H260345   6.268   1.215  16.381 -0.2468  0.5550  1.2185
12952TIP3   OH260346   5.134   2.002  14.896 -0.3304  0.5531 -0.3334
12952TIP3    H160347   5.084   1.936  14.846 -1.2103  0.1053  1.0783
12952TIP3    H260348   5.074   2.029  14.965  1.5936 -0.4890  1.8729
12953TIP3   OH260349   0.639   3.429   4.544 -0.0329 -0.4664  0.0879
12953TIP3    H160350   0.566   3.468   4.591 -0.3724 -0.2894 -0.5686
12953TIP3    H260351   0.697   3.395   4.612 -0.4810 -0.1628  0.6238
12954TIP3   OH260352   1.755   4.074  15.662  0.1223  0.1525 -0.5679
12954TIP3    H160353   1.791   4.090  15.575  1.0423 -0.6297 -0.3454
12954TIP3    H260354   1.693   4.002  15.650  0.4559 -0.1417 -0.5301
12955TIP3   OH260355   6.261   2.378  17.062 -0.3998 -0.1841 -1.1189
12955TIP3    H160356   6.208   2.447  17.102  0.0447 -0.5910  0.2225
12955TIP3    H260357   6.351   2.402  17.080 -0.2381 -1.0870 -0.6563
12956TIP3   OH260358   1.215   4.035   3.738 -0.1766  0.3031  0.0369
12956TIP3    H160359   1.298   3.998   3.707 -1.1369 -1.6691 -0.3418
12956TIP3    H260360   1.180   3.969   3.797 -2.3190  0.2215 -1.2082
12957TIP3   OH260361   0.944   4.517   1.224  0.7316 -0.6045 -0.5370
12957TIP3    H160362   0.880   4.588   1.221 -0.8822 -1.9630  0.3843
12957TIP3    H260363   0.954   4.490   1.133 -0.7491 -0.9962 -0.6014
12958TIP3   OH260364   1.086   6.590  10.973 -0.5544 -0.0018 -0.0574
12958TIP3    H160365   1.104   6.674  11.015 -0.0833  0.2537 -0.7528
12958TIP3    H260366   1.085   6.527  11.045 -1.6738  0.7020  0.5709
12959TIP3   OH260367   3.807   4.323   5.816  0.6045  0.3815  0.0926
12959TIP3    H160368   3.809   4.314   5.911  2.7912 -1.0259  0.0054
12959TIP3    H260369   3.860   4.400   5.797  0.7292  0.2711 -0.0106
12960TIP3   OH260370   0.771   2.232   1.306 -0.0402 -0.1700 -0.0259
12960TIP3    H160371   0.850   2.205   1.353  1.8754  1.8432 -1.8813
12960TIP3    H260372   0.726   2.290   1.367  1.3656  0.8378  0.1097
12961TIP3   OH260373   4.613   2.989   6.923  0.4428 -0.6047  1.2045
12961TIP3    H160374   4.598   2.920   6.987  0.0050 -1.2194  0.4488
12961TIP3    H260375   4.623   2.944   6.839  1.2618  0.1691  0.8571
12962TIP3   OH260376   4.800   3.483  16.097  0.0427  0.0746 -0.4128
12962TIP3    H160377   4.806   3.569  16.055 -1.9832  0.1939 -0.5722
12962TIP3    H260378   4.795   3.421  16.024 -0.4876  0.0155 -0.3319
12963TIP3   OH260379   0.948   3.791  15.630 -0.2405  0.0394  0.4571
12963TIP3    H160380   0.926   3.834  15.712  2.2400  0.3519  1.0197
12963TIP3    H260381   0.903   3.843  15.563 -0.6161  1.0065  1.4299
12964TIP3   OH260382   5.124   2.313  15.365 -0.2642 -0.0733  0.4133
12964TIP3    H160383   5.164   2.256  15.431 -1.5154  0.4239  1.6543
12964TIP3    H260384   5.042   2.270  15.342 -0.3074  0.2667 -0.0960
12965TIP3   OH260385   5.523   0.994  11.258  0.0097 -0.1088  0.5830
12965TIP3    H160386   5.611   0.979  11.292  0.1543 -1.1228 -0.1884
12965TIP3    H260387   5.465   0.965  11.329  0.3087 -0.7035  0.5920
12966TIP3   OH260388   0.634   4.315   2.753 -0.0485  0.0464  0.0418
12966TIP3    H160389   0.641   4.401   2.711 -0.8448  0.1054  0.0108
12966TIP3    H260390   0.543   4.311   2.784 -0.7091 -1.6552 -1.9037
12967TIP3   OH260391   5.057   0.980  15.681 -0.1067 -0.3769  0.1739
12967TIP3    H160392   5.062   0.888  15.656  0.2151 -0.3371  0.0887
12967TIP3    H260393   5.019   1.023  15.605  4.0010  0.3044 -1.7716
12968TIP3   OH260394   3.467   4.724  16.484  0.2647 -0.0391  0.2162
12968TIP3    H160395   3.472   4.632  16.459  0.7196 -0.1782  0.7973
12968TIP3    H260396   3.474   4.772  16.401  0.1368 -0.5154 -0.0759
12969TIP3   OH260397   0.733   1.064  11.715  0.0851 -0.3403 -0.0205
12969TIP3    H160398   0.819   1.052  11.674  1.4684  1.3872  2.1403
12969TIP3    H260399   0.684   0.985  11.692  2.3902 -1.5790 -0.9981
12970TIP3   OH260400   5.620   4.285  14.785  0.2878 -0.0834 -0.3828
12970TIP3    H160401   5.612   4.352  14.853  0.4232  0.5261 -0.9536
12970TIP3    H260402   5.705   4.303  14.744  0.5572 -0.9282 -0.2130
12971TIP3   OH260403   1.542   1.359  13.761 -0.0770 -0.1525  0.6812
12971TIP3    H160404   1.582   1.385  13.844 -1.0561 -0.9108  1.4145
12971TIP3    H260405   1.559   1.265  13.755  2.1153  0.2748 -1.1974
12972TIP3   OH260406   3.795   3.911   0.437 -0.7027 -0.6016 -0.3522
12972TIP3    H160407   3.880   3.934   0.401 -0.9774 -0.7721 -1.1422
12972TIP3    H260408   3.811   3.894   0.530  0.2992 -1.5371 -0.6801
12973TIP3   OH260409   1.329   5.816   2.847  1.0144  0.0152  0.0329
12973TIP3    H160410   1.244   5.838   2.885  1.7481 -0.2725  1.9903
12973TIP3    H260411   1.369   5.900   2.827  0.8114  0.2074  0.4120
12974TIP3   OH260412   6.432   5.057  13.484  0.0567  0.1026 -0.0782
12974TIP3    H160413   6.466   4.971  13.460 -1.7538 -1.2335  1.7901
12974TIP3    H260414   6.352   5.066  13.431  0.6194  0.9977 -0.8060
12975TIP3   OH260415   6.436   3.544   4.473 -0.6148  0.1062  0.1477
12975TIP3    H160416   6.389   3.468   4.439 -0.1459  0.1104 -0.5277
12975TIP3    H260417   6.505   3.561   4.409  0.0718  0.3334  0.9233
12976TIP3   OH260418   0.649   6.061  13.750  0.1283  0.1773  0.1397
12976TIP3    H160419   0.569   6.054  13.697  0.2536  0.3856 -0.0801
12976TIP3    H260420   0.720   6.053  13.686  0.3471  3.9247 -0.2967
12977TIP3   OH260421   5.322   6.690   0.361 -0.7175 -0.3599  0.5633
12977TIP3    H160422   5.261   6.734   0.421 -1.4767 -1.9026  0.9611
12977TIP3    H260423   5.270   6.671   0.283 -0.3395 -0.3904  0.3156
12978TIP3   OH260424   5.121   0.954   4.875 -0.4912 -0.2647 -0.1077
12978TIP3    H160425   5.180   1.027   4.858 -0.6089 -0.2732 -0.5569
12978TIP3    H260426   5.034   0.990   4.858 -0.5691 -0.4391 -0.0761
12979TIP3   OH260427   1.892   2.346  12.628  0.1587 -0.4550  0.0495
12979TIP3    H160428   1.932   2.433  12.630  0.8632 -0.7517 -0.8445
12979TIP3    H260429   1.964   2.287  12.649 -0.5373 -0.7705  1.7024
12980TIP3   OH260430   6.155   0.095   5.400 -0.0310  0.1412 -0.4760
12980TIP3    H160431   6.245   0.113   5.424 -0.2874 -0.6182  1.1361
12980TIP3    H260432   6.153   0.109   5.305  1.7275  0.3036 -0.5231
12981TIP3   OH260433   1.557   4.671   5.887 -0.4198 -0.2838  0.1248
12981TIP3    H160434   1.549   4.759   5.924 -0.6757 -0.4367  0.4347
12981TIP3    H260435   1.479   4.625   5.917  0.0958 -0.8542  0.6290
12982TIP3   OH260436   2.784   0.072   2.675 -0.7126  0.4610 -0.1216
12982TIP3    H160437   2.728   0.149   2.676 -0.2168  0.8270  0.0746
12982TIP3    H260438   2.728   0.002   2.643 -0.8803  1.1233 -1.3449
12983TIP3   OH260439   3.405   4.484   6.003  0.0684 -0.0051  0.2977
12983TIP3    H160440   3.427   4.535   6.081  1.5846 -0.2203  0.0549
12983TIP3    H260441   3.412   4.547   5.930  0.2456 -0.1622  0.1770
12984TIP3   OH260442   1.643   1.940   6.220  0.2631 -0.3370 -0.2898
12984TIP3    H160443   1.663   1.850   6.248  0.7349 -0.3483 -0.6624
12984TIP3    H260444   1.564   1.931   6.166  0.0698 -0.4723  0.0108
12985TIP3   OH260445   4.746   2.295   1.689 -0.1940  0.3628 -0.2786
12985TIP3    H160446   4.797   2.304   1.769  0.4605  2.2988 -0.8567
12985TIP3    H260447   4.656   2.286   1.719  0.2954 -2.0126  0.7176
12986TIP3   OH260448   0.994   1.811  13.148 -0.3224  0.1057 -0.0967
12986TIP3    H160449   0.966   1.808  13.057 -0.6547 -0.4666  0.0234
12986TIP3    H260450   0.913   1.808  13.199 -0.0615 -2.1968  0.2727
12987TIP3   OH260451   0.361   1.279  15.174  0.4013  0.0055  0.4716
12987TIP3    H160452   0.346   1.189  15.201 -0.1556  0.2903  1.1449
12987TIP3    H260453   0.456   1.291  15.181  0.6877 -0.9842 -1.1644
12988TIP3   OH260454   0.997   4.082   0.078  0.0536 -0.0685  0.2706
12988TIP3    H160455   0.985   4.125   0.163 -0.4992  0.3134  0.0046
12988TIP3    H260456   1.006   4.154   0.016 -2.0142 -0.2910 -0.3457
12989TIP3   OH260457   1.508   2.901   5.538  0.5683  0.3105  0.1479
12989TIP3    H160458   1.446   2.828   5.542 -1.0745  1.6275 -0.3739
12989TIP3    H260459   1.538   2.912   5.629 -0.3915  0.0048  0.5102
12990TIP3   OH260460   5.802   4.467  15.316 -0.3522  0.0372  0.0014
12990TIP3    H160461   5.735   4.456  15.249  0.0222 -0.1886 -0.3437
12990TIP3    H260462   5.769   4.537  15.372 -0.7437  0.1214 -0.3297
12991TIP3   OH260463   1.691   1.317  14.503  0.5301  0.5472 -0.5547
12991TIP3    H160464   1.647   1.237  14.532  2.3684 -1.0195 -1.7923
12991TIP3    H260465   1.696   1.308  14.407  2.8310  0.9433 -0.5403
12992TIP3   OH260466   2.698   1.090  13.996  0.4130 -0.3972 -0.0982
12992TIP3    H160467   2.764   1.036  13.952  0.5198  1.4137 -2.3792
12992TIP3    H260468   2.622   1.032  14.004  0.8446 -1.2262 -1.5065
12993TIP3   OH260469   0.935   2.895  15.873  0.4580 -0.3721  0.3615
12993TIP3    H160470   0.929   2.890  15.777 -2.1680 -1.9655  0.5049
12993TIP3    H260471   1.017   2.850  15.894  1.1029  0.0474 -1.1275
12994TIP3   OH260472   2.054   0.930   3.342  0.7149  0.3397  0.5554
12994TIP3    H160473   2.117   1.001   3.328  0.3925  0.5501  0.1760
12994TIP3    H260474   2.001   0.929   3.263  0.2069  0.1919  0.8980
12995TIP3   OH260475   3.197   3.094  15.006 -0.1166 -0.0879 -0.0444
12995TIP3    H160476   3.146   3.122  15.083  2.1354 -0.2300  1.5960
12995TIP3    H260477   3.131   3.079  14.938 -2.2278 -0.0109  1.8590
12996TIP3   OH260478   2.948   3.147  13.423 -0.6286  0.7324  0.5200
12996TIP3    H160479   2.911   3.175  13.340 -0.2445 -1.8550 -0.6378
12996TIP3    H260480   3.042   3.157  13.413 -0.6209  1.0540  0.9018
12997TIP3   OH260481   0.966   6.011  11.856 -0.4438  0.0051  0.0984
12997TIP3    H160482   1.048   6.060  11.863  0.5867 -1.5577 -0.6181
12997TIP3    H260483   0.960   5.988  11.764 -0.4991 -1.8566  0.5336
12998TIP3   OH260484   6.791   3.837  16.009  0.1519  0.8828  0.0820
12998TIP3    H160485   6.790   3.889  16.090 -1.0874  0.1604  0.5596
12998TIP3    H260486   6.883   3.816  15.996  0.5466  2.2508  0.4914
12999TIP3   OH260487   5.528   4.208  13.460  0.3443 -0.2270 -0.8147
12999TIP3    H160488   5.602   4.259  13.494  0.3836 -1.9062  1.9543
12999TIP3    H260489   5.454   4.233  13.516 -0.1401 -1.5757 -0.8150
13000TIP3   OH260490   1.974   2.709   1.555  0.2189  0.1210  0.0977
13000TIP3    H160491   2.055   2.659   1.544  0.9984  1.1697  0.8962
13000TIP3    H260492   1.990   2.765   1.631 -2.0790 -1.2294  1.7012
13001TIP3   OH260493   2.169   1.762  13.316  0.3962 -0.1105  0.3827
13001TIP3    H160494   2.113   1.832  13.282 -0.3646 -0.5821  0.6286
13001TIP3    H260495   2.210   1.724  13.239 -1.3498 -1.2055 -0.0712
13002TIP3   OH260496   0.970   3.218   6.002  0.3633 -0.5409  0.8762
13002TIP3    H160497   0.980   3.197   6.095 -1.1264 -0.5174  1.0589
13002TIP3    H260498   0.998   3.138   5.957  1.1501 -0.5354  1.3271
13003TIP3   OH260499   5.133   2.500  11.573  0.0968 -0.4607 -0.7355
13003TIP3    H160500   5.041   2.520  11.553 -1.1719 -1.1049  3.5432
13003TIP3    H260501   5.144   2.409  11.547 -1.1981 -1.0444  0.6238
13004TIP3   OH260502   2.022   1.885  11.407 -0.2714 -0.5232  0.4239
13004TIP3    H160503   2.077   1.853  11.479  0.5459  0.4648  0.2525
13004TIP3    H260504   2.073   1.865  11.328 -1.4489 -2.2054  0.0184
13005TIP3   OH260505   0.272   3.150  13.837 -1.0293 -0.8747 -0.3678
13005TIP3    H160506   0.357   3.113  13.815 -1.2032 -0.3658 -2.0398
13005TIP3    H260507   0.212   3.113  13.772 -2.0009 -0.8754  0.5037
13006TIP3   OH260508   4.320   3.184  12.792  0.1645 -0.2974  0.0476
13006TIP3    H160509   4.230   3.215  12.798 -0.4121 -1.8695 -0.0317
13006TIP3    H260510   4.334   3.170  12.698  0.3338 -0.5292  0.1075
13007TIP3   OH260511   0.118   1.613  15.395  0.0055 -0.0224 -0.0698
13007TIP3    H160512   0.065   1.614  15.316 -1.8264  0.1406  1.0920
13007TIP3    H260513   0.129   1.521  15.416  1.4445 -0.1089 -1.0749
13008TIP3   OH260514   4.715   0.062  14.308 -0.0157 -0.2741 -0.2456
13008TIP3    H160515   4.797   0.020  14.334  0.0713 -1.6170 -2.4608
13008TIP3    H260516   4.731   0.156  14.323  0.5761 -0.7345  2.6776
13009TIP3   OH260517   4.928   5.013  10.419 -0.1802 -0.0902  0.1170
13009TIP3    H160518   4.886   4.930  10.441  1.9910 -1.2048  0.2938
13009TIP3    H260519   4.937   5.010  10.323 -0.1596 -0.0391  0.1173
13010TIP3   OH260520   3.621   1.470  16.174  0.0875  0.0585  1.0365
13010TIP3    H160521   3.698   1.513  16.136 -1.2062  1.1480 -0.5298
13010TIP3    H260522   3.553   1.538  16.174 -0.6383 -0.5918  3.2716
13011TIP3   OH260523   5.422   3.331  11.587 -0.1303 -0.4233 -0.2357
13011TIP3    H160524   5.481   3.313  11.660 -0.7672 -0.9869  0.1579
13011TIP3    H260525   5.397   3.245  11.555  0.5780 -0.1765 -1.4957
13012TIP3   OH260526   0.146   5.866  10.526 -0.2476  0.2176  0.4227
13012TIP3    H160527   0.119   5.778  10.552  0.4190  0.0577  0.5739
13012TIP3    H260528   0.120   5.872  10.434  0.6911 -0.5378  0.0947
13013TIP3   OH260529   2.593   0.446   1.831  0.0282  0.2632  0.0961
13013TIP3    H160530   2.639   0.362   1.826 -0.7417 -0.2263  0.9187
13013TIP3    H260531   2.502   0.425   1.813 -0.9402  0.1643  4.1071
13014TIP3   OH260532   0.846   5.063   5.296 -0.6108 -0.1780  0.8239
13014TIP3    H160533   0.827   5.120   5.370 -0.1460 -1.2770  1.8036
13014TIP3    H260534   0.821   5.115   5.219 -0.6689  1.1450  1.7107
13015TIP3   OH260535   4.007   6.780  12.494  0.5862 -0.3851 -0.4852
13015TIP3    H160536   3.934   6.752  12.549  0.8473 -0.4783 -0.1794
13015TIP3    H260537   3.984   6.870  12.468  0.9138  0.0271  0.5988
13016TIP3   OH260538   5.443   6.508   1.799 -0.2757  0.1165 -0.1581
13016TIP3    H160539   5.500   6.449   1.849  0.6572  1.1437  0.0111
13016TIP3    H260540   5.469   6.596   1.826 -0.8843  0.6481 -1.2385
13017TIP3   OH260541   3.837   4.966   3.166  0.0360  0.0007 -0.4086
13017TIP3    H160542   3.855   5.029   3.096 -0.0410  1.2021  0.6246
13017TIP3    H260543   3.741   4.965   3.173 -0.0273 -1.0228 -1.0928
13018TIP3   OH260544   5.610   6.837   3.103 -0.5716 -0.2673 -0.2263
13018TIP3    H160545   5.615   6.807   3.194  0.7197 -0.5071 -0.3558
13018TIP3    H260546   5.522   6.875   3.095 -0.8491 -0.6049  1.0018
13019TIP3   OH260547   0.051   2.249   5.146  0.1003  0.2845 -0.2071
13019TIP3    H160548   0.130   2.201   5.171 -0.4146  0.1843  1.3398
13019TIP3    H260549   0.080   2.309   5.078  1.1421 -0.9363 -0.8922
13020TIP3   OH260550   0.887   6.204   2.576  0.6950  0.7534 -0.3929
13020TIP3    H160551   0.917   6.246   2.496 -0.0774 -0.6374 -1.4524
13020TIP3    H260552   0.842   6.274   2.624  1.0316  1.5671 -1.2245
13021TIP3   OH260553   1.489   1.777   0.921 -0.7013  0.3567  0.1282
13021TIP3    H160554   1.502   1.830   0.842  0.4239  0.3116  0.2586
13021TIP3    H260555   1.552   1.812   0.984  0.3841 -1.3824  0.0681
13022TIP3   OH260556   1.472   1.055  14.993  0.2167  0.1468  0.3836
13022TIP3    H160557   1.389   1.079  14.953  1.1868  1.2069 -1.1025
13022TIP3    H260558   1.448   0.998  15.067 -1.7350 -0.3928 -0.6065
13023TIP3   OH260559   0.930   6.535   0.946 -0.2431 -0.3988  0.1048
13023TIP3    H160560   0.910   6.627   0.962  1.1168  0.0660 -0.7420
13023TIP3    H260561   0.989   6.510   1.017  0.3523 -0.2696 -0.3414
13024TIP3   OH260562   5.385   0.692   3.000  0.3115 -0.7027 -0.1592
13024TIP3    H160563   5.456   0.668   2.940  0.0392 -0.5363 -0.5513
13024TIP3    H260564   5.392   0.628   3.072  2.6346  0.9982  1.2575
13025TIP3   OH260565   6.506   1.294  15.020 -0.0762 -0.5680  0.7335
13025TIP3    H160566   6.518   1.339  14.937 -1.9521 -1.0196  0.1681
13025TIP3    H260567   6.522   1.201  15.000 -1.0534 -0.7451  0.7346
13026TIP3   OH260568   2.459   0.601   3.737  0.1557  0.5086 -0.2073
13026TIP3    H160569   2.500   0.685   3.715 -0.6478  1.0899  0.4813
13026TIP3    H260570   2.446   0.604   3.831  0.0498 -0.3723 -0.1833
13027TIP3   OH260571   1.433   4.275   0.081  0.2711 -0.6708  0.1416
13027TIP3    H160572   1.379   4.200   0.109 -1.1093  0.1231 -0.2855
13027TIP3    H260573   1.516   4.236   0.055  0.5181 -1.7680  2.3727
13028TIP3   OH260574   5.171   3.434   3.318  0.2418 -0.3435  0.0194
13028TIP3    H160575   5.129   3.482   3.389  1.6491  0.2110  0.5126
13028TIP3    H260576   5.180   3.499   3.248  3.0488  0.5143  1.0386
13029TIP3   OH260577   0.593   5.021  14.265 -0.2967 -0.0922  0.0394
13029TIP3    H160578   0.665   5.016  14.201 -0.7120 -0.6599 -0.3903
13029TIP3    H260579   0.524   5.070  14.219 -0.5346 -0.3595  0.1100
13030TIP3   OH260580   1.038   5.573  15.254 -0.2724  0.1308 -0.2023
13030TIP3    H160581   1.105   5.641  15.242 -1.8797  1.7333 -0.5952
13030TIP3    H260582   0.957   5.622  15.268 -1.3421 -1.7414  0.5039
13031TIP3   OH260583   3.259   1.805  15.752  0.8179  0.3139 -0.3432
13031TIP3    H160584   3.201   1.793  15.827  0.6927  1.8325 -0.1659
13031TIP3    H260585   3.202   1.792  15.676  0.8155 -0.6618 -0.1803
13032TIP3   OH260586   2.560   0.789  12.016 -0.0048 -0.6633  0.0596
13032TIP3    H160587   2.466   0.775  12.022  0.0724 -1.6474 -0.7374
13032TIP3    H260588   2.582   0.765  11.926  1.1828 -1.6874  0.5797
13033TIP3   OH260589   5.378   4.387   2.632  0.1094 -0.1643  0.5528
13033TIP3    H160590   5.322   4.465   2.626  2.1723  1.4143  0.6890
13033TIP3    H260591   5.456   4.410   2.582  0.6942 -2.2485  0.4343
13034TIP3   OH260592   0.400   0.755   2.215  0.0920 -0.5557 -0.0972
13034TIP3    H160593   0.431   0.844   2.233 -0.8578 -0.4126  0.9107
13034TIP3    H260594   0.432   0.703   2.289 -2.4682 -0.2868  1.3041
13035TIP3   OH260595   5.661   2.471   1.348  0.4568 -0.4684  0.3361
13035TIP3    H160596   5.702   2.457   1.263 -1.0340  0.6052 -0.6080
13035TIP3    H260597   5.644   2.383   1.382  1.1146 -0.9032 -0.4426
13036TIP3   OH260598   3.628   2.784   4.855  0.1195  0.2058  0.2564
13036TIP3    H160599   3.694   2.849   4.830 -0.5158  1.0964  0.8014
13036TIP3    H260600   3.546   2.833   4.858 -0.1206 -0.2026  2.3244
13037TIP3   OH260601   2.216   0.880  11.574 -0.0148 -0.2090  0.2159
13037TIP3    H160602   2.143   0.851  11.630  1.6892 -1.0526  2.1652
13037TIP3    H260603   2.197   0.972  11.555 -0.7887  0.0667  2.0786
13038TIP3   OH260604   3.598   6.345  11.072 -0.2516 -0.0883 -0.0010
13038TIP3    H160605   3.676   6.368  11.022  0.1521  1.6599  1.3071
13038TIP3    H260606   3.525   6.360  11.011  0.3045  0.6670 -0.4997
13039TIP3   OH260607   2.118   6.793   2.697  0.4286  0.3080 -0.1044
13039TIP3    H160608   2.096   6.882   2.727 -2.4856 -0.3620 -0.0045
13039TIP3    H260609   2.054   6.774   2.629  1.0113 -1.7370 -0.1300
13040TIP3   OH260610   2.368   6.513   3.555 -0.2215  0.4024 -0.0595
13040TIP3    H160611   2.291   6.469   3.591  0.3941 -0.0653  0.7270
13040TIP3    H260612   2.381   6.472   3.470  1.2088 -2.1165  1.2380
13041TIP3   OH260613   2.154   2.616   1.255 -0.7487  0.0714 -0.2206
13041TIP3    H160614   2.136   2.699   1.300  0.0774 -0.7507  1.7395
13041TIP3    H260615   2.094   2.615   1.181 -1.0706  2.2227 -0.0407
13042TIP3   OH260616   5.327   5.676   6.016  0.2374  0.2211  0.1239
13042TIP3    H160617   5.317   5.713   5.928 -1.2612  2.5531  1.2008
13042TIP3    H260618   5.421   5.679   6.032  0.2990  2.2953 -0.4078
13043TIP3   OH260619   3.720   0.227   5.078 -0.6527 -0.3810 -0.0276
13043TIP3    H160620   3.783   0.285   5.035 -1.3669  0.1693 -0.3557
13043TIP3    H260621   3.651   0.285   5.108 -1.4356 -1.0706 -0.4536
13044TIP3   OH260622   4.128   6.741   4.516 -0.0236  0.1438 -0.1543
13044TIP3    H160623   4.045   6.697   4.536 -0.5510 -0.1307 -2.6890
13044TIP3    H260624   4.185   6.672   4.482  0.8904  0.5351  0.5288
13045TIP3   OH260625   0.781   2.022  15.326 -0.6270 -0.4987 -0.0630
13045TIP3    H160626   0.699   1.984  15.360 -0.7238 -1.5412 -1.3637
13045TIP3    H260627   0.754   2.103  15.284 -0.7425 -0.0224  0.9080
13046TIP3   OH260628   6.701   4.911  14.242 -1.1595 -0.4236 -0.0081
13046TIP3    H160629   6.663   4.967  14.310 -0.8591 -0.3612  0.1099
13046TIP3    H260630   6.625   4.874  14.197 -1.3618 -0.8801  0.6946
13047TIP3   OH260631   6.439   3.279   4.605  0.1151  0.2479  0.5347
13047TIP3    H160632   6.406   3.318   4.686  0.5546  2.4631 -0.2965
13047TIP3    H260633   6.368   3.287   4.543  0.5667  0.6873  0.0660
13048TIP3   OH260634   6.478   0.653   4.711 -0.2973 -0.2551  0.2910
13048TIP3    H160635   6.499   0.569   4.670  1.8575 -1.2857  3.1273
13048TIP3    H260636   6.393   0.639   4.752 -1.5909  0.1898 -2.0856
13049TIP3   OH260637   3.769   3.652   2.041 -0.0260  0.3112  0.1582
13049TIP3    H160638   3.800   3.606   2.119 -1.9419  0.2578  0.9302
13049TIP3    H260639   3.764   3.584   1.974  0.7117  0.1640  0.2433
13050TIP3   OH260640   0.100   6.226  17.205 -0.3255 -0.0919  0.4478
13050TIP3    H160641   0.007   6.236  17.184 -0.2451  0.7582  0.4454
13050TIP3    H260642   0.144   6.223  17.120 -0.3534 -0.5261  0.4493
13051TIP3   OH260643   6.684   6.290  17.165  0.3719  0.0866 -0.0762
13051TIP3    H160644   6.665   6.357  17.231  0.5950 -1.4564  1.6228
13051TIP3    H260645   6.598   6.254  17.143  0.3800 -0.0403  0.0945
13052TIP3   OH260646   5.609   2.447  11.798 -0.1148 -0.5429  0.2788
13052TIP3    H160647   5.569   2.401  11.872  1.7738 -1.7239  0.6538
13052TIP3    H260648   5.550   2.430  11.724 -1.2358 -0.6362  1.1656
13053TIP3   OH260649   1.324   2.026  13.861  0.5260 -0.3967  0.1241
13053TIP3    H160650   1.323   2.087  13.787 -1.4742 -1.5441 -0.8939
13053TIP3    H260651   1.250   1.967  13.844 -0.3017 -0.4387  3.2824
13054TIP3   OH260652   3.827   5.557   2.792 -0.2869  0.7246 -0.5578
13054TIP3    H160653   3.832   5.650   2.769 -0.3776  0.6382 -0.9384
13054TIP3    H260654   3.763   5.553   2.863  1.9092  1.3217  1.5825
13055TIP3   OH260655   5.263   4.209  11.853 -0.3843 -0.1037  0.3799
13055TIP3    H160656   5.203   4.218  11.928 -2.4226  1.3234 -1.2955
13055TIP3    H260657   5.288   4.299  11.833  1.6839 -0.6139  0.4629
13056TIP3   OH260658   0.721   3.761  11.019 -0.3471 -0.5184  0.0714
13056TIP3    H160659   0.655   3.804  10.964 -0.1001 -0.7590 -0.4173
13056TIP3    H260660   0.696   3.669  11.018  0.6475 -0.7954 -1.0550
13057TIP3   OH260661   3.817   5.863  12.152  0.1756 -0.5473  0.2074
13057TIP3    H160662   3.829   5.871  12.246 -0.3925  2.5249  0.1004
13057TIP3    H260663   3.727   5.830  12.142 -0.5833  1.2049  0.7893
13058TIP3   OH260664   2.678   3.020   0.972  0.3755  0.0267  0.2520
13058TIP3    H160665   2.685   3.068   0.889  2.5644  0.1143  0.4081
13058TIP3    H260666   2.716   2.934   0.953 -1.1389 -0.7590  0.6387
13059TIP3   OH260667   6.180   4.334  16.197  0.1081 -0.1607  0.1549
13059TIP3    H160668   6.249   4.270  16.178  2.0402  2.2890 -1.7687
13059TIP3    H260669   6.156   4.369  16.111  0.7294  3.2232  1.2453
13060TIP3   OH260670   2.035   0.225  14.734  0.2223 -0.0269 -0.7343
13060TIP3    H160671   2.115   0.252  14.690 -0.1129  1.2403 -0.6056
13060TIP3    H260672   2.050   0.134  14.757  1.1472 -0.1608 -1.7831
13061TIP3   OH260673   5.047   4.669   5.383 -0.3250  0.2100 -0.4354
13061TIP3    H160674   5.108   4.668   5.309  0.1161 -0.9163 -0.0661
13061TIP3    H260675   4.989   4.744   5.365  0.1928  0.3527 -1.5726
13062TIP3   OH260676   2.198   2.693  13.028 -0.2698  0.3064 -0.3484
13062TIP3    H160677   2.104   2.712  13.034 -0.0856  1.2503 -0.4138
13062TIP3    H260678   2.202   2.597  13.020 -1.1603  0.1406  0.9227
13063TIP3   OH260679   2.677   3.979   3.925 -0.0366 -0.5662  0.1450
13063TIP3    H160680   2.676   3.918   3.851  2.0054  0.0112 -0.4372
13063TIP3    H260681   2.611   3.946   3.985 -0.8098 -1.8291 -1.3412
13064TIP3   OH260682   3.478   5.670   3.689 -0.0838 -0.2104 -0.0945
13064TIP3    H160683   3.412   5.671   3.620 -0.2173  1.8920  0.0202
13064TIP3    H260684   3.461   5.587   3.735 -3.4152  0.7070  0.6351
13065TIP3   OH260685   6.275   2.508   5.457 -0.0828  0.2910  0.2262
13065TIP3    H160686   6.242   2.460   5.534 -0.5360  1.8464  1.0404
13065TIP3    H260687   6.245   2.455   5.383 -2.2002  0.2448  1.0228
13066TIP3   OH260688   1.555   5.933  12.451  0.2391 -0.0994  0.1742
13066TIP3    H160689   1.477   5.983  12.427  0.8304  0.6914 -0.1664
13066TIP3    H260690   1.602   5.990  12.512  0.5419 -0.5758  0.3963
13067TIP3   OH260691   1.082   6.468  16.867  0.0853  0.4160  0.1636
13067TIP3    H160692   1.109   6.382  16.834  0.0535  0.5949 -0.3325
13067TIP3    H260693   1.046   6.513  16.791 -1.0772  0.4000  0.6894
13068TIP3   OH260694   2.971   5.352  10.621  0.6155 -0.7476 -0.0647
13068TIP3    H160695   3.021   5.433  10.625  0.0491 -0.3474 -0.9156
13068TIP3    H260696   3.035   5.283  10.640  1.7382 -0.3273 -2.0713
13069TIP3   OH260697   0.542   3.885  13.333 -0.4022 -0.5101  0.3471
13069TIP3    H160698   0.531   3.925  13.420  0.8138  1.1859 -0.2220
13069TIP3    H260699   0.476   3.927  13.279 -0.0615 -0.3186  0.0741
13070TIP3   OH260700   3.535   2.623   3.565 -0.3683  0.0952 -0.1238
13070TIP3    H160701   3.470   2.680   3.607  1.1951  1.3740  0.7072
13070TIP3    H260702   3.523   2.637   3.472  0.8914  2.9986  0.0498
13071TIP3   OH260703   4.791   0.660   2.582 -0.3404  0.1789  0.0409
13071TIP3    H160704   4.696   0.648   2.578 -0.3650 -0.0295  0.9365
13071TIP3    H260705   4.805   0.750   2.554 -0.9899  0.7971  1.5822
13072TIP3   OH260706   0.582   5.674  12.310  0.2391  0.3821 -0.2060
13072TIP3    H160707   0.628   5.607  12.258 -1.6056 -1.4073  0.3345
13072TIP3    H260708   0.640   5.690  12.385  0.5574 -0.9057 -0.1505
13073TIP3   OH260709   1.566   6.311  14.275  0.2556  0.0623 -0.5986
13073TIP3    H160710   1.489   6.290  14.223  0.8849  0.1113 -1.5614
13073TIP3    H260711   1.635   6.254  14.241  1.0711  1.1747 -0.8783
13074TIP3   OH260712   2.839   3.631  10.421 -0.3026 -0.3681  0.1079
13074TIP3    H160713   2.841   3.622  10.516  0.6030  2.2740  0.4247
13074TIP3    H260714   2.929   3.614  10.393 -0.6076 -1.3365 -0.3435
13075TIP3   OH260715   6.402   6.669  16.845  0.5391  0.2135 -0.4517
13075TIP3    H160716   6.372   6.755  16.873 -1.0632 -0.1960 -0.8148
13075TIP3    H260717   6.437   6.684  16.757  1.8962  0.7737  0.1468
13076TIP3   OH260718   2.141   5.276  15.012 -0.3607  0.4918  0.2604
13076TIP3    H160719   2.055   5.283  14.971 -0.8405  0.7344  1.2650
13076TIP3    H260720   2.188   5.212  14.960 -1.3775 -0.1194  0.0723
13077TIP3   OH260721   1.370   1.641   1.906  0.5405 -0.5694 -0.0921
13077TIP3    H160722   1.443   1.703   1.911  0.6278 -0.6045 -0.8370
13077TIP3    H260723   1.338   1.634   1.996 -0.2383  1.4583 -0.1549
13078TIP3   OH260724   2.339   5.825   2.815  0.1883  0.3352 -0.0911
13078TIP3    H160725   2.361   5.732   2.816  0.1003  0.2341  2.7433
13078TIP3    H260726   2.298   5.840   2.730  2.0167 -1.7341 -1.4290
13079TIP3   OH260727   3.522   0.369  14.316  0.2427  0.4027 -0.0968
13079TIP3    H160728   3.587   0.430  14.352 -0.5880  0.2709  1.7782
13079TIP3    H260729   3.442   0.387  14.366 -0.5399 -0.9508 -0.7898
13080TIP3   OH260730   6.049   0.549   4.468 -0.1634  0.4385 -0.3104
13080TIP3    H160731   5.977   0.516   4.413  0.4922 -0.6208 -0.5529
13080TIP3    H260732   6.051   0.489   4.543  2.0523 -1.1309 -1.5152
13081TIP3   OH260733   0.513   2.927   4.160  0.4539 -0.0393 -0.0762
13081TIP3    H160734   0.553   2.997   4.211 -0.2828  0.6116 -0.3807
13081TIP3    H260735   0.572   2.916   4.085  1.0550 -0.3816  0.4372
13082TIP3   OH260736   3.705   3.950  13.608  0.2405 -0.3868 -0.0831
13082TIP3    H160737   3.749   4.002  13.675  0.9765  2.3138 -2.4944
13082TIP3    H260738   3.676   4.014  13.543 -3.6369 -2.4543 -0.6989
13083TIP3   OH260739   6.032   1.241   6.210  0.2467 -0.5276 -0.3837
13083TIP3    H160740   5.968   1.198   6.266 -0.4525 -0.0271 -0.7764
13083TIP3    H260741   6.108   1.256   6.266 -1.4855  2.6848  1.4114
13084TIP3   OH260742   5.513   4.379   2.294 -0.1801  0.3910  0.7654
13084TIP3    H160743   5.549   4.292   2.278  2.5230  1.2883  1.4292
13084TIP3    H260744   5.534   4.397   2.386 -1.6028  1.3950  0.9412
13085TIP3   OH260745   2.317   2.248   1.636  0.1609  0.0691 -0.5810
13085TIP3    H160746   2.391   2.275   1.582  1.3254 -2.1952 -0.2595
13085TIP3    H260747   2.279   2.173   1.588 -0.4392 -0.2969  0.4316
13086TIP3   OH260748   1.103   5.641   3.118  0.1387  0.1751  0.2078
13086TIP3    H160749   1.182   5.587   3.129 -0.4341 -0.8608 -0.5970
13086TIP3    H260750   1.070   5.617   3.031 -1.0633  0.5837  0.5395
13087TIP3   OH260751   6.450   2.576  13.888  0.2381 -0.0031 -0.6022
13087TIP3    H160752   6.360   2.543  13.884  0.8196 -1.7140 -0.3079
13087TIP3    H260753   6.491   2.542  13.808  0.8107  0.1516 -0.3789
13088TIP3   OH260754   3.124   2.697   3.658 -0.0570  0.4364 -0.0415
13088TIP3    H160755   3.199   2.754   3.674  1.6317 -1.9009  1.1069
13088TIP3    H260756   3.151   2.643   3.583 -1.1457  0.4207 -0.4354
13089TIP3   OH260757   2.895   5.738   1.000 -0.0544 -0.3474  0.4325
13089TIP3    H160758   2.962   5.693   0.949 -0.2009 -2.4403  1.9289
13089TIP3    H260759   2.842   5.785   0.935  2.8664  1.5354 -0.7910
13090TIP3   OH260760   6.074   2.633  11.625  0.0267  0.5297  0.1993
13090TIP3    H160761   6.067   2.678  11.709 -1.2381 -1.3040  1.1417
13090TIP3    H260762   5.984   2.621  11.597  0.3920 -0.1749 -0.7125
13091TIP3   OH260763   0.121   2.627  15.320 -0.4729 -0.0007  0.2748
13091TIP3    H160764   0.181   2.554  15.304 -1.0521 -0.6229  0.8528
13091TIP3    H260765   0.120   2.637  15.415 -1.1584  0.0989  0.2646
13092TIP3   OH260766   6.002   2.048  16.927  0.0775 -0.0331  0.4590
13092TIP3    H160767   5.971   2.026  16.839  0.3887 -0.4135  0.4465
13092TIP3    H260768   5.973   2.139  16.940 -2.2552 -0.7750  0.9739
13093TIP3   OH260769   3.897   4.266   3.092  0.4987 -0.8140 -0.1338
13093TIP3    H160770   3.851   4.212   3.027 -0.6281  0.6508 -0.6196
13093TIP3    H260771   3.828   4.320   3.130  1.6672  0.6746 -0.0790
13094TIP3   OH260772   0.143   2.594  14.604  0.8292  0.3631  0.6850
13094TIP3    H160773   0.147   2.687  14.581  1.6309  0.1864  0.0240
13094TIP3    H260774   0.138   2.549  14.520 -0.1707 -0.1760  1.0228
13095TIP3   OH260775   3.051   4.377   3.055  0.1150 -0.6238 -0.3600
13095TIP3    H160776   3.049   4.297   3.004  2.9968 -0.5297 -0.7827
13095TIP3    H260777   3.100   4.354   3.134  0.6652  0.5911 -0.3160
13096TIP3   OH260778   1.792   2.144   5.217 -0.0671  0.4306  0.1981
13096TIP3    H160779   1.851   2.138   5.292  0.7003 -0.6527 -0.4571
13096TIP3    H260780   1.772   2.053   5.195 -0.0673  0.7150 -1.0652
13097TIP3   OH260781   5.426   1.896  11.772  0.4795  0.2784  0.1343
13097TIP3    H160782   5.483   1.939  11.708  0.6424 -0.9181 -0.5481
13097TIP3    H260783   5.463   1.809  11.783  1.5538  1.0132  3.2717
13098TIP3   OH260784   4.397   5.658   4.701 -1.1042  0.3055  0.2824
13098TIP3    H160785   4.382   5.566   4.677  0.1403  0.1366  0.0738
13098TIP3    H260786   4.323   5.681   4.756 -1.6911 -0.6786 -0.0730
13099TIP3   OH260787   3.962   2.179   3.402  0.3435  0.2942 -0.3593
13099TIP3    H160788   4.048   2.218   3.382 -0.3370  2.3822  0.4835
13099TIP3    H260789   3.899   2.244   3.369 -0.8786 -0.1460  1.0210
13100TIP3   OH260790   1.864   4.063   1.351 -0.3726  0.0291  0.2777
13100TIP3    H160791   1.795   4.066   1.285 -0.3561  0.2989  0.2698
13100TIP3    H260792   1.934   4.116   1.314 -0.2241 -0.1151  0.3552
13101TIP3   OH260793   4.210   5.875  14.389 -0.4724 -0.1973 -0.1231
13101TIP3    H160794   4.132   5.874  14.333  0.3421  1.3543 -1.3595
13101TIP3    H260795   4.201   5.954  14.441 -0.0575 -0.3885  0.2420
13102TIP3   OH260796   1.448   3.948  15.795  0.3819  0.2432  0.4591
13102TIP3    H160797   1.443   4.042  15.813  0.0762  0.4678 -0.7181
13102TIP3    H260798   1.479   3.910  15.878 -0.6010  1.2319  1.3156
13103TIP3   OH260799   4.075   1.513   5.525 -0.0424  0.1226 -0.3015
13103TIP3    H160800   4.075   1.489   5.618 -0.2835  0.4141 -0.2235
13103TIP3    H260801   4.167   1.532   5.506 -0.0969  0.8463  0.0923
13104TIP3   OH260802   6.646   3.866  12.705  0.8702  0.1573 -0.3223
13104TIP3    H160803   6.675   3.896  12.791 -1.7322  1.5656  0.1793
13104TIP3    H260804   6.637   3.947  12.653 -2.0197 -0.0823 -0.3765
13105TIP3   OH260805   0.549   1.042  14.121  0.2122  0.1637  0.2375
13105TIP3    H160806   0.613   1.037  14.050  0.1737 -0.3217  0.2364
13105TIP3    H260807   0.536   1.136  14.134  0.9818  0.2705  0.2930
13106TIP3   OH260808   6.518   4.091  15.398  0.6486 -0.1186 -0.0598
13106TIP3    H160809   6.502   4.017  15.458 -1.1231  0.3329  0.0781
13106TIP3    H260810   6.456   4.158  15.427 -0.4733  0.0179 -2.5688
13107TIP3   OH260811   5.030   4.832  16.622 -0.2004 -0.0857 -0.0016
13107TIP3    H160812   4.953   4.866  16.578  0.0884  0.7681  0.1370
13107TIP3    H260813   5.060   4.904  16.677  0.9799 -0.2184 -0.4375
13108TIP3   OH260814   1.496   6.627   4.611  0.1681  0.3444 -0.3968
13108TIP3    H160815   1.468   6.563   4.676  2.8064 -0.3999  0.1097
13108TIP3    H260816   1.417   6.678   4.593 -0.6712  0.9047  3.7383
13109TIP3   OH260817   0.938   3.062  11.911 -0.2564 -0.7493  0.3103
13109TIP3    H160818   0.880   3.002  11.864 -1.6150  0.8915 -0.2059
13109TIP3    H260819   0.946   3.024  11.999  1.4098 -3.2548 -0.8224
13110TIP3   OH260820   0.378   2.445   4.058 -0.0576 -0.2066 -0.0816
13110TIP3    H160821   0.379   2.488   4.143  1.2769 -1.0138  0.3337
13110TIP3    H260822   0.365   2.353   4.077 -1.3787 -0.2156 -0.8731
13111TIP3   OH260823   5.068   3.797  12.524  0.0786 -0.7427  0.1762
13111TIP3    H160824   4.973   3.791  12.508  0.0397 -1.0498  0.4998
13111TIP3    H260825   5.104   3.828  12.441 -0.6126  2.3838  0.9204
13112TIP3   OH260826   2.939   5.201   6.182  0.1151  0.2090  0.0207
13112TIP3    H160827   3.014   5.231   6.232  0.1289  1.1860 -0.5567
13112TIP3    H260828   2.878   5.275   6.183 -0.8773 -0.5913  0.5358
13113TIP3   OH260829   5.617   5.925   3.663  0.6044  0.2147 -0.4000
13113TIP3    H160830   5.669   5.976   3.601  0.3263  1.7791  0.5805
13113TIP3    H260831   5.682   5.890   3.724  0.7774 -0.4201 -0.9435
13114TIP3   OH260832   0.032   3.296   3.700 -0.3197  0.2392  0.4324
13114TIP3    H160833   0.009   3.204   3.716 -2.3678  0.7570  0.7209
13114TIP3    H260834   0.051   3.331   3.786  1.8198 -0.1890  0.1961
13115TIP3   OH260835   2.146   3.996   2.123  0.3141 -0.0287 -0.7166
13115TIP3    H160836   2.215   4.035   2.069  1.2107 -0.5507  0.0414
13115TIP3    H260837   2.115   4.068   2.178  0.7495  0.0362 -0.5563
13116TIP3   OH260838   0.140   2.643  12.055 -0.0017 -0.1728  0.0968
13116TIP3    H160839   0.194   2.611  11.983  0.8456  0.4399  0.4438
13116TIP3    H260840   0.200   2.652  12.128 -0.7941 -0.4950  0.8023
13117TIP3   OH260841   6.815   2.829   3.140  0.3425  0.6888 -0.0414
13117TIP3    H160842   6.763   2.789   3.070 -2.6608  2.0004  1.2529
13117TIP3    H260843   6.881   2.881   3.095  0.0886 -0.4460 -1.8261
13118TIP3   OH260844   6.760   5.962   4.519  0.0653  0.7390 -0.0525
13118TIP3    H160845   6.820   5.927   4.453  0.5945  0.2378  0.6740
13118TIP3    H260846   6.749   5.890   4.581  0.7987  1.6946  1.2280
13119TIP3   OH260847   6.324   0.410   1.550  0.3122  0.0694  0.0285
13119TIP3    H160848   6.418   0.393   1.549  0.5222  0.6518  3.0789
13119TIP3    H260849   6.316   0.505   1.543  0.1291  0.2548  2.2707
13120TIP3   OH260850   3.648   5.831  14.977  0.1068 -0.2332  0.2361
13120TIP3    H160851   3.584   5.775  14.933  2.0336 -0.6031 -2.3591
13120TIP3    H260852   3.720   5.772  14.999  0.6470  0.5993  0.7474
13121TIP3   OH260853   4.720   5.726  13.258  0.2217 -0.4629  0.2712
13121TIP3    H160854   4.714   5.683  13.172  1.7916 -0.9489  0.3652
13121TIP3    H260855   4.630   5.731  13.289 -0.4679  0.4132 -1.7309
13122TIP3   OH260856   2.005   4.825  17.146 -0.2623  0.0314 -0.4240
13122TIP3    H160857   1.996   4.742  17.099 -2.1535  0.7998 -1.5501
13122TIP3    H260858   1.947   4.816  17.222 -0.4948  0.3136 -0.5665
13123TIP3   OH260859   1.067   0.956   3.624 -0.4076 -0.4518 -0.0075
13123TIP3    H160860   1.038   1.014   3.694 -1.4986 -0.7794 -0.1772
13123TIP3    H260861   1.061   0.868   3.661  0.5677 -0.5295  0.0122
13124TIP3   OH260862   0.060   4.474  10.566 -0.4252 -0.4761  0.3801
13124TIP3    H160863  -0.009   4.452  10.629  2.6430 -0.5173  4.0747
13124TIP3    H260864   0.142   4.460  10.614  2.1824  1.2631 -3.1203
13125TIP3   OH260865   0.108   1.164   5.570  0.0279  0.3673 -0.1323
13125TIP3    H160866   0.028   1.204   5.604  0.0711  0.1737  0.1943
13125TIP3    H260867   0.167   1.159   5.645 -0.1142 -0.6739 -0.0769
13126TIP3   OH260868   1.263   1.050   0.084  0.7255 -0.2911  0.1185
13126TIP3    H160869   1.218   1.041   0.168  1.4294 -0.0582  0.5285
13126TIP3    H260870   1.334   1.112   0.101 -0.2258  1.1816 -1.1052
13127TIP3   OH260871   5.770   1.483   4.780 -0.2953  0.6298  0.0512
13127TIP3    H160872   5.772   1.388   4.774 -0.4374  0.7071 -1.5557
13127TIP3    H260873   5.825   1.514   4.709 -0.1402  1.7610  0.6285
13128TIP3   OH260874   0.657   5.522   0.813 -0.4160  0.1394 -0.2368
13128TIP3    H160875   0.642   5.593   0.750  2.0503  0.7557 -0.2195
13128TIP3    H260876   0.661   5.566   0.897 -1.3502 -0.3958  0.1109
13129TIP3   OH260877   4.668   1.334   2.169 -0.1768 -0.7433 -0.3309
13129TIP3    H160878   4.608   1.279   2.218 -0.7837 -0.9749 -1.2957
13129TIP3    H260879   4.753   1.319   2.209 -0.7454 -0.4049  1.0661
13130TIP3   OH260880   0.094   1.410   6.452 -0.1378  0.4114 -0.8587
13130TIP3    H160881   0.182   1.437   6.479  0.4285 -0.7733 -1.4535
13130TIP3    H260882   0.107   1.369   6.366 -0.9150 -1.8189  0.0345
13131TIP3   OH260883   1.897   5.519  12.960 -0.3410 -0.6325 -0.4461
13131TIP3    H160884   1.858   5.480  13.039  0.0115 -0.2654 -0.0827
13131TIP3    H260885   1.953   5.450  12.924 -1.1510 -1.0888 -0.8481
13132TIP3   OH260886   4.703   2.093  14.558  0.0018 -0.0705  0.0116
13132TIP3    H160887   4.661   2.097  14.472 -1.3792  2.7644  0.7053
13132TIP3    H260888   4.630   2.085  14.620  0.5921  2.0030  1.0833
13133TIP3   OH260889   0.356   4.512   5.422  0.3059 -0.1960  0.4432
13133TIP3    H160890   0.434   4.469   5.460 -0.4695 -0.4771  1.7786
13133TIP3    H260891   0.289   4.443   5.421 -0.0580  0.1560 -0.3242
13134TIP3   OH260892   2.616   5.902  14.670  0.0957 -0.1136  0.2665
13134TIP3    H160893   2.570   5.957  14.607  1.5253 -1.3747 -1.9803
13134TIP3    H260894   2.587   5.813  14.650  0.3122 -0.5340  1.6770
13135TIP3   OH260895   0.300   2.300  11.800 -0.3270  0.0966  0.2458
13135TIP3    H160896   0.249   2.321  11.722 -1.0040  0.1573  0.6998
13135TIP3    H260897   0.384   2.270  11.766 -0.0179  1.6630 -0.4810
13136TIP3   OH260898   0.051   5.256   0.587  0.0616  0.3135 -0.3912
13136TIP3    H160899   0.044   5.181   0.645 -1.6667 -0.4164 -1.4642
13136TIP3    H260900   0.034   5.332   0.643 -1.2237 -0.3501  0.1515
13137TIP3   OH260901   5.639   4.515   3.413 -0.7165 -0.3357  0.4618
13137TIP3    H160902   5.665   4.425   3.393  0.8122  0.2166 -0.1663
13137TIP3    H260903   5.620   4.554   3.328  0.4606  0.4540  0.5384
13138TIP3   OH260904   0.664   0.146  16.760 -0.1985  0.3242  0.1432
13138TIP3    H160905   0.750   0.116  16.787 -0.5979  0.8545  2.1667
13138TIP3    H260906   0.605   0.075  16.785 -0.2928 -0.5989 -2.3612
13139TIP3   OH260907   1.326   1.120  13.839 -0.2031 -0.0598  0.3481
13139TIP3    H160908   1.285   1.203  13.817 -0.9582 -0.6100 -0.3327
13139TIP3    H260909   1.268   1.053  13.804 -0.1756 -0.9168  1.8483
13140TIP3   OH260910   3.584   2.915  12.069 -0.4139  0.4241 -0.4263
13140TIP3    H160911   3.596   2.863  12.148 -0.0193 -1.0506 -1.4065
13140TIP3    H260912   3.664   2.967  12.062  0.4094 -0.8338 -0.8080
13141TIP3   OH260913   3.106   1.433  14.314 -0.0242  0.3937  0.2856
13141TIP3    H160914   3.130   1.514  14.358 -0.7476  0.5879  0.3257
13141TIP3    H260915   3.102   1.456  14.222  0.5315  0.2157  0.2128
13142TIP3   OH260916   3.483   4.144  16.756 -0.0015  0.3072 -0.4726
13142TIP3    H160917   3.393   4.156  16.728 -0.1227  2.0905  0.5435
13142TIP3    H260918   3.535   4.197  16.695 -0.0651  2.4236  1.1992
13143TIP3   OH260919   5.410   3.081   0.307 -0.0873 -0.4025 -0.0297
13143TIP3    H160920   5.453   3.096   0.391 -0.4032 -1.2759  0.2932
13143TIP3    H260921   5.457   3.008   0.268 -0.1351 -0.1964 -0.4855
13144TIP3   OH260922   5.443   4.271   1.454  0.2616  0.2495  0.4486
13144TIP3    H160923   5.436   4.362   1.426 -1.3816  0.0195  0.0532
13144TIP3    H260924   5.418   4.220   1.378 -2.1114 -0.4308  1.5900
13145TIP3   OH260925   6.369   5.338   4.833 -0.0960  0.0140 -0.1168
13145TIP3    H160926   6.341   5.291   4.911  1.2503 -0.9141 -0.1652
13145TIP3    H260927   6.460   5.363   4.851 -0.0124  0.4430 -1.0773
13146TIP3   OH260928   1.576   2.364   2.835 -0.6182 -0.7874  0.4491
13146TIP3    H160929   1.491   2.407   2.822 -0.3862 -1.3258 -4.3450
13146TIP3    H260930   1.559   2.272   2.817  0.7877 -1.1030  0.6406
13147TIP3   OH260931   0.750   5.274   2.743  0.0702 -0.3389  0.1397
13147TIP3    H160932   0.716   5.329   2.672 -0.2888 -0.6875  0.0364
13147TIP3    H260933   0.774   5.336   2.812 -1.5181 -0.1011  0.5328
13148TIP3   OH260934   0.916   2.748   4.066 -0.1738  0.2057 -0.4651
13148TIP3    H160935   0.975   2.795   4.125 -0.2304 -0.0074 -0.2342
13148TIP3    H260936   0.840   2.727   4.121  1.1331 -2.8969  0.3817
13149TIP3   OH260937   5.640   6.296   1.055  0.4997  0.0827 -0.3353
13149TIP3    H160938   5.624   6.233   0.985 -1.1887 -0.2755  0.3154
13149TIP3    H260939   5.630   6.245   1.136 -0.7955  1.1289  0.2009
13150TIP3   OH260940   4.047   2.442  11.612  0.5510  1.2458 -0.4112
13150TIP3    H160941   4.052   2.507  11.681 -1.6314  0.9554  0.0668
13150TIP3    H260942   4.004   2.366  11.652  3.1722 -0.6458 -0.8811
13151TIP3   OH260943   0.104   1.352   4.446 -0.1350  0.0587  0.7339
13151TIP3    H160944   0.144   1.411   4.382 -1.1783 -0.0860 -0.0914
13151TIP3    H260945   0.160   1.359   4.523 -0.7860  2.9618  1.0833
13152TIP3   OH260946   6.143   2.644   3.115  0.0581  0.2311 -0.6031
13152TIP3    H160947   6.136   2.548   3.112 -2.4331  0.3421 -0.3016
13152TIP3    H260948   6.117   2.667   3.203  1.7951  1.1751 -0.2941
13153TIP3   OH260949   1.872   0.847  13.003 -0.5382  0.6859  0.3199
13153TIP3    H160950   1.811   0.912  13.038 -2.0132  0.3463 -1.5036
13153TIP3    H260951   1.824   0.764  13.007  1.2159 -0.3255  2.3581
13154TIP3   OH260952   6.748   0.843  16.225 -0.0238  0.4517 -0.2286
13154TIP3    H160953   6.735   0.754  16.259  1.7309  0.4833  0.6367
13154TIP3    H260954   6.741   0.834  16.130 -1.2969 -0.3283 -0.0839
13155TIP3   OH260955   3.656   2.566   3.096  0.5691 -0.2476 -0.5403
13155TIP3    H160956   3.694   2.536   3.014 -0.8462 -1.8372 -0.6762
13155TIP3    H260957   3.574   2.516   3.104 -0.9621  2.1921  0.2508
13156TIP3   OH260958   5.814   6.007   4.652  0.8172  0.2677 -0.8752
13156TIP3    H160959   5.736   5.952   4.661  0.7588  0.4055 -0.5394
13156TIP3    H260960   5.882   5.960   4.702  0.5377  0.9439  0.1718
13157TIP3   OH260961   1.730   0.363   6.109  0.6753 -0.3518  0.3967
13157TIP3    H160962   1.742   0.293   6.045 -1.6381  1.3459 -2.0499
13157TIP3    H260963   1.789   0.432   6.080  0.7344 -0.1257  1.0354
13158TIP3   OH260964   2.700   1.360   3.951  0.1734 -0.3410  0.9037
13158TIP3    H160965   2.747   1.442   3.961  0.8994 -0.7333  0.7483
13158TIP3    H260966   2.613   1.378   3.988 -0.8793  1.4920 -2.0878
13159TIP3   OH260967   4.015   5.476  11.312  0.0886  0.5837 -0.1502
13159TIP3    H160968   4.067   5.550  11.280  1.1412 -1.1703 -2.9109
13159TIP3    H260969   3.927   5.493  11.280  0.4364  0.4543 -1.2222
13160TIP3   OH260970   5.061   4.499  11.106  0.1821  0.2514  0.7394
13160TIP3    H160971   5.118   4.537  11.040  1.4904  0.6751  2.0531
13160TIP3    H260972   5.030   4.417  11.067  0.8162  0.5566 -0.4355
13161TIP3   OH260973   1.058   6.326   0.052  0.1672  0.2021 -0.7813
13161TIP3    H160974   1.076   6.281  -0.031  2.8382  0.0264 -0.2212
13161TIP3    H260975   1.127   6.294   0.111  0.1393  2.5362  0.6292
13162TIP3   OH260976   3.933   4.752   3.725  0.4736 -0.3651 -0.6343
13162TIP3    H160977   3.882   4.711   3.795 -0.2453  0.0195 -0.9170
13162TIP3    H260978   3.881   4.738   3.646  0.7348  0.1604 -0.9073
13163TIP3   OH260979   1.987   5.150  13.818 -0.0440  0.1562 -0.6510
13163TIP3    H160980   2.029   5.235  13.818 -2.1642  1.2815 -0.7208
13163TIP3    H260981   2.021   5.105  13.741  2.4977  0.1471  0.3966
13164TIP3   OH260982   5.015   6.648   5.703 -0.6636  0.6565  0.2187
13164TIP3    H160983   5.056   6.733   5.691 -0.1834  0.5105  0.7500
13164TIP3    H260984   5.056   6.592   5.637  0.7909  0.2529  1.3936
13165TIP3   OH260985   3.122   3.819  10.450  0.1859 -0.2093  0.7470
13165TIP3    H160986   3.208   3.830  10.408  0.1630 -2.8766 -0.1690
13165TIP3    H260987   3.061   3.862  10.391  0.5572 -0.9858 -0.2337
13166TIP3   OH260988   1.335   4.365   2.640  0.2239  0.3453  0.0690
13166TIP3    H160989   1.267   4.431   2.653 -0.6662 -0.4524 -0.4220
13166TIP3    H260990   1.297   4.285   2.675  0.7104 -0.2256 -0.6825
13167TIP3   OH260991   1.437   6.266  11.884  0.1991  0.1997  0.4917
13167TIP3    H160992   1.484   6.222  11.955  0.0522 -2.2127 -0.8208
13167TIP3    H260993   1.475   6.231  11.804 -2.2076 -0.0857 -0.6203
13168TIP3   OH260994   1.494   0.527  14.828 -0.0643 -0.1583 -0.0688
13168TIP3    H160995   1.513   0.435  14.810 -2.5087 -0.8077  0.3257
13168TIP3    H260996   1.494   0.569  14.742 -2.2270 -1.2761 -0.6800
13169TIP3   OH260997   0.083   3.456   3.188  0.1304  0.3073  0.4769
13169TIP3    H160998   0.059   3.412   3.106 -1.2697  1.6809  0.0940
13169TIP3    H260999   0.022   3.422   3.253  0.0684  0.5148  0.5304
13170TIP3   OH261000   3.263   2.410   5.809  0.1639 -0.1298  0.6814
13170TIP3    H161001   3.180   2.452   5.834 -2.3534 -3.4954 -1.1504
13170TIP3    H261002   3.291   2.457   5.731 -2.2384 -1.2575 -0.9743
13171TIP3   OH261003   0.652   6.444   4.257 -0.0836 -0.1024  0.4133
13171TIP3    H161004   0.696   6.405   4.181 -0.6697  0.6203 -0.3298
13171TIP3    H261005   0.620   6.370   4.308 -2.2608 -0.7021 -1.6098
13172TIP3   OH261006   0.443   1.402   0.700 -0.0831  0.3239  0.1649
13172TIP3    H161007   0.411   1.490   0.679  0.4881  0.5670  0.2949
13172TIP3    H261008   0.364   1.349   0.710 -0.4116  0.5824 -0.9556
13173TIP3   OH261009   4.582   4.626   0.511 -0.7091 -0.2190  0.1306
13173TIP3    H161010   4.663   4.648   0.464 -1.2323 -1.6127 -1.5596
13173TIP3    H261011   4.608   4.559   0.574 -0.4049 -0.0807  0.1555
13174TIP3   OH261012   6.229   2.514   6.625  0.9468  0.2679 -0.3618
13174TIP3    H161013   6.285   2.471   6.689  1.3482  0.4900 -0.5569
13174TIP3    H261014   6.184   2.583   6.674 -0.1088 -0.6989  0.0729
13175TIP3   OH261015   2.403   5.960   3.278 -0.0519 -0.1254  0.0402
13175TIP3    H161016   2.375   5.958   3.370 -1.1646  1.8609 -0.1844
13175TIP3    H261017   2.479   6.017   3.278  0.1834 -0.4376 -0.2284
13176TIP3   OH261018   5.907   6.420  15.701  0.4984  0.0894  0.4223
13176TIP3    H161019   5.893   6.515  15.694 -0.8170 -0.0779  0.5350
13176TIP3    H261020   5.851   6.393  15.774  1.5888 -0.6383  1.0050
13177TIP3   OH261021   4.130   2.073  14.989 -0.1759 -0.3729 -0.0193
13177TIP3    H161022   4.099   2.120  14.912  0.1154  0.2305  0.2278
13177TIP3    H261023   4.066   2.002  15.001 -0.7864  0.1313 -0.2225
13178TIP3   OH261024   5.593   5.175  12.353  0.5814  0.1503 -0.6511
13178TIP3    H161025   5.624   5.240  12.291  1.6995 -0.6643 -0.9914
13178TIP3    H261026   5.663   5.109  12.356  1.3886  0.9471  2.7119
13179TIP3   OH261027   0.361   3.768  16.506  0.4791 -0.3484 -0.3388
13179TIP3    H161028   0.353   3.727  16.420 -0.2648  0.3857 -0.6368
13179TIP3    H261029   0.279   3.748  16.550 -0.3182  1.5858 -0.8519
13180TIP3   OH261030   0.435   4.841   2.791 -0.1150  0.0019 -0.3094
13180TIP3    H161031   0.510   4.898   2.771 -1.0848  0.8035 -1.8302
13180TIP3    H261032   0.425   4.849   2.886  0.7691  1.1207 -0.2772
13181TIP3   OH261033   3.688   0.840  15.584  0.3580  0.3132 -0.1116
13181TIP3    H161034   3.677   0.783  15.507 -0.0405 -1.7814  1.4158
13181TIP3    H261035   3.782   0.843  15.599  0.3560 -0.3522  0.0664
13182TIP3   OH261036   0.295   4.356   6.069  0.7338 -0.0353 -0.4291
13182TIP3    H161037   0.327   4.407   5.995  0.9183  0.7195  0.1675
13182TIP3    H261038   0.323   4.266   6.050  0.0246 -0.0088 -1.6985
13183TIP3   OH261039   4.935   0.729  11.498 -0.4672 -0.0527  0.0673
13183TIP3    H161040   4.974   0.649  11.463 -1.6069 -0.0246 -1.3839
13183TIP3    H261041   4.843   0.724  11.471 -1.0084  0.8343  1.6301
13184TIP3   OH261042   6.255   1.405   2.544  0.5116  0.0164  0.2051
13184TIP3    H161043   6.336   1.411   2.594  0.2209  1.1072  0.5635
13184TIP3    H261044   6.236   1.311   2.542  1.9241 -0.2849 -0.1334
13185TIP3   OH261045   4.493   6.054   1.643 -0.4983  0.5333 -0.0066
13185TIP3    H161046   4.435   5.980   1.663 -0.8953  0.7816 -0.2124
13185TIP3    H261047   4.520   6.087   1.728 -0.8080  0.5262  0.0952
13186TIP3   OH261048   0.229   4.277  17.128  0.0442 -0.0341  0.2196
13186TIP3    H161049   0.146   4.228  17.127  0.3864 -0.6211  0.0220
13186TIP3    H261050   0.268   4.260  17.042  0.4125  0.1585  0.3472
13187TIP3   OH261051   3.018   5.910  13.929  0.3756 -0.0048  0.2147
13187TIP3    H161052   3.060   5.861  13.858  0.8512 -1.0334  1.1740
13187TIP3    H261053   3.039   6.001  13.911  0.2828 -0.2250 -1.0959
13188TIP3   OH261054   3.382   3.654   0.089 -0.2053 -0.0542 -0.2144
13188TIP3    H161055   3.300   3.703   0.082  0.8053  1.7369 -0.1087
13188TIP3    H261056   3.436   3.706   0.149  0.6318 -1.7553  0.5568
13189TIP3   OH261057   0.426   1.212   5.555 -0.1322  0.6359  0.0863
13189TIP3    H161058   0.469   1.275   5.498 -0.3574  1.5254  0.8764
13189TIP3    H261059   0.333   1.235   5.550 -0.2856  0.0170 -0.0303
13190TIP3   OH261060   2.854   5.573   5.574  0.1455 -0.0027 -0.4578
13190TIP3    H161061   2.836   5.653   5.524  0.6945  0.3123 -0.1527
13190TIP3    H261062   2.774   5.557   5.624  0.5752  1.2382  0.6824
13191TIP3   OH261063   5.400   0.169  14.015 -0.2076  0.3560 -0.1375
13191TIP3    H161064   5.475   0.219  13.985 -0.4751  1.3506  0.7963
13191TIP3    H261065   5.331   0.189  13.952 -0.2051  0.8790  0.0232
13192TIP3   OH261066   0.822   2.794  14.546 -0.1655 -0.3424  0.1215
13192TIP3    H161067   0.812   2.721  14.607  1.5855 -0.8821 -0.1702
13192TIP3    H261068   0.752   2.855  14.569 -1.2346 -1.7880  0.8277
13193TIP3   OH261069   5.844   6.652  15.209 -0.3693 -0.4083  0.3424
13193TIP3    H161070   5.767   6.684  15.255 -1.0943  0.4184 -1.3575
13193TIP3    H261071   5.915   6.709  15.239 -1.4223  2.2231 -1.7436
13194TIP3   OH261072   3.993   3.368   2.591  0.1161  0.3208 -0.0010
13194TIP3    H161073   4.044   3.412   2.524 -1.4116  0.1976 -1.3034
13194TIP3    H261074   4.029   3.279   2.595  0.2223  0.3304 -0.6657
13195TIP3   OH261075   1.704   1.536   1.009  0.4291  0.2988  0.0334
13195TIP3    H161076   1.763   1.579   1.070  0.8213  0.5719 -0.5352
13195TIP3    H261077   1.619   1.535   1.055  1.1592 -1.3839  1.4531
13196TIP3   OH261078   1.470   5.478  10.977  1.0180  0.1228 -0.0723
13196TIP3    H161079   1.489   5.385  10.988  0.8183 -0.0960 -1.4676
13196TIP3    H261080   1.505   5.500  10.891 -0.5033  0.9200 -0.5178
13197TIP3   OH261081   1.952   0.581  11.248 -0.6873 -0.1016  0.0892
13197TIP3    H161082   1.943   0.659  11.303  0.6728  1.3591 -1.6334
13197TIP3    H261083   1.862   0.552  11.234 -1.2714  1.3796  0.5005
13198TIP3   OH261084   4.136   1.439   1.050 -0.0500 -0.3704 -0.7378
13198TIP3    H161085   4.051   1.394   1.056 -0.5126  0.5438 -0.0924
13198TIP3    H261086   4.199   1.375   1.084 -0.6188 -0.7165 -0.2942
13199TIP3   OH261087   4.008   0.597  10.897 -0.2553  0.1915  0.0149
13199TIP3    H161088   4.089   0.613  10.849 -0.4315 -0.4168 -0.4952
13199TIP3    H261089   3.956   0.541  10.839 -0.5056 -0.5000  0.8791
13200TIP3   OH261090   3.798   2.423   4.595 -0.2751  0.0824  0.0810
13200TIP3    H161091   3.722   2.432   4.537  1.4350  2.0906 -2.0570
13200TIP3    H261092   3.771   2.462   4.678 -0.9723  2.8464 -1.3349
13201TIP3   OH261093   2.399   0.270   0.562  0.3085 -0.0150  0.1256
13201TIP3    H161094   2.418   0.233   0.648 -2.2268 -1.1411  0.3104
13201TIP3    H261095   2.364   0.357   0.581 -0.9813 -0.5570  0.3506
13202TIP3   OH261096   1.892   2.063   4.368  0.5275  0.1826  0.0275
13202TIP3    H161097   1.895   2.077   4.273  0.0425  1.1031  0.1335
13202TIP3    H261098   1.799   2.053   4.387  0.6098  0.1968  0.4385
13203TIP3   OH261099   6.414   3.988  12.098 -0.1090 -0.0995  0.3005
13203TIP3    H161100   6.477   4.059  12.084 -0.5497 -0.0954 -2.2253
13203TIP3    H261101   6.328   4.028  12.084 -0.3171 -1.2510 -2.4605
13204TIP3   OH261102   5.546   2.034  12.027 -0.0130 -0.0342 -0.1019
13204TIP3    H161103   5.507   1.990  11.952 -0.5424 -2.8464  1.6264
13204TIP3    H261104   5.491   2.006  12.101  0.4971  2.5692  1.3624
13205TIP3   OH261105   0.461   0.115   0.352 -0.7901  0.2064 -0.1725
13205TIP3    H161106   0.396   0.078   0.292  2.0952 -2.3546 -2.0361
13205TIP3    H261107   0.517   0.168   0.295  1.6242 -1.7369  0.2232
13206TIP3   OH261108   6.557   1.368  15.530  0.5778 -0.1708  0.7475
13206TIP3    H161109   6.628   1.350  15.591  0.2352 -1.5178  0.7894
13206TIP3    H261110   6.596   1.354  15.443  0.3749 -0.9394  0.7710
13207TIP3   OH261111   5.939   1.807  13.898  0.1038  0.1875  0.0493
13207TIP3    H161112   5.970   1.721  13.872  0.2095 -0.2495  1.4978
13207TIP3    H261113   6.019   1.859  13.906 -0.0102  0.6413 -1.4797
13208TIP3   OH261114   3.453   6.229   6.610  0.2631 -0.2882  0.2778
13208TIP3    H161115   3.433   6.321   6.593 -1.6127  0.1238  3.9383
13208TIP3    H261116   3.423   6.184   6.531  3.6355  2.2889 -2.8110
13209TIP3   OH261117   2.708   1.732  14.440  0.0926  0.4627  0.0944
13209TIP3    H161118   2.725   1.795  14.370 -0.2592  1.5009  0.9118
13209TIP3    H261119   2.636   1.678  14.407  1.6531 -0.7925 -1.3925
13210TIP3   OH261120   1.246   3.655  12.955 -0.7249 -0.1275 -1.0392
13210TIP3    H161121   1.155   3.678  12.933  0.4479  1.8969 -4.4604
13210TIP3    H261122   1.281   3.615  12.876  2.0836  1.4940 -0.7338
13211TIP3   OH261123   2.148   1.489  13.194  0.2700  0.0255 -0.6339
13211TIP3    H161124   2.216   1.466  13.131 -0.7436 -1.3787 -1.2649
13211TIP3    H261125   2.068   1.493  13.143 -0.2168  1.2056  0.1820
13212TIP3   OH261126   0.076   0.709   1.521 -0.6265  0.2016  0.0128
13212TIP3    H161127   0.170   0.714   1.534 -0.3167  1.1785 -2.1326
13212TIP3    H261128   0.050   0.626   1.561  1.3017 -0.5433 -0.1981
13213TIP3   OH261129   4.675   5.085   3.006 -0.0592 -0.5091 -0.2401
13213TIP3    H161130   4.762   5.049   2.992 -0.2054 -0.0338 -2.7637
13213TIP3    H261131   4.616   5.027   2.959 -0.6099  1.3458 -1.9824
13214TIP3   OH261132   1.032   5.449   3.783 -0.0651  0.2464  0.6029
13214TIP3    H161133   1.026   5.503   3.704  3.1684 -2.0574 -1.4838
13214TIP3    H261134   1.102   5.489   3.833 -1.4295  1.0998  1.9177
13215TIP3   OH261135   3.855   0.788   1.240 -0.0404 -0.2222  0.3645
13215TIP3    H161136   3.784   0.814   1.183  1.9130  0.4012 -1.9531
13215TIP3    H261137   3.871   0.864   1.296  1.0608  1.0557 -1.5702
13216TIP3   OH261138   1.493   3.579  15.682 -0.2304  0.4131 -0.4982
13216TIP3    H161139   1.518   3.613  15.596  2.8739  0.3106  0.2408
13216TIP3    H261140   1.466   3.657  15.731  1.0400  0.9938 -0.6600
13217TIP3   OH261141   2.116   3.229  12.706 -0.0519 -0.3162 -0.3380
13217TIP3    H161142   2.041   3.205  12.651 -1.0669 -0.7369  1.1489
13217TIP3    H261143   2.106   3.323  12.719 -0.2992 -0.3591 -0.1986
13218TIP3   OH261144   6.227   6.699  11.273 -0.2137 -0.1155 -0.3425
13218TIP3    H161145   6.278   6.773  11.240 -0.1316 -0.3845 -0.8312
13218TIP3    H261146   6.224   6.638  11.199  0.0500 -0.7732  0.1873
13219TIP3   OH261147   3.739   3.847   4.950 -0.2858 -0.4356  0.5858
13219TIP3    H161148   3.818   3.900   4.962 -1.2478  0.8733  1.4448
13219TIP3    H261149   3.676   3.882   5.013 -1.8745 -0.8047 -0.6990
13220TIP3   OH261150   5.375   6.316  11.741  0.3025  0.2822 -0.3451
13220TIP3    H161151   5.339   6.372  11.672  1.2550 -1.5057 -2.3824
13220TIP3    H261152   5.316   6.241  11.745  1.2476 -0.4907 -0.5040
13221TIP3   OH261153   0.711   6.439  11.985  0.1300  0.3278 -0.5816
13221TIP3    H161154   0.736   6.397  11.903  0.7944  0.0266 -0.2390
13221TIP3    H261155   0.617   6.453  11.978  0.1566  0.1470 -1.3216
13222TIP3   OH261156   4.504   4.864   2.908  0.7020 -0.3913  0.1783
13222TIP3    H161157   4.483   4.880   3.000  1.7245  0.4499  0.2864
13222TIP3    H261158   4.490   4.770   2.896 -1.7793 -0.1368  0.5437
13223TIP3   OH261159   1.804   5.135  11.112 -0.2826  0.2282  0.2086
13223TIP3    H161160   1.833   5.219  11.075 -2.9787  0.4177 -1.7916
13223TIP3    H261161   1.763   5.158  11.195 -1.8425  1.0787 -0.7641
13224TIP3   OH261162   2.417   1.776   4.837 -0.0232  0.2309  0.4675
13224TIP3    H161163   2.458   1.843   4.891  1.2689 -1.5905  1.8810
13224TIP3    H261164   2.452   1.790   4.750  3.5794 -1.0518  1.5413
13225TIP3   OH261165   4.184   5.727   2.725 -0.1383  0.1172 -0.2448
13225TIP3    H161166   4.180   5.637   2.692  1.0801 -0.8789  2.0423
13225TIP3    H261167   4.223   5.718   2.813 -1.1414  2.7596  0.5589
13226TIP3   OH261168   6.746   6.557  15.140  0.1134  0.3926  0.3612
13226TIP3    H161169   6.707   6.580  15.056 -0.3248  2.0955  0.9852
13226TIP3    H261170   6.692   6.601  15.205  2.2285  1.7258  1.3519
13227TIP3   OH261171   5.569   0.034   5.182 -0.7857  0.0923  0.3993
13227TIP3    H161172   5.657   0.068   5.200 -1.0205  0.0043  1.8209
13227TIP3    H261173   5.581  -0.061   5.179 -0.6116  0.1359 -0.7996
13228TIP3   OH261174   1.489   2.064   5.936  0.0151 -0.3285  0.4046
13228TIP3    H161175   1.425   2.081   5.867  0.3806  0.2942  0.2117
13228TIP3    H261176   1.461   1.981   5.974 -0.0958 -0.7770 -0.6037
13229TIP3   OH261177   0.507   0.149   0.992 -0.1444 -0.3289  0.0401
13229TIP3    H161178   0.544   0.217   1.048  1.0187 -2.2045  1.6535
13229TIP3    H261179   0.468   0.086   1.052  0.5547 -2.0745 -1.2466
13230TIP3   OH261180   4.309   2.766  14.178  0.1421 -0.3590 -0.5354
13230TIP3    H161181   4.346   2.699  14.236  0.8269  1.2688  0.9913
13230TIP3    H261182   4.305   2.723  14.093  0.8053 -2.2547  0.3133
13231TIP3   OH261183   2.608   2.533   1.037  0.7466 -0.3421  0.0744
13231TIP3    H161184   2.530   2.587   1.024  0.1038 -1.6790 -2.1372
13231TIP3    H261185   2.682   2.592   1.019  0.2539  0.6401  1.1118
13232TIP3   OH261186   0.360   3.961  12.209  0.4076 -0.2545 -0.6754
13232TIP3    H161187   0.365   3.984  12.301  0.6665  0.8665 -0.9591
13232TIP3    H261188   0.369   3.865  12.208 -1.9619 -0.5577  0.6211
13233TIP3   OH261189   2.454   5.260   2.084  0.6966  0.3571 -0.1929
13233TIP3    H161190   2.536   5.214   2.104 -0.1518 -1.1334  0.0173
13233TIP3    H261191   2.462   5.283   1.992 -0.2557 -3.4558 -1.3972
13234TIP3   OH261192   0.714   1.633   0.176 -0.0247  0.2093 -0.1998
13234TIP3    H161193   0.695   1.727   0.173  0.2997  0.2447 -1.7415
13234TIP3    H261194   0.646   1.593   0.122 -1.2712 -0.6741  1.9046
13235TIP3   OH261195   0.943   1.067   2.745  0.2124  0.2228 -0.3878
13235TIP3    H161196   0.952   1.081   2.651  0.8820  2.0226 -0.1118
13235TIP3    H261197   0.867   1.011   2.755 -1.4347  2.0549 -1.9022
13236TIP3   OH261198   2.934   4.495   2.728 -0.0308 -0.4014  0.0425
13236TIP3    H161199   2.993   4.556   2.771  0.2191  0.0670 -0.9387
13236TIP3    H261200   2.873   4.468   2.796  0.4094  0.2485  0.7017
13237TIP3   OH261201   1.085   2.322   4.903  0.2335  0.2132  0.0228
13237TIP3    H161202   1.067   2.372   4.983  1.6209  2.6975 -1.1043
13237TIP3    H261203   1.177   2.300   4.909  0.3435  0.3961 -0.8618
13238TIP3   OH261204   0.777   4.048  17.100  0.1852 -0.5445 -0.6656
13238TIP3    H161205   0.706   4.068  17.161  1.6746 -1.1733  1.4041
13238TIP3    H261206   0.831   4.127  17.102  1.5558 -1.4401  0.8794
13239TIP3   OH261207   4.129   3.632   2.486  0.6547 -0.3085 -0.6468
13239TIP3    H161208   4.079   3.711   2.504 -0.8722 -1.3960  0.0662
13239TIP3    H261209   4.219   3.662   2.476  0.1479  1.4705 -0.1279
13240TIP3   OH261210   0.272   3.299  12.015 -0.0064 -0.1954 -0.1498
13240TIP3    H161211   0.343   3.316  12.077  1.4272  2.7962 -2.3538
13240TIP3    H261212   0.201   3.357  12.043 -0.2090 -0.5077 -0.0171
13241TIP3   OH261213   4.189   0.835   4.719  0.4020  0.4495  0.5024
13241TIP3    H161214   4.245   0.838   4.797  1.9481 -0.3725 -0.5131
13241TIP3    H261215   4.228   0.899   4.660  1.5762 -1.5481 -1.0074
13242TIP3   OH261216   0.108   5.263  11.440  0.4856 -0.2891  0.0097
13242TIP3    H161217   0.149   5.343  11.474  0.7001 -0.4605  0.1608
13242TIP3    H261218   0.180   5.215  11.399  0.4376 -0.5858  0.2656
13243TIP3   OH261219   6.425   5.707   1.069 -0.4178  0.6502  0.1154
13243TIP3    H161220   6.390   5.698   0.980 -0.4921 -0.0617  0.2043
13243TIP3    H261221   6.422   5.801   1.088  0.1109  0.8682 -0.8339
13244TIP3   OH261222   0.762   3.417  13.893  0.0830 -0.0439  0.6935
13244TIP3    H161223   0.719   3.334  13.916 -1.2452  0.2569 -0.5713
13244TIP3    H261224   0.696   3.484  13.913  0.5886  0.5731  0.3129
13245TIP3   OH261225   4.524   3.746  17.098  0.0139  0.1202 -0.6965
13245TIP3    H161226   4.533   3.695  17.017  1.5575 -2.3839  0.9078
13245TIP3    H261227   4.446   3.709  17.141  0.2074  0.2195 -0.2539
13246TIP3   OH261228   6.417   3.549  11.792  0.0793  0.1826  0.1974
13246TIP3    H161229   6.337   3.497  11.797  0.5298 -1.0518 -3.1807
13246TIP3    H261230   6.486   3.491  11.825  0.3426 -0.9173 -2.1238
13247TIP3   OH261231   2.922   4.658   5.353 -0.4872  0.1542  0.0611
13247TIP3    H161232   2.894   4.575   5.391  0.9410  0.0709  0.9817
13247TIP3    H261233   2.962   4.634   5.270  1.4480 -0.3199  1.0705
13248TIP3   OH261234   2.641   2.017   0.538  0.6508 -0.2933  0.1077
13248TIP3    H161235   2.592   1.977   0.610  0.8870 -3.2175 -1.2052
13248TIP3    H261236   2.575   2.041   0.474  0.5929  0.4859  0.4488
13249TIP3   OH261237   3.369   4.354  13.481 -0.1851  0.0919 -0.1740
13249TIP3    H161238   3.333   4.436  13.515  0.4985  0.3525 -0.0502
13249TIP3    H261239   3.369   4.295  13.556 -0.6402 -0.0092 -0.2534
13250TIP3   OH261240   1.492   3.717   1.893 -0.1842  0.0485  0.2450
13250TIP3    H161241   1.541   3.762   1.823 -0.3630  3.2818  2.0026
13250TIP3    H261242   1.560   3.682   1.950 -0.0107 -0.4432 -0.2518
13251TIP3   OH261243   4.937   3.338   5.073  0.6793 -0.8141  0.2612
13251TIP3    H161244   4.903   3.252   5.098 -4.2775 -0.1764 -2.8755
13251TIP3    H261245   4.939   3.336   4.977 -1.4086  2.9580 -0.0397
13252TIP3   OH261246   1.389   0.691   1.995  0.1836 -0.2429  0.5062
13252TIP3    H161247   1.427   0.653   2.074  0.4795 -0.9816  0.0145
13252TIP3    H261248   1.359   0.616   1.944  2.0941  0.0564 -1.1746
13253TIP3   OH261249   0.435   4.547  14.437 -0.1033  0.0287  0.0433
13253TIP3    H161250   0.473   4.497  14.509  0.7914 -1.5649 -1.4766
13253TIP3    H261251   0.493   4.623  14.428  0.1572 -0.1015  0.5908
13254TIP3   OH261252   2.116   2.193  11.493 -0.2864 -0.2378  0.0393
13254TIP3    H161253   2.163   2.125  11.445  0.5850 -1.9118  2.9929
13254TIP3    H261254   2.160   2.275  11.468  0.3799 -1.0465 -1.5853
13255TIP3   OH261255   2.945   6.036   1.786 -0.0130  0.0666  0.3872
13255TIP3    H161256   2.929   5.947   1.818 -1.6711  0.8383  1.9218
13255TIP3    H261257   2.866   6.057   1.735  1.0259  0.1704 -1.2593
13256TIP3   OH261258   0.879   4.933   4.370  0.2301  0.3083 -0.2560
13256TIP3    H161259   0.861   4.869   4.302  0.2338 -0.4867  0.4652
13256TIP3    H261260   0.913   4.881   4.443 -2.3968  0.7464  1.3953
13257TIP3   OH261261   4.689   1.296  14.100  0.8515 -0.3720  0.4126
13257TIP3    H161262   4.691   1.250  14.017  2.2127 -1.5660  1.0588
13257TIP3    H261263   4.608   1.266  14.143  0.2682  0.0725 -0.3443
13258TIP3   OH261264   2.313   4.723   0.510  0.4823  0.1883 -0.3010
13258TIP3    H161265   2.359   4.725   0.594 -0.6048 -0.3393  0.3194
13258TIP3    H261266   2.322   4.812   0.476 -1.6946  1.3601  1.8471
13259TIP3   OH261267   2.139   2.240  12.651 -0.2495 -0.0097 -0.0296
13259TIP3    H161268   2.208   2.199  12.703  0.9269  0.6279 -1.0442
13259TIP3    H261269   2.184   2.277  12.575 -1.5418  1.4425 -0.1428
13260TIP3   OH261270   6.281   2.770   4.114  0.1879 -0.2572 -0.0301
13260TIP3    H161271   6.288   2.851   4.064 -0.1143 -0.6635 -0.7510
13260TIP3    H261272   6.346   2.779   4.184 -0.4200  0.9589  0.4202
13261TIP3   OH261273   3.187   6.152  16.414 -0.1154 -0.2849  0.0004
13261TIP3    H161274   3.225   6.067  16.437  0.9796  0.4260  0.9598
13261TIP3    H261275   3.095   6.134  16.396 -0.4438 -1.3636  2.3845
13262TIP3   OH261276   2.296   3.685  12.955  0.1278 -0.5109 -0.0556
13262TIP3    H161277   2.229   3.669  13.021 -1.3529  1.1172 -1.0728
13262TIP3    H261278   2.301   3.780  12.948  1.9716 -0.5993 -0.6357
13263TIP3   OH261279   1.327   0.730  15.938  0.0916  0.2589  0.0524
13263TIP3    H161280   1.241   0.705  15.903  0.3203 -0.6433  0.1138
13263TIP3    H261281   1.315   0.728  16.033  0.0140  0.7551  0.0556
13264TIP3   OH261282   1.528   4.867   1.163 -0.0063  0.3653 -0.1895
13264TIP3    H161283   1.595   4.845   1.098  0.6689  0.0137  0.6126
13264TIP3    H261284   1.530   4.794   1.225  0.7266  1.6271  1.3031
13265TIP3   OH261285   3.362   6.554   1.617  0.0757 -0.4256 -0.3104
13265TIP3    H161286   3.355   6.647   1.596  2.1557 -0.1262  0.0259
13265TIP3    H261287   3.369   6.510   1.532 -3.2384 -0.6129 -0.5935
13266TIP3   OH261288   6.423   4.802  10.907  0.1455  0.1079  0.4843
13266TIP3    H161289   6.488   4.746  10.865 -0.4028 -0.8347  0.8526
13266TIP3    H261290   6.368   4.833  10.835  0.5556  0.3151  0.2580
13267TIP3   OH261291   3.304   3.029  12.224 -0.0633 -0.3987  0.2257
13267TIP3    H161292   3.295   3.101  12.286  2.8074 -0.3996  0.7709
13267TIP3    H261293   3.377   3.055  12.167 -0.1805 -2.0520 -0.7471
13268TIP3   OH261294   4.279   3.749   5.785  0.0084 -0.3944  0.0335
13268TIP3    H161295   4.272   3.844   5.775 -0.3523 -0.2054  1.6209
13268TIP3    H261296   4.230   3.713   5.711 -1.1269  0.7068  0.2021
13269TIP3   OH261297   0.696   2.284  11.130 -0.0303 -0.0513 -0.1276
13269TIP3    H161298   0.718   2.258  11.041  0.0095 -1.6358  0.3221
13269TIP3    H261299   0.733   2.372  11.139  1.3785 -0.4992 -1.1686
13270TIP3   OH261300   5.673   0.917   0.706  0.5955 -0.5809  0.3638
13270TIP3    H161301   5.718   0.992   0.743 -1.7153  0.6906  0.7783
13270TIP3    H261302   5.669   0.934   0.612  1.3952 -0.9488  0.2590
13271TIP3   OH261303   0.466   2.362  14.408  1.0284 -0.8607 -0.1776
13271TIP3    H161304   0.539   2.394  14.354  1.3000  0.4553  0.9201
13271TIP3    H261305   0.471   2.414  14.488 -2.4680  0.9258 -0.9349
13272TIP3   OH261306   4.433   6.372  11.686 -0.4613  0.0105 -0.2732
13272TIP3    H161307   4.478   6.456  11.674  0.5854 -0.6792 -1.3930
13272TIP3    H261308   4.417   6.367  11.780 -0.6775  1.5175 -0.1942
13273TIP3   OH261309   1.661   6.801   1.582  0.2076 -0.8863 -0.2829
13273TIP3    H161310   1.578   6.779   1.540 -0.0339 -1.0705  0.2839
13273TIP3    H261311   1.637   6.857   1.656  0.7430  0.5730 -1.1631
13274TIP3   OH261312   1.869   4.455   4.272  0.1664  0.6008  0.0884
13274TIP3    H161313   1.803   4.516   4.239 -0.3442  0.4542  0.7893
13274TIP3    H261314   1.914   4.423   4.194 -1.9964 -0.8745 -0.6456
13275TIP3   OH261315   2.497   5.039   2.373 -0.5290 -0.3730  0.4068
13275TIP3    H161316   2.438   4.970   2.343 -0.6109  0.5970 -1.8548
13275TIP3    H261317   2.558   5.052   2.300 -2.1376  3.7185 -0.4816
13276TIP3   OH261318   1.944   2.788  13.083 -0.3115 -0.9147  0.1441
13276TIP3    H161319   1.946   2.876  13.044  0.8534 -1.0119 -0.0680
13276TIP3    H261320   1.855   2.779  13.118 -0.0463  0.9131  1.4577
13277TIP3   OH261321   6.375   6.603   0.580  0.2274 -0.8159 -0.4034
13277TIP3    H161322   6.352   6.598   0.672 -0.6832  0.2182 -0.5529
13277TIP3    H261323   6.420   6.687   0.571 -1.3244 -0.0121 -1.1988
13278TIP3   OH261324   5.431   2.585  11.570 -0.1427  0.1595 -0.7570
13278TIP3    H161325   5.357   2.524  11.571 -0.6663  0.7430  0.8127
13278TIP3    H261326   5.407   2.650  11.637  1.4925  0.7231 -0.6988
13279TIP3   OH261327   1.065   6.586   1.801  0.2188  0.0944 -0.0099
13279TIP3    H161328   1.133   6.583   1.869  0.2169 -0.6333 -0.0303
13279TIP3    H261329   0.983   6.578   1.849  0.0657  1.9398  0.1061
13280TIP3   OH261330   6.146   0.036  15.196  0.2109 -0.6181 -0.0300
13280TIP3    H161331   6.142  -0.000  15.284  2.1785 -0.5778  0.1031
13280TIP3    H261332   6.071   0.096  15.192  1.0457  0.6916  2.2219
13281TIP3   OH261333   4.152   4.976  15.727  0.0705 -0.6217 -0.5042
13281TIP3    H161334   4.156   5.006  15.818 -0.4418 -1.9296 -0.0252
13281TIP3    H261335   4.096   5.040  15.683 -0.2413 -0.3568  0.2596
13282TIP3   OH261336   4.131   4.040   1.074 -0.2686  1.1588  0.5691
13282TIP3    H161337   4.095   3.951   1.083 -1.6233  1.8091  2.2263
13282TIP3    H261338   4.172   4.058   1.159 -1.2852  2.6190  0.7900
13283TIP3   OH261339   0.389   0.973  16.581  0.3370  0.4619 -0.3569
13283TIP3    H161340   0.377   0.942  16.492 -2.3659  2.1754 -0.7256
13283TIP3    H261341   0.429   1.060  16.572 -1.0639  1.1780 -0.0596
13284TIP3   OH261342   4.865   5.273  16.181  0.1696  0.3386 -0.0117
13284TIP3    H161343   4.832   5.189  16.150  2.1721 -0.1130 -1.0506
13284TIP3    H261344   4.787   5.329  16.185 -1.2089 -1.5048  0.6586
13285TIP3   OH261345   3.889   2.589   2.055 -0.4167 -0.6904 -0.2509
13285TIP3    H161346   3.870   2.618   2.144 -0.8537  1.0530 -0.8818
13285TIP3    H261347   3.873   2.665   2.000  0.8662 -1.4117 -1.7278
13286TIP3   OH261348   5.262   3.093   2.891 -0.1744 -0.3847  0.4105
13286TIP3    H161349   5.198   3.148   2.937  0.3846 -0.6170  1.4952
13286TIP3    H261350   5.217   3.067   2.811 -1.2487 -0.1136  0.9010
13287TIP3   OH261351   2.244   4.942  13.062  0.0406  0.5587 -0.0955
13287TIP3    H161352   2.294   4.861  13.071  0.9038  1.1522  0.5916
13287TIP3    H261353   2.228   4.950  12.968 -1.9537 -1.5149 -0.0213
13288TIP3   OH261354   6.689   2.300  15.418  0.0778 -0.0091  0.1591
13288TIP3    H161355   6.768   2.246  15.427 -0.1657 -0.4020 -0.0676
13288TIP3    H261356   6.620   2.249  15.459 -0.1143  0.2223  0.1267
13289TIP3   OH261357   4.596   4.583  16.732  0.3684  0.2617 -0.1915
13289TIP3    H161358   4.615   4.593  16.826 -1.0808 -1.2481  0.3142
13289TIP3    H261359   4.503   4.604  16.725  0.5268  0.6041 -1.3531
13290TIP3   OH261360   1.537   0.493  13.496 -0.3485 -0.4056 -0.1630
13290TIP3    H161361   1.580   0.541  13.426  0.7569 -0.5792  0.3759
13290TIP3    H261362   1.516   0.560  13.561 -2.4793 -0.0399 -1.1332
13291TIP3   OH261363   0.572   5.304  12.065 -0.2935 -0.1444 -0.2643
13291TIP3    H161364   0.596   5.293  12.157  1.5753 -1.1794 -0.8163
13291TIP3    H261365   0.538   5.393  12.059  2.0083  0.8906  0.9604
13292TIP3   OH261366   2.228   6.598   5.594 -0.2173  0.5300  0.3008
13292TIP3    H161367   2.140   6.638   5.594  0.3689  1.8791  1.2497
13292TIP3    H261368   2.233   6.552   5.678 -0.4867 -0.6876 -0.3289
13293TIP3   OH261369   3.276   0.780   0.432  0.0025 -0.1641 -0.6253
13293TIP3    H161370   3.320   0.788   0.516  2.4489 -1.5553 -1.6626
13293TIP3    H261371   3.309   0.853   0.380  0.9408 -1.0262 -1.3015
13294TIP3   OH261372   5.631   1.177   5.722  0.1956 -0.0004 -0.8888
13294TIP3    H161373   5.720   1.209   5.738  0.5580 -0.4822 -1.8482
13294TIP3    H261374   5.632   1.085   5.748  0.4122 -0.4131 -2.2538
13295TIP3   OH261375   6.724   3.660  10.920  0.1223  0.2194 -0.2555
13295TIP3    H161376   6.685   3.572  10.919  1.0198 -0.2083  0.4490
13295TIP3    H261377   6.651   3.718  10.944 -0.7154 -0.1846 -1.7202
13296TIP3   OH261378   4.703   5.820   3.235 -0.1559  0.2738 -0.4061
13296TIP3    H161379   4.664   5.781   3.157  1.6906  1.0634 -1.7838
13296TIP3    H261380   4.797   5.821   3.218  0.4088 -0.3236  2.2156
13297TIP3   OH261381   4.534   1.768  11.741  0.3106 -0.4139 -0.9133
13297TIP3    H161382   4.490   1.697  11.696 -1.2056  1.2847 -2.2580
13297TIP3    H261383   4.591   1.807  11.674  0.0337  0.5063 -0.6255
13298TIP3   OH261384   2.261   1.807   6.356  0.1023  0.3187 -0.9509
13298TIP3    H161385   2.324   1.879   6.350  1.6182 -0.9224 -0.3920
13298TIP3    H261386   2.188   1.844   6.406  0.0982  1.9344 -2.0401
13299TIP3   OH261387   2.294   0.231   0.299  0.0329 -0.5011 -0.4555
13299TIP3    H161388   2.208   0.246   0.339  0.0147  0.7747 -0.9332
13299TIP3    H261389   2.346   0.192   0.369 -1.2179 -2.3198 -0.4539
13300TIP3   OH261390   0.181   5.854  16.202  0.2478 -0.1644 -0.0852
13300TIP3    H161391   0.193   5.895  16.117 -2.7065  3.2946  0.9001
13300TIP3    H261392   0.250   5.891  16.257 -0.6034  1.3365  0.0447
13301TIP3   OH261393   6.172   0.312  15.436  0.1045  0.4308  0.3618
13301TIP3    H161394   6.233   0.288  15.506  0.8455 -1.3305 -0.8192
13301TIP3    H261395   6.108   0.241  15.434  0.6182 -0.0339 -1.2815
13302TIP3   OH261396   0.953   3.675  13.920  0.7298 -0.0229 -0.0269
13302TIP3    H161397   1.031   3.682  13.976  1.2249  1.2173 -0.8233
13302TIP3    H261398   0.932   3.765  13.898  0.0935 -0.4494 -1.2292
13303TIP3   OH261399   2.450   3.055   5.549  0.0111  0.0403  0.0639
13303TIP3    H161400   2.465   2.962   5.564  0.0504 -0.0285 -0.4087
13303TIP3    H261401   2.536   3.089   5.525 -0.1460  0.0658 -0.4618
13304TIP3   OH261402   0.633   5.065   2.120  0.0995  0.9513  0.1966
13304TIP3    H161403   0.647   5.157   2.141 -0.4226  1.2626 -0.7516
13304TIP3    H261404   0.540   5.050   2.134  0.0925  0.6954 -0.0983
13305TIP3   OH261405   4.989   1.075   3.388 -0.1808 -0.0314  0.2079
13305TIP3    H161406   5.038   1.093   3.307  0.1673  1.8517  0.7863
13305TIP3    H261407   5.033   0.999   3.426  0.8585  0.2157 -0.4412
13306TIP3   OH261408   4.119   0.509  12.781 -0.4418 -0.5116 -0.0849
13306TIP3    H161409   4.152   0.594  12.808 -1.2758 -0.3504  0.4995
13306TIP3    H261410   4.190   0.448  12.802 -0.3299 -0.1236  0.7273
13307TIP3   OH261411   5.552   1.278  14.331 -0.6130  0.4775  0.2515
13307TIP3    H161412   5.528   1.335  14.258  0.7260  0.6574 -0.0887
13307TIP3    H261413   5.600   1.206  14.290 -0.5841  0.1396  0.8752
13308TIP3   OH261414   5.393   4.657   4.768  0.3047 -0.7522  0.5447
13308TIP3    H161415   5.383   4.689   4.679  0.3154  1.7539  1.3622
13308TIP3    H261416   5.446   4.577   4.760 -0.6579 -1.2247 -1.7314
13309TIP3   OH261417   1.356   2.841   5.189 -0.0660 -0.0399  0.7792
13309TIP3    H161418   1.261   2.853   5.178 -0.0529  0.4815  1.1902
13309TIP3    H261419   1.369   2.747   5.177 -0.4184  0.0880 -0.8042
13310TIP3   OH261420   1.257   3.227   1.108 -0.0666 -0.4520 -0.5347
13310TIP3    H161421   1.173   3.238   1.154  0.8453  2.5780  0.6734
13310TIP3    H261422   1.234   3.181   1.028 -2.7609 -0.5087  0.1665
13311TIP3   OH261423   5.838   4.154  16.561 -0.0891 -0.0576 -0.6810
13311TIP3    H161424   5.889   4.190  16.488  0.5887  0.2550 -0.0744
13311TIP3    H261425   5.815   4.230  16.614 -1.0292 -0.2242 -0.8382
13312TIP3   OH261426   4.669   4.107  10.970 -0.4690 -0.3173 -1.0827
13312TIP3    H161427   4.704   4.196  10.963  1.8154 -1.1659 -1.0906
13312TIP3    H261428   4.653   4.080  10.880 -0.4742 -0.1726 -1.1245
13313TIP3   OH261429   6.775   2.795   5.711  0.4395 -0.0162  0.0615
13313TIP3    H161430   6.710   2.851   5.670 -0.1362  0.1337  1.1523
13313TIP3    H261431   6.775   2.820   5.804 -1.1447 -2.9672  0.9873
13314TIP3   OH261432   6.309   5.727   0.161 -0.1949  0.2245 -0.1220
13314TIP3    H161433   6.374   5.697   0.098  1.5821  1.8622  0.7876
13314TIP3    H261434   6.225   5.698   0.127  0.8569 -0.3747 -2.3350
13315TIP3   OH261435   5.105   3.837   4.100 -0.3444  0.4905  0.7117
13315TIP3    H161436   5.156   3.789   4.036  0.6683  1.1004  1.0371
13315TIP3    H261437   5.065   3.769   4.155  0.1865  0.0085  0.5069
13316TIP3   OH261438   5.152   1.136   2.389 -0.3885 -0.0011  0.1668
13316TIP3    H161439   5.074   1.192   2.386 -0.9076 -0.6758  0.8945
13316TIP3    H261440   5.140   1.074   2.318 -0.1692  0.3231 -0.1621
13317TIP3   OH261441   5.698   5.311  13.722 -0.2110  0.1357  0.2424
13317TIP3    H161442   5.769   5.262  13.764  1.1194  1.3329 -0.5037
13317TIP3    H261443   5.618   5.277  13.762  0.8600 -0.3186  2.1352
13318TIP3   OH261444   4.531   0.286   6.027  0.5205  0.1547 -0.6897
13318TIP3    H161445   4.592   0.221   6.063 -2.1054 -1.0302  2.0935
13318TIP3    H261446   4.555   0.368   6.071  0.1498 -0.3007  0.3835
13319TIP3   OH261447   3.917   5.770  15.714 -0.0395  0.3051  0.1386
13319TIP3    H161448   3.990   5.718  15.748  1.8201  1.3034 -2.0808
13319TIP3    H261449   3.926   5.856  15.757  0.9280  0.8399 -1.0858
13320TIP3   OH261450   0.175   2.701  13.704  0.0243 -0.3438  0.4666
13320TIP3    H161451   0.245   2.636  13.702 -0.8207 -1.3631  2.4428
13320TIP3    H261452   0.094   2.651  13.697 -0.6092  0.6506  0.3688
13321TIP3   OH261453   0.859   6.675  13.106 -0.0986  0.1021 -0.3632
13321TIP3    H161454   0.922   6.698  13.038  0.1516  0.6965  0.0630
13321TIP3    H261455   0.825   6.759  13.137  0.0480 -0.1437  0.4876
13322TIP3   OH261456   5.651   6.519   0.758  0.5589 -0.0796 -0.4297
13322TIP3    H161457   5.740   6.487   0.746  0.6514  0.3772 -1.0539
13322TIP3    H261458   5.597   6.463   0.702  0.6550  0.5277 -1.1466
13323TIP3   OH261459   2.028   2.558   1.877  0.0570  0.0054 -0.8009
13323TIP3    H161460   2.114   2.581   1.843  0.6998 -1.3017 -0.1365
13323TIP3    H261461   1.974   2.635   1.860  1.3968  0.9191 -1.0562
13324TIP3   OH261462   0.501   4.421   1.045  0.0118 -0.4969  0.1944
13324TIP3    H161463   0.513   4.326   1.037  1.1205 -0.1934 -4.4997
13324TIP3    H261464   0.406   4.434   1.035 -0.1992 -1.0700  1.2872
13325TIP3   OH261465   3.887   5.198   5.676 -0.2703 -0.3870  0.1590
13325TIP3    H161466   3.825   5.265   5.705  0.1295  1.1221 -2.1427
13325TIP3    H261467   3.968   5.218   5.723 -0.3470  0.3645 -0.0108
13326TIP3   OH261468   3.227   2.885   3.109  0.0890 -0.0904 -0.0044
13326TIP3    H161469   3.150   2.918   3.063  0.6010 -0.1305 -0.9115
13326TIP3    H261470   3.195   2.865   3.197 -0.4133  2.1086  0.3840
13327TIP3   OH261471   6.242   0.067  12.078 -0.4589 -0.0160 -0.3403
13327TIP3    H161472   6.301   0.111  12.016 -1.5819 -1.3848 -2.5155
13327TIP3    H261473   6.177   0.024  12.022 -1.5089 -1.3985  1.8317
13328TIP3   OH261474   4.533   1.221   4.446 -0.5086  0.6819  0.3455
13328TIP3    H161475   4.453   1.259   4.410 -0.3550  1.6629  0.9882
13328TIP3    H261476   4.523   1.127   4.432 -1.0762  0.9107 -0.9546
13329TIP3   OH261477   4.943   5.669  16.905  0.7210 -0.0627 -0.9472
13329TIP3    H161478   4.889   5.626  16.838 -0.7973  0.8654 -0.3551
13329TIP3    H261479   4.958   5.601  16.970 -3.3143  0.6026  0.9770
13330TIP3   OH261480   2.320   0.511   1.822  0.0467  0.3124  0.0487
13330TIP3    H161481   2.283   0.530   1.735  0.2695 -1.4592 -0.4669
13330TIP3    H261482   2.244   0.512   1.881 -0.1273  1.3889 -0.1610
13331TIP3   OH261483   5.161   6.694   6.565 -0.4657 -0.3168 -0.0960
13331TIP3    H161484   5.228   6.646   6.612  0.7199 -0.9629 -2.2910
13331TIP3    H261485   5.113   6.626   6.516 -0.5029  0.4451 -1.1614
13332TIP3   OH261486   1.093   1.060   4.100 -0.0524 -0.4504  0.1187
13332TIP3    H161487   1.039   1.071   4.178  1.0082 -3.0154  1.3462
13332TIP3    H261488   1.178   1.030   4.133  1.2499  0.6671 -1.9180
13333TIP3   OH261489   1.850   2.948  14.036  0.4278 -0.6025  0.9762
13333TIP3    H161490   1.758   2.972  14.048  0.8201  0.3893  2.3250
13333TIP3    H261491   1.865   2.956  13.942 -0.2092  1.8839  1.0062
13334TIP3   OH261492   0.991   5.594   0.365  0.6650 -0.7147  0.4523
13334TIP3    H161493   0.912   5.641   0.340  1.4189  0.9732  1.1135
13334TIP3    H261494   1.026   5.560   0.282 -1.0537 -2.0758  0.2194
13335TIP3   OH261495   1.490   6.617  14.290  0.0799 -0.1260 -0.3541
13335TIP3    H161496   1.544   6.553  14.337  2.3208  0.1183 -2.3926
13335TIP3    H261497   1.435   6.564  14.232 -0.9717 -0.3187  0.7839
13336TIP3   OH261498   2.364   6.479  10.403 -0.4911  0.3376  0.0840
13336TIP3    H161499   2.300   6.544  10.376 -1.0754  0.3408  1.4494
13336TIP3    H261500   2.315   6.397  10.408 -1.3421  0.9113  4.4958
13337TIP3   OH261501   3.654   1.337  13.362 -0.1634 -0.2509 -0.6192
13337TIP3    H161502   3.639   1.358  13.270 -0.1167  1.2263 -0.3147
13337TIP3    H261503   3.732   1.388  13.386 -0.4339 -0.2692  0.3449
13338TIP3   OH261504   0.979   2.562   1.366  0.5562 -0.9304 -0.0095
13338TIP3    H161505   0.947   2.625   1.301  0.5947 -0.2990  0.5727
13338TIP3    H261506   1.075   2.569   1.360  0.5835 -1.7274 -0.6978
13339TIP3   OH261507   6.315   3.845   2.690 -0.2355  0.4486 -0.1543
13339TIP3    H161508   6.332   3.793   2.769  1.6094 -0.5036 -1.1037
13339TIP3    H261509   6.278   3.927   2.723  2.8440  1.1556  2.0160
13340TIP3   OH261510   2.103   1.321   5.874 -0.5601 -0.7548  0.5372
13340TIP3    H161511   2.149   1.381   5.815  0.2881 -0.0875  1.8330
13340TIP3    H261512   2.089   1.372   5.954 -1.2269 -1.7980  1.1049
13341TIP3   OH261513   5.434   3.522   2.594 -0.0891 -0.4567  0.0673
13341TIP3    H161514   5.490   3.569   2.532  0.0193 -0.5287  0.1098
13341TIP3    H261515   5.401   3.447   2.545 -0.9049  0.0962 -0.2450
13342TIP3   OH261516   4.564   3.543  13.555  0.1728  0.3456 -0.1627
13342TIP3    H161517   4.509   3.522  13.480 -0.7918  0.6287  0.4427
13342TIP3    H261518   4.557   3.638  13.565  1.0852  0.4395 -0.3006
13343TIP3   OH261519   5.810   1.898   2.486 -0.3300  0.8648  0.5822
13343TIP3    H161520   5.752   1.834   2.528 -0.5510 -0.0590 -1.0710
13343TIP3    H261521   5.898   1.861   2.498 -0.5131 -0.1417 -0.9601
13344TIP3   OH261522   2.702   1.759  11.457 -0.2309  0.4520 -0.2264
13344TIP3    H161523   2.777   1.727  11.407  0.6298  1.1505  0.5731
13344TIP3    H261524   2.626   1.714  11.419  0.5742 -0.1832 -1.1238
13345TIP3   OH261525   2.751   0.427   6.005 -0.1821  0.3217 -0.4161
13345TIP3    H161526   2.692   0.353   5.985 -1.0097  0.1669  2.1640
13345TIP3    H261527   2.834   0.385   6.029  0.5396  0.4684 -2.4658
13346TIP3   OH261528   4.037   1.315   6.583 -0.2248 -0.0016 -0.2476
13346TIP3    H161529   4.039   1.224   6.616  1.3806  0.3629  0.7955
13346TIP3    H261530   4.097   1.362   6.641  1.4159  1.0834 -2.6847
13347TIP3   OH261531   6.471   2.980   0.696  0.4152  0.8600  0.4814
13347TIP3    H161532   6.394   2.950   0.649  1.3829  0.7716 -1.1012
13347TIP3    H261533   6.486   2.912   0.762 -1.5489  1.5001  1.6642
13348TIP3   OH261534   2.359   5.861  17.165 -0.3121 -0.6940  0.1690
13348TIP3    H161535   2.449   5.886  17.187 -1.1469  1.0737  1.9266
13348TIP3    H261536   2.313   5.863  17.249 -2.5786  1.0640 -1.0058
13349TIP3   OH261537   3.588   2.032   4.377  0.8213  0.1388  0.2652
13349TIP3    H161538   3.611   2.015   4.468  0.1595  0.1260  0.4349
13349TIP3    H261539   3.626   1.959   4.329 -1.1112 -1.3450  0.8684
13350TIP3   OH261540   3.278   1.998   2.366  0.0163  0.0678  0.0420
13350TIP3    H161541   3.366   2.027   2.339  0.0792  0.1065  0.2913
13350TIP3    H261542   3.232   1.985   2.283  0.1886  0.2557 -0.0863
13351TIP3   OH261543   0.834   1.317  11.163  0.2742 -0.0941 -0.1543
13351TIP3    H161544   0.884   1.290  11.239 -0.4462 -0.3829  0.2254
13351TIP3    H261545   0.796   1.402  11.188  0.4041  0.0268 -0.3624
13352TIP3   OH261546   3.434   2.986   5.149 -0.2193  0.3205 -0.8636
13352TIP3    H161547   3.365   3.043   5.181  0.6488  1.1916 -0.4792
13352TIP3    H261548   3.393   2.933   5.081 -0.8446  2.0512 -1.8877
13353TIP3   OH261549   2.220   5.235   2.233 -0.2076  0.6615  0.4793
13353TIP3    H161550   2.148   5.196   2.183  0.0444 -1.4607  1.6466
13353TIP3    H261551   2.299   5.197   2.195  0.2798  2.2971 -0.2177
13354TIP3   OH261552   0.360   5.398   0.305  0.1256  0.2483  0.9618
13354TIP3    H161553   0.432   5.459   0.290 -0.3189  0.3640 -0.9150
13354TIP3    H261554   0.300   5.445   0.362  0.2741  1.1903  0.3611
13355TIP3   OH261555   3.070   0.984  13.114 -0.1890  0.4066 -0.2592
13355TIP3    H161556   3.137   0.973  13.181  0.6027 -0.8095 -1.1966
13355TIP3    H261557   3.065   1.078  13.099  0.5387  0.5886  0.5989
13356TIP3   OH261558   6.601   1.057   0.396  0.2942  0.0739  0.6649
13356TIP3    H161559   6.559   1.102   0.323  0.6602  1.5424  1.3411
13356TIP3    H261560   6.557   1.091   0.474 -1.1901 -2.6136  1.1265
13357TIP3   OH261561   3.726   4.995   5.554 -0.1847 -0.0108 -0.2483
13357TIP3    H161562   3.767   5.055   5.617  0.9412  0.0686 -1.0213
13357TIP3    H261563   3.643   4.971   5.594 -1.1583  2.8286 -0.3236
13358TIP3   OH261564   4.246   2.255   1.378 -0.0676  0.1874 -0.2491
13358TIP3    H161565   4.281   2.170   1.354 -2.1866 -0.8500  0.1432
13358TIP3    H261566   4.265   2.311   1.302  1.6259 -0.4929 -0.3782
13359TIP3   OH261567   1.374   5.345   2.486  0.3074  0.2598 -0.1807
13359TIP3    H161568   1.449   5.397   2.458  0.1380  1.2372  1.0832
13359TIP3    H261569   1.353   5.379   2.573  1.0048 -2.8188  1.3090
13360TIP3   OH261570   6.802   0.511   4.744  0.4386  0.0616 -0.1270
13360TIP3    H161571   6.861   0.453   4.792 -0.7439  1.3531  3.1924
13360TIP3    H261572   6.719   0.464   4.742  0.5374 -0.0871 -1.2213
13361TIP3   OH261573   2.556   1.493  12.540  0.1449  0.0067 -0.0907
13361TIP3    H161574   2.521   1.487  12.451  0.1590 -2.5700  0.0223
13361TIP3    H261575   2.651   1.491  12.529  0.1830  0.8860 -0.0432
13362TIP3   OH261576   4.491   2.725   3.888 -0.3066  0.5348  0.1335
13362TIP3    H161577   4.555   2.786   3.925 -1.0067  1.8913 -0.8038
13362TIP3    H261578   4.429   2.710   3.960 -0.2137  1.0847  0.3385
13363TIP3   OH261579   0.380   6.124  15.732 -0.3415  0.7801 -0.1120
13363TIP3    H161580   0.384   6.199  15.672 -2.9381  1.7224  0.7645
13363TIP3    H261581   0.314   6.066  15.694  0.2245 -0.1277  0.2583
13364TIP3   OH261582   2.848   5.997   2.315  0.1252 -0.5876 -0.7726
13364TIP3    H161583   2.866   5.948   2.395  0.5571 -2.1768 -1.8036
13364TIP3    H261584   2.931   5.997   2.268 -0.5061 -1.0419 -1.9279
13365TIP3   OH261585   6.585   5.039  16.204  0.3194 -0.6679 -0.1368
13365TIP3    H161586   6.501   5.084  16.217  1.3142  1.2742 -0.1159
13365TIP3    H261587   6.601   5.046  16.110  0.5848 -0.8496 -0.1048
13366TIP3   OH261588   2.915   0.573  13.559 -0.2724  0.1759 -0.2139
13366TIP3    H161589   2.824   0.560  13.534  0.1401 -1.5339 -1.0059
13366TIP3    H261590   2.939   0.493  13.607  0.7340  0.7174  0.2333
13367TIP3   OH261591   4.302   3.085   1.308  0.2567  0.8055  0.4508
13367TIP3    H161592   4.211   3.077   1.277  0.7940 -0.7972 -0.8668
13367TIP3    H261593   4.354   3.094   1.228  1.2696  1.9662  1.2008
13368TIP3   OH261594   4.820   1.971   4.652  0.2168  0.3155 -0.4521
13368TIP3    H161595   4.897   1.915   4.644  0.4013  0.3494  0.8931
13368TIP3    H261596   4.842   2.033   4.721 -1.0209  0.3315 -0.0460
13369TIP3   OH261597   6.077   2.102   4.040  0.3735  0.1657 -0.3903
13369TIP3    H161598   6.150   2.157   4.013  0.3004  0.0490 -0.8226
13369TIP3    H261599   6.022   2.094   3.962  0.2143 -0.2499 -0.2387
13370TIP3   OH261600   0.052   4.351   4.502 -0.1288 -0.3336 -0.0834
13370TIP3    H161601   0.045   4.270   4.453  0.3609  0.3826 -1.3803
13370TIP3    H261602  -0.034   4.361   4.544  0.0718 -1.9101  0.7846
13371TIP3   OH261603   3.389   3.607   0.681 -0.5517 -0.5029 -0.1924
13371TIP3    H161604   3.361   3.698   0.697 -0.7826 -0.3496 -1.3966
13371TIP3    H261605   3.339   3.580   0.604 -0.8254 -1.8213  0.4334
13372TIP3   OH261606   6.794   3.692   3.868 -0.4437 -0.4881 -0.2360
13372TIP3    H161607   6.739   3.677   3.945 -1.9739 -2.7572 -1.6708
13372TIP3    H261608   6.738   3.742   3.808 -0.7651 -2.2466 -1.4481
13373TIP3   OH261609   3.068   3.149   4.979  0.4430  0.4846  0.1972
13373TIP3    H161610   2.993   3.121   4.927 -0.3966  0.7368  1.2461
13373TIP3    H261611   3.105   3.068   5.013  1.2187  0.2833 -1.0394
13374TIP3   OH261612   2.263   3.320   2.509  0.0356  0.2192 -0.3519
13374TIP3    H161613   2.304   3.407   2.515 -2.2040  1.3880 -0.8535
13374TIP3    H261614   2.175   3.333   2.545  0.4552 -2.5200  2.0523
13375TIP3   OH261615   2.434   3.121  14.728 -0.0277 -0.5152  0.4743
13375TIP3    H161616   2.396   3.049  14.679  0.5452 -0.8419  0.4978
13375TIP3    H261617   2.482   3.079  14.800  1.0441 -0.1840 -0.0182
13376TIP3   OH261618   6.234   4.752  16.869  0.5523 -0.0226 -0.1304
13376TIP3    H161619   6.160   4.805  16.840  1.4787  2.1167  1.1825
13376TIP3    H261620   6.210   4.662  16.845 -1.7811  0.7691 -1.0479
13377TIP3   OH261621   6.032   2.997   1.992 -0.5594  1.0387 -0.0430
13377TIP3    H161622   6.020   3.070   1.931 -1.2750  2.2589  1.4747
13377TIP3    H261623   6.117   3.012   2.032 -0.9202  1.3440  0.6294
13378TIP3   OH261624   5.730   1.721  11.858  0.5772  0.2652  0.9289
13378TIP3    H161625   5.667   1.714  11.929 -1.2972 -2.6407 -0.8076
13378TIP3    H261626   5.809   1.681  11.892  0.4010  0.7905  2.0065
13379TIP3   OH261627   5.887   3.501  16.918 -0.1013  0.3428  0.0231
13379TIP3    H161628   5.899   3.523  16.825 -0.3386  1.8097  0.3070
13379TIP3    H261629   5.793   3.481  16.925 -0.1988  0.7826  0.0360
13380TIP3   OH261630   3.902   0.291  11.880  0.4727 -0.4064  0.2960
13380TIP3    H161631   3.972   0.288  11.945  2.1407 -1.9104 -1.4163
13380TIP3    H261632   3.905   0.205  11.838 -2.5160 -0.5532  0.1792
13381TIP3   OH261633   6.644   1.374   4.478 -0.1780 -0.6103  0.2092
13381TIP3    H161634   6.718   1.388   4.418  1.3146  0.2732  2.1739
13381TIP3    H261635   6.654   1.283   4.506 -0.3223 -0.7391 -0.1525
13382TIP3   OH261636   1.129   0.843   2.217  0.0809  0.3069  0.1586
13382TIP3    H161637   1.211   0.889   2.236  0.4096 -0.3400  0.3278
13382TIP3    H261638   1.084   0.900   2.154  0.6897  0.6331  0.0102
13383TIP3   OH261639   4.679   4.358  12.997 -0.4316 -0.2012 -0.0486
13383TIP3    H161640   4.653   4.439  12.954  0.0461 -1.6579 -3.3969
13383TIP3    H261641   4.774   4.354  12.986 -0.3731 -0.9300  0.6321
13384TIP3   OH261642   0.965   3.253   0.817 -0.4581  0.3869  0.2618
13384TIP3    H161643   0.890   3.229   0.763 -0.5377 -1.2858  1.0667
13384TIP3    H261644   1.034   3.276   0.753 -1.4549  1.4515 -0.4788
13385TIP3   OH261645   1.138   3.124   5.216  0.0312  0.1677  0.1705
13385TIP3    H161646   1.059   3.107   5.166 -0.1565  1.0590  0.1522
13385TIP3    H261647   1.124   3.080   5.300 -0.2303 -0.1708 -0.0508
13386TIP3   OH261648   1.550   5.090  14.950  0.0806  0.5931  0.0135
13386TIP3    H161649   1.620   5.143  14.989 -0.3565  0.8781  0.4153
13386TIP3    H261650   1.515   5.145  14.880  0.0926  0.5478 -0.0283
13387TIP3   OH261651   2.458   4.665   4.344  0.0878 -0.2419 -0.3772
13387TIP3    H161652   2.365   4.648   4.362  0.4132  0.2525  2.1283
13387TIP3    H261653   2.494   4.579   4.320 -0.6235 -0.8485  0.6416
13388TIP3   OH261654   6.200   2.509  13.679 -0.4646  0.5013 -0.0003
13388TIP3    H161655   6.155   2.588  13.710  1.4732  1.5317  0.3698
13388TIP3    H261656   6.283   2.541  13.645 -0.8507 -1.0594 -2.6879
13389TIP3   OH261657   2.163   6.145  14.025 -0.3902 -0.2944 -0.5027
13389TIP3    H161658   2.197   6.232  14.004  0.2458 -0.4292 -0.0693
13389TIP3    H261659   2.157   6.101  13.940  0.8932 -0.3879 -0.5631
13390TIP3   OH261660   4.742   1.634  13.284 -0.2207 -0.2370 -0.3680
13390TIP3    H161661   4.752   1.626  13.379 -1.5149 -1.3426 -0.2901
13390TIP3    H261662   4.655   1.671  13.273 -1.1967 -2.5751 -1.1292
13391TIP3   OH261663   5.227   5.785  14.202  0.1941 -0.3933 -0.7417
13391TIP3    H161664   5.186   5.869  14.182  1.5889  0.2121 -1.1508
13391TIP3    H261665   5.236   5.741  14.118  1.2110 -0.1258 -0.7792
13392TIP3   OH261666   1.969   0.125  15.410  1.0243 -0.0007 -0.1638
13392TIP3    H161667   1.907   0.195  15.389  0.8341 -0.2317 -0.3889
13392TIP3    H261668   1.914   0.048  15.423  1.1849  0.0185  0.6765
13393TIP3   OH261669   4.017   3.403  14.851 -0.6458  0.0187 -0.2919
13393TIP3    H161670   4.005   3.366  14.764  1.2957 -0.2428 -0.4732
13393TIP3    H261671   3.990   3.494  14.842  1.1794  0.4789 -1.6545
13394TIP3   OH261672   1.051   0.902   6.330 -0.2862 -0.0457  0.4818
13394TIP3    H161673   1.143   0.899   6.306 -0.3614 -0.4558  0.2314
13394TIP3    H261674   1.023   0.991   6.309 -0.0885 -0.0890  0.0339
13395TIP3   OH261675   3.400   1.155   3.706  0.1529  0.0485 -0.1520
13395TIP3    H161676   3.446   1.076   3.677 -0.6024 -0.5098  0.1203
13395TIP3    H261677   3.325   1.163   3.647  0.8175  1.1856 -0.8546
13396TIP3   OH261678   0.298   6.775   6.400 -0.0762  0.0840  0.2185
13396TIP3    H161679   0.240   6.738   6.333 -1.0307 -1.1823  1.6591
13396TIP3    H261680   0.352   6.838   6.353  0.5419 -1.9872 -2.1055
13397TIP3   OH261681   2.804   2.005   4.830 -0.1605  0.4752 -0.0042
13397TIP3    H161682   2.834   1.916   4.848 -0.3030  0.5212  0.4537
13397TIP3    H261683   2.807   2.049   4.914  3.5050  2.0320 -0.7354
13398TIP3   OH261684   4.718   5.982  11.246 -0.0763  0.2201 -0.0410
13398TIP3    H161685   4.693   5.961  11.156 -0.0018  0.4899 -0.1255
13398TIP3    H261686   4.739   6.075  11.244 -2.6277  0.8871  0.8288
13399TIP3   OH261687   5.246   4.246  12.148 -0.6709 -0.3849  0.1130
13399TIP3    H161688   5.188   4.323  12.146 -0.0844  0.1143  1.3526
13399TIP3    H261689   5.331   4.281  12.174 -0.5750 -1.5558  1.5036
13400TIP3   OH261690   2.880   4.871   5.870  0.3418 -0.4911  0.0305
13400TIP3    H161691   2.839   4.956   5.886 -0.1089 -0.7867  0.4483
13400TIP3    H261692   2.856   4.850   5.779 -0.6518 -0.7745  0.3434
13401TIP3   OH261693   6.815   3.920  13.857 -0.6978 -0.3689 -0.2838
13401TIP3    H161694   6.911   3.921  13.856 -0.7093  0.4445 -0.6811
13401TIP3    H261695   6.791   3.842  13.807 -0.2707  0.8221 -2.4429
13402TIP3   OH261696   0.900   3.260   4.442  0.6051  0.2471  0.0934
13402TIP3    H161697   0.983   3.220   4.467 -0.0264 -1.0226  0.2446
13402TIP3    H261698   0.871   3.307   4.521  0.8449  0.1364  0.2487
13403TIP3   OH261699   4.286   6.684  11.292 -0.5724  0.7553  0.9384
13403TIP3    H161700   4.312   6.750  11.228  0.2221  1.0788  1.5707
13403TIP3    H261701   4.194   6.700  11.308 -0.9730  0.2189 -0.6388
13404TIP3   OH261702   2.055   3.328  11.918  0.1097 -0.0222 -0.0762
13404TIP3    H161703   2.149   3.340  11.901 -0.1752  1.5395 -0.7441
13404TIP3    H261704   2.017   3.318  11.830 -0.4853  0.5236  0.1171
13405TIP3   OH261705   5.026   4.658  13.884  0.2740 -0.0995 -0.3835
13405TIP3    H161706   5.009   4.615  13.967  1.4675 -0.6667 -0.4234
13405TIP3    H261707   5.020   4.589  13.818  0.5945  0.0980 -0.6265
13406TIP3   OH261708   0.409   3.526  13.586  0.3018 -0.4981 -0.8299
13406TIP3    H161709   0.341   3.500  13.649  0.8292 -4.4864 -1.6363
13406TIP3    H261710   0.363   3.535  13.503  0.4795 -1.3381 -1.0212
13407TIP3   OH261711   3.692   1.349   0.777  0.1203  0.3036 -0.0663
13407TIP3    H161712   3.708   1.444   0.774 -0.5927  0.4147 -2.0213
13407TIP3    H261713   3.608   1.338   0.732  0.7994 -1.3567 -1.0316
13408TIP3   OH261714   1.705   0.698   4.885 -0.3541 -0.5226 -0.7349
13408TIP3    H161715   1.700   0.689   4.981  1.5887 -1.0263 -0.6250
13408TIP3    H261716   1.656   0.624   4.851 -1.8757  0.1918 -0.1606
13409TIP3   OH261717   2.724   0.366   0.631 -0.2870 -0.7735 -0.2892
13409TIP3    H161718   2.735   0.402   0.543 -1.7784 -0.7167 -0.4686
13409TIP3    H261719   2.634   0.385   0.655  0.0192 -0.9950  1.1771
13410TIP3   OH261720   0.977   1.084   1.731 -0.0344 -0.2831 -0.2621
13410TIP3    H161721   0.889   1.063   1.697 -0.2327 -0.0356  0.0951
13410TIP3    H261722   1.032   1.089   1.653  0.0783 -2.3651 -0.3799
13411TIP3   OH261723   1.247   3.492  14.317  0.5075 -0.9782  0.1935
13411TIP3    H161724   1.315   3.454  14.374  1.1216  0.3049  0.3446
13411TIP3    H261725   1.233   3.580  14.352  0.0990 -0.5630 -0.9855
13412TIP3   OH261726   5.055   4.076  11.152 -0.5399 -0.1437  0.6431
13412TIP3    H161727   5.049   4.060  11.058 -0.2826 -1.4087  0.8351
13412TIP3    H261728   5.140   4.118  11.164 -0.9047  0.7583  0.2347
13413TIP3   OH261729   0.068   3.595  12.836  0.2863  0.6487 -0.0467
13413TIP3    H161730  -0.024   3.620  12.848 -0.3733 -1.6285  0.0608
13413TIP3    H261731   0.090   3.630  12.749 -1.0354  0.2965 -0.5546
13414TIP3   OH261732   1.102   5.581  14.927 -0.1642 -0.6278 -0.3224
13414TIP3    H161733   1.176   5.523  14.944  2.1559  2.5285  1.4618
13414TIP3    H261734   1.047   5.574  15.004  0.4121 -0.1000  0.1464
13415TIP3   OH261735   2.019   4.323   1.261 -0.6390  0.3045  0.1692
13415TIP3    H161736   2.064   4.275   1.332  0.1046 -1.0363 -1.1465
13415TIP3    H261737   2.031   4.415   1.283 -0.3853 -0.0727  1.7572
13416TIP3   OH261738   0.189   1.595  12.171  0.2206  0.2316  0.3859
13416TIP3    H161739   0.183   1.502  12.193  0.4853 -0.0702 -0.7771
13416TIP3    H261740   0.114   1.635  12.215 -1.4274 -0.9652 -1.2224
13417TIP3   OH261741   4.562   2.143   4.826 -0.3388  0.0231 -0.4792
13417TIP3    H161742   4.654   2.124   4.844 -0.1647  0.8423 -0.4587
13417TIP3    H261743   4.562   2.181   4.738 -0.4285  1.6237  0.1875
13418TIP3   OH261744   1.287   5.344  14.939  0.0266 -0.4335  0.0463
13418TIP3    H161745   1.304   5.262  14.891  0.7472  0.6264 -1.5879
13418TIP3    H261746   1.335   5.411  14.891 -1.6584  1.2140  0.5238
13419TIP3   OH261747   5.951   3.944   5.253  0.0499 -0.0639  0.2464
13419TIP3    H161748   5.898   3.983   5.184  0.7631 -1.4129 -1.1110
13419TIP3    H261749   5.929   3.995   5.332 -2.0067  0.4406 -0.5998
13420TIP3   OH261750   5.143   5.127  15.717  0.0191  0.1997 -0.2125
13420TIP3    H161751   5.202   5.053  15.701  0.2154  0.3625 -0.2342
13420TIP3    H261752   5.057   5.095  15.688  0.0149 -0.1842  0.2081
13421TIP3   OH261753   6.259   0.811  15.001  0.1677  0.4312  0.0744
13421TIP3    H161754   6.195   0.835  14.935  1.8143  0.3836 -1.6457
13421TIP3    H261755   6.344   0.828  14.959  1.3108  1.4930  2.5977
13422TIP3   OH261756   0.357   4.460   4.726 -0.5012  0.3921  0.2131
13422TIP3    H161757   0.396   4.536   4.769 -0.3852  0.8793 -0.7154
13422TIP3    H261758   0.368   4.388   4.788  1.4911  0.6090  0.1894
13423TIP3   OH261759   6.043   6.620   2.974  0.2214  0.6475 -0.2389
13423TIP3    H161760   6.130   6.651   3.000  0.9475 -0.7600 -0.8650
13423TIP3    H261761   5.988   6.699   2.975  0.8214  1.1333  2.7940
13424TIP3   OH261762   1.039   3.407   2.992 -0.5356 -0.0119 -0.3519
13424TIP3    H161763   1.107   3.363   3.044 -0.1399 -0.6407 -1.3680
13424TIP3    H261764   1.010   3.479   3.047  1.7193  0.9563 -0.3037
13425TIP3   OH261765   0.322   5.365   0.787 -0.0716 -0.1015 -0.7319
13425TIP3    H161766   0.410   5.379   0.822 -0.6099 -0.0368  0.6763
13425TIP3    H261767   0.266   5.359   0.865 -1.2454 -0.6201 -1.5792
13426TIP3   OH261768   2.376   4.446   0.257 -0.1413  0.0495  0.2084
13426TIP3    H161769   2.385   4.424   0.350  1.2487 -1.4935 -0.2567
13426TIP3    H261770   2.373   4.362   0.212  2.5648  0.7038 -1.4035
13427TIP3   OH261771   6.059   5.663   2.858  0.4023 -0.2897  0.7826
13427TIP3    H161772   6.151   5.636   2.848  0.6508  0.6379  0.4795
13427TIP3    H261773   6.014   5.582   2.882  1.3048 -0.7522  0.9986
13428TIP3   OH261774   5.035   0.271   2.113 -0.3063 -0.2083 -0.0226
13428TIP3    H161775   5.117   0.234   2.148 -0.5052  0.3145  1.0196
13428TIP3    H261776   5.043   0.260   2.018 -0.0797 -2.3436  0.1953
13429TIP3   OH261777   6.518   2.499  14.618  0.3304 -0.5146 -0.4970
13429TIP3    H161778   6.444   2.513  14.678  1.3488  0.0605  0.6666
13429TIP3    H261779   6.588   2.553  14.654  1.5287 -1.5558 -1.2048
13430TIP3   OH261780   0.497   2.769  14.849  0.3133  0.2275  0.0633
13430TIP3    H161781   0.408   2.787  14.880 -0.0978 -1.6727  0.1346
13430TIP3    H261782   0.547   2.753  14.930 -0.0354 -1.7142 -0.0657
13431TIP3   OH261783   3.305   2.025   4.515 -0.2628  0.1668 -0.5457
13431TIP3    H161784   3.400   2.017   4.501 -0.3184  1.2870 -1.7750
13431TIP3    H261785   3.278   1.939   4.548  1.0157 -0.5239 -1.2272
13432TIP3   OH261786   6.539   5.794  11.401 -0.3707 -0.4250  0.3203
13432TIP3    H161787   6.468   5.844  11.360  0.0219  0.6883  0.9597
13432TIP3    H261788   6.619   5.837  11.371 -0.0709  0.3094  2.0759
13433TIP3   OH261789   1.992   3.507  12.166 -0.8352  0.1099 -0.3044
13433TIP3    H161790   1.998   3.466  12.079  0.0186 -0.7130  0.1252
13433TIP3    H261791   2.031   3.443  12.225 -1.7474  0.5065  0.7570
13434TIP3   OH261792   5.531   4.066  12.160  0.3454  0.2509  0.1131
13434TIP3    H161793   5.505   4.158  12.166  1.4430  0.5663  0.3304
13434TIP3    H261794   5.525   4.033  12.250 -0.4443 -0.0066 -0.0324
13435TIP3   OH261795   4.376   0.932  13.898 -0.3275 -0.5549  0.4248
13435TIP3    H161796   4.303   0.980  13.859  0.8766 -0.1850 -1.5169
13435TIP3    H261797   4.438   1.000  13.923 -0.4315 -0.8928  1.6698
13436TIP3   OH261798   3.785   2.326  13.813  0.2223 -0.2020 -0.3745
13436TIP3    H161799   3.798   2.237  13.782 -0.6764 -0.8457  1.0184
13436TIP3    H261800   3.700   2.352  13.776  0.4289  0.0348 -0.6835
13437TIP3   OH261801   5.462   1.271  11.276 -0.2810  0.9348  0.2938
13437TIP3    H161802   5.543   1.308  11.311  0.4735  1.3310 -1.7203
13437TIP3    H261803   5.483   1.180  11.256 -0.2931  1.0583 -0.3068
13438TIP3   OH261804   4.536   5.693  11.411  0.7350  0.0962 -0.2655
13438TIP3    H161805   4.516   5.784  11.390  1.3201  0.9342  2.3775
13438TIP3    H261806   4.555   5.694  11.505  0.9968 -2.7289 -0.2027
13439TIP3   OH261807   3.603   0.848  14.112 -0.7179 -0.2507 -0.1025
13439TIP3    H161808   3.678   0.795  14.083  1.5292  1.8627  1.4388
13439TIP3    H261809   3.622   0.868  14.204 -2.7271  1.1813  0.0672
13440TIP3   OH261810   1.460   0.053  11.585 -0.0673 -0.0749 -0.1024
13440TIP3    H161811   1.538   0.051  11.529  0.3316  0.3493  0.4193
13440TIP3    H261812   1.421  -0.033  11.575  1.3008 -0.8483  0.7575
13441TIP3   OH261813   5.536   5.179   3.307  0.5437  0.6055  0.3127
13441TIP3    H161814   5.590   5.255   3.330 -2.2520  2.8166  0.1100
13441TIP3    H261815   5.499   5.200   3.222 -0.1164 -1.1423  0.1264
13442TIP3   OH261816   4.087   1.086   2.406 -0.5034  0.4336 -0.7579
13442TIP3    H161817   4.103   1.104   2.499 -1.5274 -1.8903 -0.0601
13442TIP3    H261818   4.009   1.136   2.384 -1.1320 -0.1475  0.0859
13443TIP3   OH261819   1.828   1.968   1.571  0.3046 -0.0289  0.1287
13443TIP3    H161820   1.761   1.901   1.572  0.9782 -0.9136 -2.8990
13443TIP3    H261821   1.821   2.011   1.656 -3.0814 -1.0185  0.4940
13444TIP3   OH261822   1.352   3.050  12.636 -0.0372  0.0008 -0.1665
13444TIP3    H161823   1.275   3.107  12.633 -0.2580 -0.3073 -0.4941
13444TIP3    H261824   1.356   3.020  12.727  0.4664  1.0514  0.1724
13445TIP3   OH261825   5.756   1.802   0.076  0.0238  0.5095 -0.1610
13445TIP3    H161826   5.845   1.793   0.042 -0.2003  0.4425 -0.7498
13445TIP3    H261827   5.713   1.863   0.016 -1.3905 -2.1589 -2.1392
13446TIP3   OH261828   3.655   0.674  15.197 -0.2892  0.3676  0.2013
13446TIP3    H161829   3.592   0.616  15.155  0.3773  0.0004 -0.3244
13446TIP3    H261830   3.650   0.652  15.290 -0.1152 -0.4691  0.0185
13447TIP3   OH261831   4.775   6.692  12.148 -0.0518 -0.9484 -0.4648
13447TIP3    H161832   4.846   6.756  12.151 -0.9545  0.1717 -1.5950
13447TIP3    H261833   4.766   6.662  12.239  1.6035 -0.8570 -0.2458
13448TIP3   OH261834   6.125   5.421   1.696  0.1679  0.3748 -0.0649
13448TIP3    H161835   6.185   5.346   1.700  0.9425  1.0145  2.3611
13448TIP3    H261836   6.039   5.383   1.713  0.3949 -0.1033  0.0552
13449TIP3   OH261837   2.666   4.408  14.601  0.1613 -0.4788 -0.9449
13449TIP3    H161838   2.706   4.426  14.516 -1.9196 -1.1207 -2.1160
13449TIP3    H261839   2.572   4.410  14.585 -0.2926 -1.1198  1.2543
13450TIP3   OH261840   1.724   2.098  15.336  0.0433  0.1304  0.3906
13450TIP3    H161841   1.767   2.174  15.374  1.6769 -0.9206  0.7572
13450TIP3    H261842   1.660   2.135  15.275  0.2905  1.7876  1.0715
13451TIP3   OH261843   0.502   5.840  15.322 -0.0734 -0.2834 -0.0498
13451TIP3    H161844   0.562   5.804  15.256  0.1704  1.7533 -0.9972
13451TIP3    H261845   0.526   5.794  15.403  1.9318 -0.4273 -0.6650
13452TIP3   OH261846   2.767   1.448  16.389  0.6861 -0.2791 -0.2600
13452TIP3    H161847   2.753   1.486  16.302 -0.3274  1.8014  0.7491
13452TIP3    H261848   2.718   1.366  16.387 -2.2447  1.3545 -0.6188
13453TIP3   OH261849   3.136   6.270   2.212 -0.0220  0.4888  0.6995
13453TIP3    H161850   3.157   6.328   2.139  0.1349  1.6700  1.6476
13453TIP3    H261851   3.216   6.268   2.265 -0.5407  0.6925  1.5058
13454TIP3   OH261852   4.417   1.490  13.057  0.1436  0.3810 -0.3099
13454TIP3    H161853   4.480   1.546  13.010  0.3618 -1.1499 -1.9589
13454TIP3    H261854   4.406   1.414  13.000 -0.1683 -1.2543  1.8245
13455TIP3   OH261855   3.811   4.016   5.218  0.0510 -0.2586  0.9071
13455TIP3    H161856   3.718   4.037   5.212 -0.3162 -1.8017  0.8010
13455TIP3    H261857   3.855   4.096   5.189 -1.2596  0.1914  0.0379
13456TIP3   OH261858   1.359   2.313  11.465  0.3853 -0.2936 -0.0231
13456TIP3    H161859   1.347   2.259  11.544  0.5842 -0.5941 -0.1966
13456TIP3    H261860   1.308   2.392  11.483  1.3732  0.1578  0.9108
13457TIP3   OH261861   2.789   6.092   2.678  0.3682  0.1222  0.2901
13457TIP3    H161862   2.723   6.093   2.748  1.2899  0.7704  1.1821
13457TIP3    H261863   2.751   6.148   2.609 -0.3777 -0.1995  0.4256
13458TIP3   OH261864   6.162   3.966   1.910  0.1939 -0.0440 -0.3613
13458TIP3    H161865   6.144   3.942   2.000  1.0058  0.2608 -0.1053
13458TIP3    H261866   6.084   4.012   1.881  0.3249  0.7753  0.5317
13459TIP3   OH261867   6.375   4.454   5.522 -0.9173  0.1984 -0.5594
13459TIP3    H161868   6.283   4.456   5.496 -1.0594 -1.9740 -0.4074
13459TIP3    H261869   6.417   4.518   5.465 -2.3534  0.5152 -1.3158
13460TIP3   OH261870   0.440   4.277  14.945  0.3253  0.0525  0.5516
13460TIP3    H161871   0.426   4.227  14.864 -0.5869 -0.5907  1.0890
13460TIP3    H261872   0.494   4.220  15.000 -0.6424 -0.3386  1.1292
13461TIP3   OH261873   3.322   2.573   5.124  0.3837  0.4661 -0.7784
13461TIP3    H161874   3.339   2.544   5.034  0.9343 -1.2091 -0.1758
13461TIP3    H261875   3.409   2.589   5.160  0.2570 -0.3089 -0.1095
13462TIP3   OH261876   4.142   1.429  16.915 -0.2714 -0.8545 -0.2835
13462TIP3    H161877   4.096   1.501  16.959 -1.3103  0.0435 -2.6761
13462TIP3    H261878   4.137   1.357  16.977 -2.1637  0.1562  0.8348
13463TIP3   OH261879   5.901   4.018   5.495  0.7050 -0.8596 -0.2070
13463TIP3    H161880   5.832   3.990   5.556  0.2296  1.3612  0.3770
13463TIP3    H261881   5.983   4.000   5.541  0.4037 -0.7632  0.3827
13464TIP3   OH261882   5.871   6.047  12.518 -0.0376  0.1416 -0.3564
13464TIP3    H161883   5.780   6.031  12.546  0.7393 -0.2121  2.2517
13464TIP3    H261884   5.877   6.142  12.512 -0.5115  0.1809 -0.2640
13465TIP3   OH261885   2.209   1.299  15.400 -0.2869 -0.1921 -0.8139
13465TIP3    H161886   2.284   1.253  15.436 -1.3303 -0.9967  0.4383
13465TIP3    H261887   2.187   1.252  15.320  0.6184  0.1584 -1.2858
13466TIP3   OH261888   3.265   1.149   5.904 -0.0759  0.0459 -0.9173
13466TIP3    H161889   3.282   1.112   5.991 -2.5234  0.2681 -0.2619
13466TIP3    H261890   3.341   1.204   5.887  1.4903 -1.6647  0.1038
13467TIP3   OH261891   4.948   4.098  16.110  0.5321  0.0829 -0.0146
13467TIP3    H161892   5.029   4.083  16.161 -0.0802 -0.6846  0.7615
13467TIP3    H261893   4.892   4.024  16.133 -0.3915  0.6087 -0.5596
13468TIP3   OH261894   0.771   3.656  14.567  0.0743  0.3817 -0.3862
13468TIP3    H161895   0.866   3.667  14.558  0.0229 -0.3732 -2.4021
13468TIP3    H261896   0.734   3.708  14.495 -0.8271 -1.8178 -1.6159
13469TIP3   OH261897   0.260   4.001  11.718 -0.7653 -0.2452  0.1975
13469TIP3    H161898   0.213   3.919  11.733  1.3126 -1.6468 -0.5582
13469TIP3    H261899   0.294   4.026  11.804  0.8184 -1.6658  0.0412
13470TIP3   OH261900   6.674   4.076  16.664  0.0816 -0.6466  0.4171
13470TIP3    H161901   6.645   4.055  16.575 -0.0825 -0.5606  0.4507
13470TIP3    H261902   6.770   4.082  16.657 -0.0364  1.2699 -0.1717
13471TIP3   OH261903   2.022   1.778   1.576 -0.1817  0.2018  0.3387
13471TIP3    H161904   2.052   1.744   1.492  0.3291  0.6482  0.3330
13471TIP3    H261905   1.960   1.846   1.553 -0.5581 -0.1393  0.3366
13472TIP3   OH261906   0.830   5.229  16.727 -0.3243 -0.2063  0.1882
13472TIP3    H161907   0.864   5.143  16.751  0.0192 -0.3921 -0.9127
13472TIP3    H261908   0.814   5.224  16.633  0.2842  1.1278 -0.0177
13473TIP3   OH261909   4.557   4.286   3.045 -0.3559  0.6004  0.0240
13473TIP3    H161910   4.556   4.230   2.968  0.8122 -0.5473  0.8039
13473TIP3    H261911   4.519   4.369   3.015 -1.6528 -0.4234 -1.2791
13474TIP3   OH261912   2.156   1.082   4.320 -0.3493 -0.1230  0.2231
13474TIP3    H161913   2.135   1.013   4.383 -1.8179  1.1716  1.2085
13474TIP3    H261914   2.093   1.070   4.249 -0.1237 -0.2466  0.0439
13475TIP3   OH261915   3.362   6.434   5.158  0.3583 -0.1234 -0.1270
13475TIP3    H161916   3.267   6.446   5.153  0.2972 -0.5780 -0.0460
13475TIP3    H261917   3.373   6.349   5.199  0.8055  0.6162  1.3653
13476TIP3   OH261918   1.146   3.038   2.075  0.1334 -0.2531  0.6848
13476TIP3    H161919   1.069   3.027   2.131 -0.2450 -0.2107  0.1774
13476TIP3    H261920   1.200   3.102   2.122 -1.4384  1.9002 -0.2635
13477TIP3   OH261921   0.864   0.472   0.634  0.6765 -0.5239 -0.3060
13477TIP3    H161922   0.881   0.426   0.717 -3.2008  0.6675  1.3985
13477TIP3    H261923   0.774   0.450   0.613  0.8005  1.1329 -2.9690
13478TIP3   OH261924   3.850   5.374   5.059 -0.0620  0.0723 -0.3234
13478TIP3    H161925   3.809   5.287   5.063  0.7920 -0.3671 -0.7064
13478TIP3    H261926   3.796   5.424   4.998 -1.8111  0.5305  1.4935
13479TIP3   OH261927   0.837   4.959  11.874 -0.5647 -0.0318  0.2710
13479TIP3    H161928   0.849   5.053  11.888 -0.9018  0.7057 -3.3003
13479TIP3    H261929   0.769   4.954  11.807 -0.0727 -2.8084 -0.1183
13480TIP3   OH261930   2.336   0.741   2.213 -0.6732  0.0428  0.0362
13480TIP3    H161931   2.410   0.733   2.154  0.4458  0.5073  1.3069
13480TIP3    H261932   2.327   0.836   2.227 -0.5192 -0.0834  1.0623
13481TIP3   OH261933   6.207   0.799  13.998  0.2252  0.6116  0.0635
13481TIP3    H161934   6.136   0.773  13.939  0.7684  0.0456 -0.3556
13481TIP3    H261935   6.168   0.799  14.085  0.2654 -2.0550  0.1665
13482TIP3   OH261936   5.961   2.373  16.889 -0.3284  0.7420 -0.7303
13482TIP3    H161937   5.922   2.348  16.973  2.5527 -1.4422  0.1246
13482TIP3    H261938   6.035   2.429  16.912  0.6352 -0.0524 -1.7553
13483TIP3   OH261939   0.889   3.796  17.100 -0.7647 -0.1943 -0.2880
13483TIP3    H161940   0.918   3.781  17.010  1.2256  1.7130 -0.0684
13483TIP3    H261941   0.861   3.888  17.101 -1.9076 -0.5321  0.7667
13484TIP3   OH261942   1.375   5.223   2.249  0.5570  0.1606 -0.1060
13484TIP3    H161943   1.347   5.279   2.176  0.6328 -0.3297 -0.5161
13484TIP3    H261944   1.370   5.280   2.325 -0.6384  0.3643 -0.3096
13485TIP3   OH261945   1.251   3.931   1.066 -0.0007  0.1371  0.4447
13485TIP3    H161946   1.325   3.872   1.061 -0.2164 -0.2304  1.3629
13485TIP3    H261947   1.277   4.008   1.015  1.1053  0.1176  0.9695
13486TIP3   OH261948   1.228   4.537  15.349 -0.3400  0.6810  0.1581
13486TIP3    H161949   1.245   4.527  15.443 -1.3223 -1.4744  0.1784
13486TIP3    H261950   1.313   4.528  15.308  0.1990  2.2735  0.8339
13487TIP3   OH261951   1.727   6.434  15.190  0.4611  0.0925  0.2256
13487TIP3    H161952   1.818   6.439  15.218  0.0907  0.0498  1.4957
13487TIP3    H261953   1.714   6.343  15.164  1.6595  0.7546 -3.2723
13488TIP3   OH261954   1.685   4.947  16.520 -0.1855 -0.0904 -0.0030
13488TIP3    H161955   1.699   4.956  16.614 -1.2937 -0.5109  0.2183
13488TIP3    H261956   1.698   4.854  16.502 -1.5924 -0.3155  0.0417
13489TIP3   OH261957   0.721   1.428   4.369  0.4939  0.2351 -0.1962
13489TIP3    H161958   0.703   1.363   4.437  0.3435 -1.4815 -1.7901
13489TIP3    H261959   0.815   1.442   4.374  0.8787 -1.7187 -1.1445
13490TIP3   OH261960   4.653   3.088   1.778  0.2450  0.2076 -0.4211
13490TIP3    H161961   4.690   3.004   1.805  0.1967  0.6974  1.2444
13490TIP3    H261962   4.578   3.064   1.723 -1.2685 -0.9510  1.9920
13491TIP3   OH261963   5.353   0.811  13.899 -0.7892  0.2010  0.5446
13491TIP3    H161964   5.427   0.760  13.867  0.1525  1.3045  0.9162
13491TIP3    H261965   5.372   0.901  13.873 -1.5614  0.6388  1.4180
13492TIP3   OH261966   2.694   1.923  11.165 -0.4152  0.6716  0.4396
13492TIP3    H161967   2.753   1.847  11.162  2.2525  2.6202 -0.7512
13492TIP3    H261968   2.746   1.993  11.204 -2.4757  2.1687  0.6966
13493TIP3   OH261969   0.493   6.638  11.406 -0.1079  0.5806 -0.0145
13493TIP3    H161970   0.436   6.617  11.332 -1.8855  1.6340  0.9769
13493TIP3    H261971   0.481   6.732  11.420  1.6193  0.7613  0.4815
13494TIP3   OH261972   3.469   2.094  13.437 -0.0625 -0.2093 -0.1097
13494TIP3    H161973   3.485   2.179  13.477 -0.4597 -0.4551  0.5987
13494TIP3    H261974   3.380   2.101  13.401 -0.3960 -0.5718  0.6307
13495TIP3   OH261975   3.875   4.511   1.578  0.6310 -0.1009 -0.4590
13495TIP3    H161976   3.863   4.597   1.619  0.5652  0.1292 -0.9531
13495TIP3    H261977   3.818   4.514   1.501 -0.4565 -1.1033  0.2733
13496TIP3   OH261978   2.164   1.209  15.053 -0.4316 -0.0348  0.1588
13496TIP3    H161979   2.179   1.202  14.959  1.6678  0.0146  0.4617
13496TIP3    H261980   2.249   1.195  15.093 -0.8761  1.8773  1.9790
13497TIP3   OH261981   0.038   0.443   8.969  0.1495 -0.2147 -0.3318
13497TIP3    H161982  -0.028   0.397   9.022 -1.4194 -0.3239 -2.2799
13497TIP3    H261983   0.089   0.492   9.033 -1.2809 -0.7909  1.3474
13498TIP3   OH261984   4.575   4.587  17.007  0.9073  0.1388  0.2601
13498TIP3    H161985   4.509   4.518  17.016 -0.8424  1.7581  0.4187
13498TIP3    H261986   4.649   4.556  17.059 -0.8520 -0.4170  2.5811
13499TIP3   OH261987   5.240   0.618   0.654  0.0607 -0.1819 -0.1799
13499TIP3    H161988   5.251   0.667   0.573 -0.0600 -1.5190 -1.0452
13499TIP3    H261989   5.147   0.594   0.655  0.1492 -0.5201  0.1443
13500TIP3   OH261990   2.115   4.661   2.346 -0.2272  0.9856 -0.1887
13500TIP3    H161991   2.081   4.704   2.267  0.0738 -0.7503 -1.3268
13500TIP3    H261992   2.077   4.710   2.419 -1.5903  1.8272 -1.4142
13501TIP3   OH261993   3.932   1.751   5.685  0.1215 -0.4019 -0.0182
13501TIP3    H161994   3.917   1.787   5.773  0.4984  1.1840 -0.5706
13501TIP3    H261995   3.948   1.658   5.700  0.5435 -0.1016  1.6422
13502TIP3   OH261996   6.509   5.732   4.523 -0.0127 -0.1382  0.0663
13502TIP3    H161997   6.575   5.778   4.471  0.7661  0.5060  1.5603
13502TIP3    H261998   6.554   5.711   4.605 -1.3594 -0.6406  0.7010
13503TIP3   OH261999   5.215   0.812   3.330 -0.4167  0.1267 -0.0183
13503TIP3    H162000   5.276   0.842   3.263 -0.0106 -0.3162  0.1485
13503TIP3    H262001   5.244   0.854   3.410  0.1640 -0.6964  0.2197
13504TIP3   OH262002   5.032   1.760   5.666  0.6348 -0.8119 -0.1473
13504TIP3    H162003   4.947   1.717   5.676  0.3277 -0.0228  0.7294
13504TIP3    H262004   5.012   1.846   5.630  1.0271 -0.4812  0.4077
13505TIP3   OH262005   4.117   1.862  14.641 -0.4117 -0.7341  0.3438
13505TIP3    H162006   4.118   1.948  14.599  2.1358 -0.9044 -0.0549
13505TIP3    H262007   4.150   1.802  14.575  0.3048 -1.5818  1.4287
13506TIP3   OH262008   2.637   5.940   4.176  0.5481  1.0813  0.3046
13506TIP3    H162009   2.655   6.019   4.126 -0.4363  1.0789 -0.0904
13506TIP3    H262010   2.541   5.938   4.184  0.5525 -0.0516  0.3262
13507TIP3   OH262011   1.806   0.430   0.282 -0.7532 -1.0250  0.2618
13507TIP3    H162012   1.803   0.516   0.322  0.9947 -0.9297  0.2467
13507TIP3    H262013   1.749   0.376   0.336 -0.2627 -0.3393  1.4847
13508TIP3   OH262014   5.593   0.416  11.530 -0.1002 -0.1521 -0.1931
13508TIP3    H162015   5.610   0.474  11.456  0.5560 -1.1860 -0.8862
13508TIP3    H262016   5.617   0.329  11.498  0.3036 -0.6129  1.2652
13509TIP3   OH262017   4.513   4.745  14.826  0.2649  0.8748  0.3759
13509TIP3    H162018   4.548   4.810  14.764  2.5415 -0.1628  0.4654
13509TIP3    H262019   4.529   4.784  14.912  0.3551  0.8049  0.3911
13510TIP3   OH262020   4.542   0.217  11.611  0.3312 -0.3764 -0.0184
13510TIP3    H162021   4.508   0.234  11.699 -0.8129  0.7312 -0.6346
13510TIP3    H262022   4.637   0.216  11.621  0.1887 -1.6885  1.4555
13511TIP3   OH262023   4.097   4.662  17.102  0.0776 -0.5719  0.2315
13511TIP3    H162024   4.144   4.588  17.141 -0.1006  1.1219  4.1696
13511TIP3    H262025   4.138   4.739  17.141 -0.8625  1.3804 -2.3805
13512TIP3   OH262026   0.155   4.774   0.812 -0.4913  0.0479 -0.6201
13512TIP3    H162027   0.067   4.749   0.785  0.3837 -1.3591 -2.3641
13512TIP3    H262028   0.187   4.831   0.742  0.5628 -0.7995 -0.8527
13513TIP3   OH262029   5.744   3.221   5.303  0.5566  0.0711  0.7251
13513TIP3    H162030   5.771   3.246   5.215  0.2133  2.4928  1.2395
13513TIP3    H262031   5.758   3.127   5.307  2.8863  0.2543 -1.1105
13514TIP3   OH262032   4.782   4.559   1.219  0.4570  0.9025 -0.3534
13514TIP3    H162033   4.774   4.480   1.166 -0.1341  0.5223  0.2875
13514TIP3    H262034   4.824   4.530   1.300  0.4038  1.2774 -0.1886
13515TIP3   OH262035   5.782   5.655  12.973 -0.2698 -0.4822  0.5890
13515TIP3    H162036   5.835   5.689  13.045  1.0901 -1.0949 -0.0805
13515TIP3    H262037   5.748   5.733  12.929  0.8053 -0.0386  0.5180
13516TIP3   OH262038   0.591   5.955  12.255 -0.1351 -0.0290 -0.6259
13516TIP3    H162039   0.647   5.921  12.184 -1.1833  0.0185 -1.4955
13516TIP3    H262040   0.554   5.877  12.295 -0.0490 -0.0311 -0.5501
13517TIP3   OH262041   2.536   5.730  15.622  0.2297  0.6086  0.3125
13517TIP3    H162042   2.623   5.691  15.617 -0.4840 -0.9483 -0.7243
13517TIP3    H262043   2.512   5.724  15.715  0.2480 -1.2913  0.2389
13518TIP3   OH262044   5.818   4.588   3.033 -0.4208 -0.0492  0.0982
13518TIP3    H162045   5.877   4.517   3.060  1.6259  0.0100 -3.6124
13518TIP3    H262046   5.866   4.668   3.055 -1.5874  0.2132  1.9002
13519TIP3   OH262047   3.840   6.132   2.584 -0.2337 -0.1504  0.3022
13519TIP3    H162048   3.898   6.167   2.652  0.4904  0.4849 -0.6101
13519TIP3    H262049   3.791   6.062   2.627 -0.9222  1.2493  1.8932
13520TIP3   OH262050   2.156   4.330  15.473  0.1955 -0.0097  0.1306
13520TIP3    H162051   2.122   4.245  15.500  0.7351 -0.1326  0.4400
13520TIP3    H262052   2.084   4.370  15.425  0.3907 -1.2213 -1.2609
13521TIP3   OH262053   3.356   6.044  14.608 -0.2237  0.4052 -0.4780
13521TIP3    H162054   3.288   5.978  14.616  0.6432 -0.5479 -0.7291
13521TIP3    H262055   3.438   5.995  14.615  0.4584  1.6730  1.0872
13522TIP3   OH262056   4.637   3.702  15.955  0.2238 -0.1699  0.1402
13522TIP3    H162057   4.716   3.729  15.908  0.7359 -1.4281  0.2528
13522TIP3    H262058   4.579   3.666  15.888 -0.5799  1.3582 -0.0524
13523TIP3   OH262059   0.360   2.637   5.252  0.3157 -0.2609  0.1098
13523TIP3    H162060   0.386   2.662   5.163  1.2902 -2.2774 -0.2196
13523TIP3    H262061   0.297   2.704   5.278  0.9395  1.0699 -1.6170
13524TIP3   OH262062   3.292   5.377  15.399 -0.3076  0.4010  0.3117
13524TIP3    H162063   3.257   5.467  15.403  2.0498  1.3742  0.6430
13524TIP3    H262064   3.251   5.339  15.321  0.0605  2.4602 -0.9744
13525TIP3   OH262065   6.355   2.210  12.941 -0.2465 -0.5376  0.0851
13525TIP3    H162066   6.397   2.217  12.856  1.2821  1.6165  0.9201
13525TIP3    H262067   6.273   2.259  12.931 -0.6639 -1.3181 -0.4372
13526TIP3   OH262068   2.356   0.502   0.254 -0.6350  0.0247 -0.0007
13526TIP3    H162069   2.360   0.509   0.159 -0.2213 -0.7252 -0.0437
13526TIP3    H262070   2.344   0.409   0.271 -1.3222  0.2187  0.6698
13527TIP3   OH262071   4.912   0.445   1.320 -0.0603  0.0818  0.2209
13527TIP3    H162072   4.860   0.515   1.357 -0.7921 -0.3816  0.0950
13527TIP3    H262073   4.964   0.412   1.393  0.5398  0.9660  0.2030
13528TIP3   OH262074   6.265   5.844   1.403  0.6841 -0.3915  0.1772
13528TIP3    H162075   6.316   5.785   1.459 -0.4824 -0.6848  0.9812
13528TIP3    H262076   6.283   5.815   1.314  2.9650  0.3881  0.3320
13529TIP3   OH262077   1.849   4.197  11.554  0.1956  0.0974  0.2457
13529TIP3    H162078   1.849   4.242  11.470  0.3091 -2.1873 -1.0565
13529TIP3    H262079   1.886   4.111  11.536  0.5459 -0.3586  2.7228
13530TIP3   OH262080   5.425   6.100   5.383  0.5166  0.0840  0.3092
13530TIP3    H162081   5.452   6.079   5.472  1.5460 -0.4712 -0.1101
13530TIP3    H262082   5.485   6.168   5.354 -0.9262  1.5400  0.6187
13531TIP3   OH262083   4.360   1.238   5.883 -0.0737  0.3444 -0.0677
13531TIP3    H162084   4.264   1.236   5.875 -0.4759  2.4417  2.6239
13531TIP3    H262085   4.380   1.165   5.941 -0.1823  0.4819  0.1468
13532TIP3   OH262086   6.602   1.769   6.565 -0.0365 -0.3920 -0.0060
13532TIP3    H162087   6.586   1.695   6.506  0.0354 -1.9996  1.8841
13532TIP3    H262088   6.674   1.817   6.525 -0.3826 -1.0779 -1.5112
13533TIP3   OH262089   6.128   4.422  15.928 -0.1728  0.2075 -0.3669
13533TIP3    H162090   6.113   4.340  15.882 -0.2715  0.5090 -0.8815
13533TIP3    H262091   6.076   4.486  15.880 -1.1742  0.3328  0.8166
13534TIP3   OH262092   4.166   5.619   0.867  0.2881 -0.5389  0.4255
13534TIP3    H162093   4.125   5.534   0.847  0.9748 -1.3440  2.1613
13534TIP3    H262094   4.092   5.677   0.885 -0.2301 -0.4748 -1.6686
13535TIP3   OH262095   0.955   4.526   2.163 -1.1765 -0.4285  0.1300
13535TIP3    H162096   0.959   4.622   2.160 -1.1261 -0.3036  2.4783
13535TIP3    H262097   0.863   4.506   2.180 -1.4913 -0.9166 -1.9027
13536TIP3   OH262098   2.689   2.499   2.490 -0.3848 -0.4805 -0.2738
13536TIP3    H162099   2.656   2.519   2.402  0.0488  1.1374 -0.1088
13536TIP3    H262100   2.627   2.542   2.549  1.0048  1.1354  0.0922
13537TIP3   OH262101   4.772   3.550   4.895  0.8367 -0.3623 -0.0480
13537TIP3    H162102   4.775   3.597   4.978  1.8204  0.6383 -0.6190
13537TIP3    H262103   4.847   3.489   4.899  2.2356  1.2014 -1.0178
13538TIP3   OH262104   3.951   0.663  12.053 -0.4480 -0.2766 -0.1944
13538TIP3    H162105   4.029   0.717  12.042  0.3049 -1.5571 -1.5314
13538TIP3    H262106   3.949   0.641  12.146  0.6304  0.0260 -0.0937
13539TIP3   OH262107   4.158   1.925   4.097  0.1096 -0.5499  0.6128
13539TIP3    H162108   4.112   2.009   4.091 -2.4175 -1.9550 -2.4263
13539TIP3    H262109   4.089   1.862   4.117  1.5415 -2.2485  0.4241
13540TIP3   OH262110   4.208   0.350  13.123  0.2760  0.4356  0.3932
13540TIP3    H162111   4.272   0.282  13.102 -1.8910 -1.8084  0.5950
13540TIP3    H262112   4.223   0.368  13.216 -0.0854 -0.9234  0.7424
13541TIP3   OH262113   5.173   4.392  12.709 -0.3690  0.1635  0.2157
13541TIP3    H162114   5.160   4.298  12.716 -0.2209  0.1836  0.8009
13541TIP3    H262115   5.245   4.402  12.646 -1.3922 -0.0456 -1.0305
13542TIP3   OH262116   1.359   1.341  16.626  0.2071 -0.7033  0.1430
13542TIP3    H162117   1.307   1.394  16.686 -0.5980  1.4826 -2.2953
13542TIP3    H262118   1.445   1.381  16.626  0.0257 -0.2976 -0.5911
13543TIP3   OH262119   3.747   4.799   1.644 -0.9476 -0.1519  0.2104
13543TIP3    H162120   3.706   4.849   1.574 -1.2899  2.2180  1.9805
13543TIP3    H262121   3.673   4.755   1.687 -0.7729 -1.3565 -0.6801
13544TIP3   OH262122   3.718   1.534  12.375  0.3744 -0.6648  0.6645
13544TIP3    H162123   3.683   1.484  12.302  1.3804 -1.7545  0.8860
13544TIP3    H262124   3.672   1.618  12.372  0.7393 -0.4947 -1.5096
13545TIP3   OH262125   4.151   6.725   5.841  0.2993 -0.1077  0.5760
13545TIP3    H162126   4.201   6.646   5.857  1.0202 -0.4566 -2.7578
13545TIP3    H262127   4.215   6.796   5.848  0.5618 -0.2370 -0.4108
13546TIP3   OH262128   3.383   1.582   2.897  0.1962 -0.0250 -0.3424
13546TIP3    H162129   3.450   1.593   2.965  1.1300  0.3412 -1.2812
13546TIP3    H262130   3.391   1.490   2.871 -2.2021 -1.0595  2.0282
13547TIP3   OH262131   2.942   6.056  10.537 -0.5964 -0.4211  0.0912
13547TIP3    H162132   2.969   6.043  10.446  2.9043  0.0694  0.9274
13547TIP3    H262133   2.895   6.139  10.537  0.4598  0.2078 -1.1220
13548TIP3   OH262134   1.429   5.855  11.386  0.1089 -0.6475  0.0464
13548TIP3    H162135   1.385   5.774  11.412  1.5504 -0.8971  1.9860
13548TIP3    H262136   1.419   5.859  11.291 -1.8892 -1.9333  0.1531
13549TIP3   OH262137   3.266   1.172   4.073  0.5938 -0.0217  0.4894
13549TIP3    H162138   3.217   1.240   4.027  1.1657 -0.2869 -0.5376
13549TIP3    H262139   3.349   1.214   4.096  1.0405 -0.4382 -0.3520
13550TIP3   OH262140   4.276   4.982  14.587 -0.1512 -0.3439  0.3256
13550TIP3    H162141   4.370   4.970  14.598 -0.2671 -1.3035  0.3734
13550TIP3    H262142   4.250   5.036  14.662  0.3052 -0.3288  0.4786
13551TIP3   OH262143   5.658   2.108  16.070 -0.2801 -0.1981 -0.5436
13551TIP3    H162144   5.630   2.079  15.983 -2.3630  2.4494 -0.8997
13551TIP3    H262145   5.690   2.197  16.056  0.2729 -0.0637  1.2853
13552TIP3   OH262146   0.505   1.318   1.747  0.0666  0.0450 -0.0583
13552TIP3    H162147   0.415   1.348   1.760 -0.1750 -0.1260 -1.1751
13552TIP3    H262148   0.515   1.315   1.652  1.1260 -0.3361  0.0523
13553TIP3   OH262149   5.577   2.594  12.259  0.1199 -0.5168  0.3021
13553TIP3    H162150   5.555   2.503  12.241  1.4982 -0.7894 -0.1206
13553TIP3    H262151   5.497   2.631  12.297 -0.5303 -1.8295  0.2702
13554TIP3   OH262152   6.283   4.965  14.589  0.1137 -0.4302 -0.3866
13554TIP3    H162153   6.215   4.900  14.607 -0.7690 -0.2553 -2.7554
13554TIP3    H262154   6.242   5.049  14.611  0.3563 -0.4589  0.2141
13555TIP3   OH262155   1.895   4.373  15.670  0.2384 -0.2166  0.4168
13555TIP3    H162156   1.949   4.361  15.747  0.2494  1.2280  0.6519
13555TIP3    H262157   1.853   4.288  15.657  0.2201 -0.4738  2.0182
13556TIP3   OH262158   3.496   0.437   6.509  0.5094  0.1831 -0.6796
13556TIP3    H162159   3.425   0.374   6.519  0.1488  0.8404  1.2248
13556TIP3    H262160   3.558   0.415   6.578  0.3410  1.9130  0.0867
13557TIP3   OH262161   4.297   1.276   0.093 -0.2427  0.4914 -0.1169
13557TIP3    H162162   4.384   1.238   0.106 -0.2380 -0.3621 -2.2703
13557TIP3    H262163   4.289   1.342   0.162  2.0727  0.5468  0.1648
13558TIP3   OH262164   6.413   3.870  15.256 -0.6251 -0.1278 -0.2149
13558TIP3    H162165   6.418   3.962  15.284  1.2939 -0.0788 -0.6036
13558TIP3    H262166   6.495   3.855  15.209 -1.0577 -1.9595 -0.4323
13559TIP3   OH262167   5.674   5.866  13.459 -0.3118 -0.3953 -0.6966
13559TIP3    H162168   5.718   5.813  13.393 -1.1946 -0.3999 -1.3094
13559TIP3    H262169   5.670   5.809  13.536  3.6486  0.7362  0.5569
13560TIP3   OH262170   1.065   0.359   4.572  0.2632  1.0372  0.9398
13560TIP3    H162171   1.099   0.444   4.601 -0.8437  1.6461  0.5125
13560TIP3    H262172   1.071   0.363   4.476 -2.4129  1.8225  0.7244
13561TIP3   OH262173   1.361   0.182   5.141 -0.4373 -0.0332  0.4014
13561TIP3    H162174   1.317   0.267   5.142 -0.4039 -0.0157  0.3855
13561TIP3    H262175   1.334   0.142   5.058 -0.6690 -0.1520  0.5346
13562TIP3   OH262176   2.462   3.268   2.324  0.2507  0.0089 -0.3855
13562TIP3    H162177   2.495   3.352   2.354  1.1674 -0.8930  1.3303
13562TIP3    H262178   2.382   3.254   2.374  0.8038 -0.6884  0.3477
13563TIP3   OH262179   0.233   5.092   2.044  0.0236 -0.6863  0.5899
13563TIP3    H162180   0.270   5.180   2.054 -0.0340 -0.5947  0.0042
13563TIP3    H262181   0.193   5.092   1.957 -1.9851 -0.5441  1.4551
13564TIP3   OH262182   5.572   6.252   4.507 -0.4210  0.1909  0.8364
13564TIP3    H162183   5.534   6.193   4.441 -2.5185 -0.4277  2.4837
13564TIP3    H262184   5.554   6.209   4.591 -0.0935  2.1496  1.9746
13565TIP3   OH262185   1.043   6.254  11.442  0.0245  0.6346 -0.2806
13565TIP3    H162186   1.031   6.225  11.533  0.0653  0.0435 -0.4557
13565TIP3    H262187   1.093   6.183  11.402  1.8227  1.8093 -0.2424
13566TIP3   OH262188   2.165   5.246   0.027  0.2994  0.6509  0.6295
13566TIP3    H162189   2.172   5.333  -0.011 -0.7119 -0.0288 -1.2388
13566TIP3    H262190   2.243   5.237   0.081  1.2399  2.1185 -0.4185
13567TIP3   OH262191   0.850   5.885   5.486 -0.0978  0.2682  0.2676
13567TIP3    H162192   0.851   5.883   5.391  0.2835  0.4864  0.2619
13567TIP3    H262193   0.769   5.930   5.509 -1.4949 -2.0255  0.1100
13568TIP3   OH262194   3.654   0.466  16.346  1.1528  0.1257 -0.5251
13568TIP3    H162195   3.697   0.551  16.338  0.5245  0.3112 -2.2639
13568TIP3    H262196   3.723   0.402  16.331  1.3387  0.3596 -0.6570
13569TIP3   OH262197   5.868   5.851   2.748 -0.2880 -0.3828  0.2300
13569TIP3    H162198   5.783   5.811   2.766 -0.1103  0.5297  3.9249
13569TIP3    H262199   5.929   5.805   2.806  1.7001 -0.6606 -1.9556
13570TIP3   OH262200   0.632   4.668   5.053 -0.2700 -0.4592  0.4240
13570TIP3    H162201   0.629   4.610   4.977 -2.0813  1.1203 -0.8063
13570TIP3    H262202   0.724   4.694   5.060 -0.4452  1.8371 -3.2970
13571TIP3   OH262203   5.824   3.486  14.525 -0.5697  0.0157 -0.2384
13571TIP3    H162204   5.880   3.481  14.603  0.6500  0.3065 -1.0648
13571TIP3    H262205   5.757   3.419  14.540 -0.8387  0.6139  1.4124
13572TIP3   OH262206   4.927   2.100   5.339 -0.3663 -0.2270 -0.1244
13572TIP3    H162207   4.873   2.165   5.383 -0.6653 -0.5465 -0.0211
13572TIP3    H262208   4.958   2.145   5.260  0.5996  0.5297  0.6527
13573TIP3   OH262209   0.821   6.011  11.456  0.3794  0.6508 -0.4645
13573TIP3    H162210   0.803   5.928  11.500 -2.8893  2.0926  1.2854
13573TIP3    H262211   0.850   5.986  11.369 -0.4001 -2.3148  0.0122
13574TIP3   OH262212   3.835   0.251   2.561  0.0504 -0.0689 -0.3597
13574TIP3    H162213   3.783   0.209   2.629  0.6367 -1.4478 -0.7379
13574TIP3    H262214   3.878   0.325   2.606  1.3245 -1.6089  1.0907
13575TIP3   OH262215   0.356   2.435  12.623  0.0573 -0.3479 -1.3053
13575TIP3    H162216   0.325   2.450  12.713 -0.1222  0.0360 -1.4301
13575TIP3    H262217   0.421   2.365  12.632 -1.0262 -1.3780 -1.0643
13576TIP3   OH262218   4.266   5.182  14.773 -0.1333 -0.2669  0.2665
13576TIP3    H162219   4.313   5.245  14.719  0.0222 -1.3181 -0.8796
13576TIP3    H262220   4.175   5.188  14.745 -0.1810 -0.2948  0.4117
13577TIP3   OH262221   3.984   2.317  11.318  0.5207 -0.5737  0.1108
13577TIP3    H162222   4.059   2.285  11.270  0.2149 -0.9346 -0.1297
13577TIP3    H262223   4.018   2.341  11.404  1.3660  1.4276 -0.7088
13578TIP3   OH262224   6.557   4.753  14.499  0.4842  0.6602  0.1468
13578TIP3    H162225   6.534   4.843  14.478 -0.1436  0.8078  1.3439
13578TIP3    H262226   6.535   4.703  14.420  1.1048  1.5842 -0.6245
13579TIP3   OH262227   1.989   6.078   3.394  0.3492 -0.2451 -0.1308
13579TIP3    H162228   2.012   6.030   3.315 -0.7353  0.3543 -0.8410
13579TIP3    H262229   2.068   6.126   3.418  0.6140 -0.2444 -0.9869
13580TIP3   OH262230   6.422   1.947   4.613  0.3942  1.0838 -0.4701
13580TIP3    H162231   6.435   1.890   4.689 -1.2880  1.2570 -0.0117
13580TIP3    H262232   6.498   1.930   4.558  0.7501 -0.4055  0.4015
13581TIP3   OH262233   6.252   2.436  16.661  0.3140 -0.0196  0.3581
13581TIP3    H162234   6.310   2.360  16.656  2.4729  1.6003 -0.9910
13581TIP3    H262235   6.193   2.426  16.585  0.9129 -0.0910 -0.1031
13582TIP3   OH262236   3.715   5.549  10.306 -0.9300  0.1809 -0.9843
13582TIP3    H162237   3.670   5.470  10.277 -1.0568  0.2416 -0.9565
13582TIP3    H262238   3.656   5.587  10.371 -0.8235  0.2457 -0.9251
13583TIP3   OH262239   0.663   1.915   6.017 -0.2362 -0.2071 -0.4832
13583TIP3    H162240   0.636   1.915   5.925 -1.3607  1.0068 -0.1913
13583TIP3    H262241   0.745   1.866   6.018  0.9956  1.5943 -2.5090
13584TIP3   OH262242   6.115   1.689   0.595 -0.3493 -0.6260  0.6876
13584TIP3    H162243   6.199   1.688   0.640  0.5216  0.6952 -0.7892
13584TIP3    H262244   6.107   1.602   0.556 -0.5970 -1.3991  2.3624
13585TIP3   OH262245   0.180   0.686  11.179  0.0059 -0.3466  0.1119
13585TIP3    H162246   0.190   0.607  11.232  1.7335  0.5195  1.1613
13585TIP3    H262247   0.120   0.741  11.229  1.3922  0.3387  1.1218
13586TIP3   OH262248   6.631   3.515   5.643  0.0449  0.3534  0.5059
13586TIP3    H162249   6.580   3.560   5.576 -2.7130 -0.4785  1.8816
13586TIP3    H262250   6.644   3.427   5.608  0.1407  0.4345  0.3355
13587TIP3   OH262251   3.839   0.960   0.558 -0.0186  0.3157  0.6064
13587TIP3    H162252   3.857   0.870   0.531  0.1545  0.8592 -1.3047
13587TIP3    H262253   3.920   0.988   0.601 -1.0297 -1.2421  3.8072
13588TIP3   OH262254   3.236   5.063   4.805  0.1418 -0.1833 -0.0992
13588TIP3    H162255   3.306   5.063   4.739  0.8321 -0.2885  0.6230
13588TIP3    H262256   3.162   5.105   4.761  0.7018  0.0714 -0.8249
13589TIP3   OH262257   6.811   0.459  13.798 -0.2069  0.4312 -0.0106
13589TIP3    H162258   6.740   0.409  13.838 -1.4137  0.6627 -1.7432
13589TIP3    H262259   6.853   0.397  13.738  0.6600  0.4830  0.5287
13590TIP3   OH262260   5.705   6.726   5.759  0.1808  0.1671  0.6461
13590TIP3    H162261   5.713   6.631   5.761  1.1260  0.2482  1.3829
13590TIP3    H262262   5.773   6.755   5.699  0.6433  0.4380  1.2907
13591TIP3   OH262263   0.921   0.497   2.316 -0.1947  0.4799  0.1960
13591TIP3    H162264   0.928   0.401   2.313  0.5330  0.5051  0.9128
13591TIP3    H262265   0.985   0.527   2.252 -0.0895  0.5061  0.3153
13592TIP3   OH262266   4.414   5.893  16.007  0.2922 -0.0978 -0.8648
13592TIP3    H162267   4.484   5.930  16.061  0.3013  0.5222 -1.2984
13592TIP3    H262268   4.418   5.799  16.024 -1.2464  0.2323  2.0780
13593TIP3   OH262269   1.981   0.178  12.554  0.2898 -0.1741  0.1329
13593TIP3    H162270   2.017   0.218  12.475  0.2293 -0.4665 -0.0404
13593TIP3    H262271   1.978   0.250  12.617  0.1309  0.1093 -0.1968
13594TIP3   OH262272   2.147   5.457  10.659 -0.4635 -0.6602 -0.3709
13594TIP3    H162273   2.094   5.415  10.592 -0.4381 -0.0096 -0.8114
13594TIP3    H262274   2.232   5.472  10.617  0.0283 -1.5382  0.2675
13595TIP3   OH262275   2.458   0.133  13.240  0.0545 -0.0405  0.3305
13595TIP3    H162276   2.383   0.152  13.297 -2.1556  0.3638 -2.4473
13595TIP3    H262277   2.433   0.052  13.195  1.0573  0.3589 -0.9971
13596TIP3   OH262278   3.211   4.972   1.720 -0.3244 -0.3201  0.8208
13596TIP3    H162279   3.121   4.959   1.749 -0.6003 -0.2959  0.0022
13596TIP3    H262280   3.260   4.991   1.800 -1.3463  1.3106  1.0884
13597TIP3   OH262281   1.638   2.061  11.561 -0.5739 -0.6174 -0.1131
13597TIP3    H162282   1.546   2.078  11.578 -0.5022  1.9190 -1.7395
13597TIP3    H262283   1.685   2.129  11.609  0.0306  1.5982 -3.5381
13598TIP3   OH262284   1.374   2.777   2.819 -0.0479 -0.1485 -0.1794
13598TIP3    H162285   1.467   2.759   2.815 -0.4364 -2.1781 -1.6793
13598TIP3    H262286   1.353   2.819   2.736 -0.7473 -1.5511 -0.7643
13599TIP3   OH262287   2.885   2.107  11.429 -0.2849 -0.2103 -0.3819
13599TIP3    H162288   2.942   2.087  11.503 -0.7359 -1.8279 -0.4192
13599TIP3    H262289   2.920   2.053  11.357 -0.9765 -0.0969 -0.8139
13600TIP3   OH262290   2.387   3.046   5.253 -0.0941  0.4032 -0.0567
13600TIP3    H162291   2.298   3.083   5.254 -0.2466  0.0472  0.6780
13600TIP3    H262292   2.410   3.037   5.346 -0.0091 -1.1759 -0.1997
13601TIP3   OH262293   3.048   3.065   3.578  0.0671  0.6090 -0.5595
13601TIP3    H162294   2.953   3.068   3.573 -0.1990  1.2178  2.8691
13601TIP3    H262295   3.067   3.032   3.666  3.0337  0.6322 -1.0915
13602TIP3   OH262296   5.752   6.460   3.746  0.6158 -0.2354  0.0337
13602TIP3    H162297   5.762   6.377   3.699  1.6146 -0.7807  1.1464
13602TIP3    H262298   5.742   6.434   3.838  0.3492  0.8681  0.3291
13603TIP3   OH262299   4.706   3.986  11.400  0.3600  0.1635  0.1938
13603TIP3    H162300   4.724   3.893  11.415 -0.7653  0.0717  1.1398
13603TIP3    H262301   4.621   4.000  11.442 -0.4451  1.1685 -1.6675
13604TIP3   OH262302   6.459   5.515  14.417 -0.3335 -0.6151 -0.6148
13604TIP3    H162303   6.428   5.564  14.341  1.2288 -0.5705 -1.2730
13604TIP3    H262304   6.394   5.445  14.428 -1.7998  0.7101 -0.5551
13605TIP3   OH262305   4.079   0.771   1.527  0.6757 -0.2573 -0.4000
13605TIP3    H162306   4.042   0.683   1.531 -0.6944  0.2969 -0.4247
13605TIP3    H262307   4.017   0.825   1.575  2.2759  0.4743  0.9445
13606TIP3   OH262308   1.544   4.441  12.218 -0.0423  0.1255  0.2799
13606TIP3    H162309   1.603   4.512  12.241 -0.9741  0.9969  0.0544
13606TIP3    H262310   1.520   4.401  12.302  1.3891 -0.6982  0.3260
13607TIP3   OH262311   0.312   4.090  15.831  0.4258  0.6516  0.7505
13607TIP3    H162312   0.246   4.082  15.899  1.6966  2.0673  2.2251
13607TIP3    H262313   0.379   4.025  15.854  0.3415  0.3446  0.1731
13608TIP3   OH262314   1.531   4.160   0.373  0.6643 -0.5394  0.5621
13608TIP3    H162315   1.566   4.245   0.347  1.9083 -1.1469  0.1235
13608TIP3    H262316   1.442   4.178   0.403  0.7422  0.8379  0.0404
13609TIP3   OH262317   2.914   3.454  13.593  0.0492 -0.0309  0.7666
13609TIP3    H162318   2.922   3.487  13.682 -1.0043  1.1040  0.4783
13609TIP3    H262319   2.977   3.505  13.542  0.7891 -0.8116  0.8704
13610TIP3   OH262320   3.141   1.208   6.381 -0.0943 -0.2191  0.0615
13610TIP3    H162321   3.094   1.268   6.440  0.9999 -1.0976  1.9212
13610TIP3    H262322   3.079   1.137   6.365 -0.1561 -0.3375  0.7891
13611TIP3   OH262323   1.704   3.938  14.815  0.8139  0.4999 -0.0394
13611TIP3    H162324   1.681   3.881  14.888  1.6026 -0.1497 -0.2840
13611TIP3    H262325   1.714   4.025  14.854  0.1365  0.3774  0.4276
13612TIP3   OH262326   4.270   1.051  11.517 -0.7124  0.2256  0.4538
13612TIP3    H162327   4.186   1.083  11.484  0.1374 -0.0784 -2.2734
13612TIP3    H262328   4.310   1.127  11.559 -0.4042  1.8192 -2.4397
13613TIP3   OH262329   3.203   0.377  16.854  0.5177 -0.4751 -0.3009
13613TIP3    H162330   3.248   0.357  16.936  1.5175  1.6839 -0.2444
13613TIP3    H262331   3.273   0.377  16.788  0.1104 -0.0150 -0.7413
13614TIP3   OH262332   2.972   2.314  11.808  0.2976 -0.2258 -0.1551
13614TIP3    H162333   2.953   2.357  11.725 -0.5650 -0.3752 -0.0450
13614TIP3    H262334   3.049   2.359  11.842  1.3198 -0.8664 -1.5343
13615TIP3   OH262335   6.360   1.416  16.048 -0.2266  0.4482  0.2507
13615TIP3    H162336   6.273   1.406  16.088 -0.9107  1.9786 -0.7732
13615TIP3    H262337   6.388   1.504  16.073  0.8016  0.1848  0.0873
13616TIP3   OH262338   6.232   6.182  12.946  0.4725  0.7845 -0.0763
13616TIP3    H162339   6.171   6.145  12.882 -1.9740  0.6911  2.1358
13616TIP3    H262340   6.209   6.275  12.950  1.0191  0.9114  0.2250
13617TIP3   OH262341   4.765   2.367   0.350  0.4916 -0.2282 -0.2086
13617TIP3    H162342   4.685   2.357   0.402  0.9784 -0.2394  0.5483
13617TIP3    H262343   4.823   2.419   0.404  1.5107 -1.3539 -0.1643
13618TIP3   OH262344   2.311   2.420   3.009 -0.6198  0.3187 -0.4197
13618TIP3    H162345   2.381   2.441   2.947  0.1324  0.5754  0.4919
13618TIP3    H262346   2.348   2.351   3.064 -2.1595 -1.7160 -1.7761
13619TIP3   OH262347   3.884   5.050  15.384  0.2935  0.3580  0.1603
13619TIP3    H162348   3.854   5.103  15.310  0.2818  1.9633  1.2722
13619TIP3    H262349   3.975   5.029  15.364 -0.2836 -0.9823 -1.2508
13620TIP3   OH262350   3.397   1.131   3.013 -0.1712 -0.1054 -0.1984
13620TIP3    H162351   3.491   1.119   3.021 -0.1884 -0.0634  0.0823
13620TIP3    H262352   3.361   1.042   3.020 -0.0564 -0.3290 -1.9144
13621TIP3   OH262353   6.572   4.289   3.243 -0.5154  0.0533 -0.4200
13621TIP3    H162354   6.560   4.282   3.338 -0.6144  0.3195 -0.4120
13621TIP3    H262355   6.483   4.291   3.208 -0.4770 -0.5060 -0.5538
13622TIP3   OH262356   6.785   6.457  14.508 -0.1057 -0.1284  0.1038
13622TIP3    H162357   6.741   6.488  14.429  0.2294 -0.3833 -0.1880
13622TIP3    H262358   6.757   6.517  14.577  0.6173  0.8733 -0.4685
13623TIP3   OH262359   2.897   1.069   2.381  0.3710 -0.3287 -0.2285
13623TIP3    H162360   2.853   0.986   2.365  1.5727 -1.2476  1.0111
13623TIP3    H262361   2.970   1.069   2.320 -0.5636  0.6168 -1.3965
13624TIP3   OH262362   1.609   4.526   4.196  0.1185 -0.1484  0.0192
13624TIP3    H162363   1.623   4.507   4.103 -0.6962  0.9825 -0.3590
13624TIP3    H262364   1.523   4.568   4.199 -0.0949 -0.6368  1.3601
13625TIP3   OH262365   1.371   3.056  11.914  0.3255  0.5386 -0.3686
13625TIP3    H162366   1.390   3.148  11.931  3.1430 -0.0497  0.1371
13625TIP3    H262367   1.455   3.011  11.926 -0.9786 -2.1352 -0.4541
13626TIP3   OH262368   4.383   2.372   0.614  0.2890 -0.0869 -0.5586
13626TIP3    H162369   4.341   2.315   0.679  0.5195 -0.0732 -0.3960
13626TIP3    H262370   4.362   2.461   0.643  2.1326 -0.0199  0.6953
13627TIP3   OH262371   6.385   5.942  12.783  0.1392  0.4152  0.7586
13627TIP3    H162372   6.445   5.960  12.711 -1.1156  0.2415 -0.3525
13627TIP3    H262373   6.415   5.858  12.819 -0.9925 -1.0189 -1.4743
13628TIP3   OH262374   5.730   0.317  11.186 -0.1561  0.3648  0.1479
13628TIP3    H162375   5.788   0.381  11.145 -1.5741  2.2241  0.8652
13628TIP3    H262376   5.787   0.265  11.242  1.3443 -0.3090 -1.8715
13629TIP3   OH262377   2.793   5.257  13.374 -0.1271  0.0569  0.1043
13629TIP3    H162378   2.706   5.228  13.401  0.4527 -4.7780 -2.0627
13629TIP3    H262379   2.780   5.296  13.288 -0.1876 -2.0005 -0.8947
13630TIP3   OH262380   1.938   6.168   0.193  0.1168 -0.0241  0.3053
13630TIP3    H162381   1.881   6.178   0.117 -0.3973  2.4541  0.9232
13630TIP3    H262382   2.026   6.176   0.158 -0.0302 -0.8003 -0.2633
13631TIP3   OH262383   5.147   6.652  15.109 -0.2245 -0.0113 -0.2594
13631TIP3    H162384   5.120   6.744  15.109 -0.8455 -0.1730  0.9215
13631TIP3    H262385   5.239   6.654  15.135 -0.4103  0.2517  0.4084
13632TIP3   OH262386   3.512   4.906   5.716  0.1024 -0.5362 -0.1849
13632TIP3    H162387   3.457   4.948   5.650 -1.1846 -1.4761  0.2482
13632TIP3    H262388   3.549   4.979   5.767 -1.4534  0.1154  0.0678
13633TIP3   OH262389   4.854   6.611   1.148 -0.7429  0.4567 -0.5520
13633TIP3    H162390   4.866   6.672   1.221 -1.4668 -0.4941  0.3871
13633TIP3    H262391   4.759   6.606   1.138 -0.6767 -0.3153 -0.7909
13634TIP3   OH262392   0.017   6.456  12.997 -0.7231  0.0174 -0.4628
13634TIP3    H162393   0.074   6.532  13.013 -1.1658  1.0102 -3.0205
13634TIP3    H262394   0.003   6.418  13.083 -0.7182  3.0278  1.0165
13635TIP3   OH262395   3.520   5.508  14.237 -0.2356  0.2778  0.4632
13635TIP3    H162396   3.472   5.591  14.245  0.3796  0.6933  0.0042
13635TIP3    H262397   3.504   5.479  14.147  2.7533  2.0048 -0.8030
13636TIP3   OH262398   1.488   4.099   1.819 -0.1278 -0.0892  0.0582
13636TIP3    H162399   1.451   4.046   1.889 -0.8856 -0.3928 -0.5561
13636TIP3    H262400   1.431   4.082   1.744  0.2866  0.7337 -0.4508
13637TIP3   OH262401   5.541   2.685   3.120 -0.1709 -0.0733  0.3506
13637TIP3    H162402   5.480   2.754   3.093 -0.1864 -0.2351 -0.0322
13637TIP3    H262403   5.628   2.722   3.106 -0.1692 -0.5107 -0.8685
13638TIP3   OH262404   5.586   0.906   5.483 -0.3368 -0.6651 -0.3805
13638TIP3    H162405   5.526   0.856   5.428 -0.7645 -0.3736 -0.1831
13638TIP3    H262406   5.555   0.892   5.572 -1.1207  0.7870 -0.3922
13639TIP3   OH262407   5.603   3.997   6.644  0.0137  0.1826  0.2163
13639TIP3    H162408   5.557   3.967   6.722  0.6736 -1.3726  0.0409
13639TIP3    H262409   5.694   3.970   6.658  0.0860 -0.4076 -1.2135
13640TIP3   OH262410   2.542   6.687  15.486  0.2839 -0.4665 -0.7616
13640TIP3    H162411   2.544   6.592  15.478  0.8512 -0.9347  2.9928
13640TIP3    H262412   2.621   6.717  15.441 -0.3065 -1.6239 -2.6678
13641TIP3   OH262413   1.448   0.060  16.091  0.2315  0.1018 -0.2441
13641TIP3    H162414   1.513   0.011  16.040 -1.6977 -2.7503 -0.2167
13641TIP3    H262415   1.366   0.047  16.043 -1.3613 -1.2549  2.5767
13642TIP3   OH262416   2.801   2.768   0.055 -0.1438  0.5596  0.0526
13642TIP3    H162417   2.815   2.676   0.033 -0.3349  0.8161 -1.2477
13642TIP3    H262418   2.873   2.790   0.114 -0.4159 -0.5573  0.8253
13643TIP3   OH262419   5.574   1.536   1.360 -0.7891  0.7628 -0.2533
13643TIP3    H162420   5.516   1.579   1.297 -2.1246 -1.1688 -0.4359
13643TIP3    H262421   5.523   1.535   1.442 -1.6030 -1.9854 -0.7017
13644TIP3   OH262422   3.461   0.690   3.173 -0.5455  0.2357 -0.7254
13644TIP3    H162423   3.473   0.598   3.194  1.6908  0.5142 -0.6131
13644TIP3    H262424   3.366   0.701   3.168 -0.8712 -1.9152 -0.1261
13645TIP3   OH262425   4.357   6.273  15.022  0.4005  0.6409 -0.9260
13645TIP3    H162426   4.410   6.353  15.012  0.0475  1.2129  1.3305
13645TIP3    H262427   4.272   6.304  15.053 -0.5548 -0.4656 -2.2971
13646TIP3   OH262428   0.723   5.391  14.222  0.0426 -0.6033 -0.0429
13646TIP3    H162429   0.644   5.432  14.256  2.0700  1.7146  2.3244
13646TIP3    H262430   0.704   5.373  14.130 -3.4320 -0.9182  0.6210
13647TIP3   OH262431   1.938   0.273  14.245  0.4861  0.1028  0.3304
13647TIP3    H162432   1.972   0.318  14.168 -0.9451 -1.0864 -1.0650
13647TIP3    H262433   1.849   0.305  14.255  1.0373  1.2485  2.3787
13648TIP3   OH262434   4.960   5.143  12.942  0.3025  0.2989 -0.1595
13648TIP3    H162435   4.920   5.057  12.956 -0.4792  0.6620 -0.0888
13648TIP3    H262436   5.052   5.125  12.927  0.0292 -0.6012 -0.7926
13649TIP3   OH262437   5.868   3.545  14.238  0.2015  0.2177  0.5060
13649TIP3    H162438   5.913   3.628  14.221  2.6359 -1.0210  0.4634
13649TIP3    H262439   5.881   3.530  14.332 -0.3491 -0.0473  0.5403
13650TIP3   OH262440   1.663   6.592   4.885  0.3127  0.4644  0.2364
13650TIP3    H162441   1.733   6.560   4.829 -1.0259 -1.9096 -0.2173
13650TIP3    H262442   1.622   6.663   4.834 -0.9274 -1.6873 -1.9553
13651TIP3   OH262443   1.593   5.911  15.250  0.2704 -0.3914  0.9869
13651TIP3    H162444   1.635   5.978  15.195  1.0174 -2.1549 -0.7293
13651TIP3    H262445   1.665   5.875  15.303  0.2922 -1.1662  0.4459
13652TIP3   OH262446   3.688   2.519   1.037  0.6097  0.1442 -0.1641
13652TIP3    H162447   3.655   2.431   1.023  1.2165 -0.0572 -0.3573
13652TIP3    H262448   3.782   2.512   1.026  0.6422  0.8670 -0.4455
13653TIP3   OH262449   6.148   2.966  12.657 -0.2867 -0.1050 -0.3010
13653TIP3    H162450   6.139   3.034  12.724  1.9482 -0.0973  0.0597
13653TIP3    H262451   6.169   3.014  12.577 -0.8043 -0.2637 -0.5407
13654TIP3   OH262452   0.513   5.576  13.809  0.0604  0.1610  0.2601
13654TIP3    H162453   0.510   5.664  13.771  0.0224  0.0139 -0.0894
13654TIP3    H262454   0.447   5.527  13.759 -1.1468  0.3698  1.5931
13655TIP3   OH262455   3.572   4.149  12.254 -0.3902  0.1189 -0.1704
13655TIP3    H162456   3.650   4.162  12.200 -0.6260  1.8501 -0.1274
13655TIP3    H262457   3.525   4.077  12.211  1.8607 -1.9241  0.5830
13656TIP3   OH262458   4.087   4.397   2.476  0.2009 -0.5155  0.2853
13656TIP3    H162459   4.076   4.414   2.382  1.3662 -0.0341  0.2252
13656TIP3    H262460   4.156   4.332   2.481 -0.1052 -0.8101  0.8067
13657TIP3   OH262461   3.371   2.163  10.864 -0.5444  0.4872 -0.2665
13657TIP3    H162462   3.447   2.122  10.822  1.0433  0.7372  2.1501
13657TIP3    H262463   3.386   2.257  10.853 -1.4214  0.5393 -1.2047
13658TIP3   OH262464   0.492   1.937   3.739 -0.0186  0.1065 -0.0993
13658TIP3    H162465   0.572   1.983   3.764 -0.9673  2.4686 -1.0943
13658TIP3    H262466   0.458   1.901   3.821  1.4882 -0.0285  0.4932
13659TIP3   OH262467   2.921   0.219   4.263  0.6187 -0.1753 -0.4331
13659TIP3    H162468   2.929   0.167   4.342 -0.8696 -0.2300 -0.2931
13659TIP3    H262469   2.855   0.285   4.284  1.6417  1.0695 -0.9864
13660TIP3   OH262470   5.793   1.065   4.350 -0.4570 -0.6906 -0.0667
13660TIP3    H162471   5.782   1.033   4.439  0.6875 -3.7784 -0.9319
13660TIP3    H262472   5.714   1.037   4.304 -0.0948 -0.9813 -0.5165
13661TIP3   OH262473   4.763   1.985  12.113  0.2243 -0.5427 -0.0206
13661TIP3    H162474   4.709   2.013  12.188  0.0233  1.2747 -0.7901
13661TIP3    H262475   4.783   2.066  12.067 -2.8352 -1.7878 -4.1364
13662TIP3   OH262476   0.378   2.174  15.225  0.1631  0.6598 -0.1856
13662TIP3    H162477   0.389   2.135  15.311 -0.8171  0.0161 -0.3319
13662TIP3    H262478   0.434   2.121  15.168  1.8274  1.8908  0.2452
13663TIP3   OH262479   5.981   2.149  16.410 -0.1038 -0.2359 -0.1247
13663TIP3    H162480   5.994   2.189  16.496  0.3732  1.1568 -0.7981
13663TIP3    H262481   6.012   2.216  16.349  1.1054 -1.8278 -1.3237
13664TIP3   OH262482   3.869   3.862   2.432 -0.6825  0.4918 -0.4070
13664TIP3    H162483   3.938   3.913   2.474 -0.3036  0.9331 -1.5224
13664TIP3    H262484   3.808   3.927   2.399 -0.9823  0.1553 -0.5151
13665TIP3   OH262485   5.354   4.742  15.823  0.4890  0.2630  0.3497
13665TIP3    H162486   5.360   4.795  15.743 -0.8399 -0.1288 -0.0411
13665TIP3    H262487   5.349   4.652  15.791  2.1659 -0.0989  0.9855
13666TIP3   OH262488   6.835   2.204  14.394 -0.3684 -0.0727  0.1969
13666TIP3    H162489   6.869   2.121  14.426  2.1373  0.8198  0.0783
13666TIP3    H262490   6.814   2.254  14.473 -1.6799 -0.7044  0.2689
13667TIP3   OH262491   0.519   2.020   1.720  0.3480 -0.4882 -0.4554
13667TIP3    H162492   0.610   1.989   1.717  0.1285 -1.2284  0.0244
13667TIP3    H262493   0.502   2.053   1.632  0.8541 -1.0262 -0.7657
13668TIP3   OH262494   1.868   5.581   1.211 -0.5749 -0.1982  0.3767
13668TIP3    H162495   1.849   5.613   1.123  0.4925  0.9576  0.5217
13668TIP3    H262496   1.789   5.535   1.238 -0.5902 -1.3836 -1.5259
13669TIP3   OH262497   3.883   4.706  12.981 -0.0405  0.5765 -0.1162
13669TIP3    H162498   3.824   4.659  13.039 -0.5957  1.7047  0.2560
13669TIP3    H262499   3.969   4.696  13.021 -0.3234  0.8063  0.5694
13670TIP3   OH262500   1.801   1.224   2.233 -0.1739  0.0378 -0.4326
13670TIP3    H162501   1.843   1.267   2.159 -0.2996 -0.2892 -0.6931
13670TIP3    H262502   1.756   1.295   2.279  0.4845  0.3596 -0.2637
13671TIP3   OH262503   1.460   6.559   0.529 -0.0780  0.2701 -0.1032
13671TIP3    H162504   1.404   6.634   0.549 -0.4840 -0.2038  0.5479
13671TIP3    H262505   1.478   6.518   0.613 -0.6658 -0.9315 -0.5321
13672TIP3   OH262506   5.538   1.140  16.800  0.0030  0.5649  0.4784
13672TIP3    H162507   5.550   1.137  16.895  1.7695  1.5821  0.3334
13672TIP3    H262508   5.598   1.209  16.770 -1.5285  1.2502 -1.2387
13673TIP3   OH262509   1.245   6.076   3.700  0.3664  0.0517  0.2247
13673TIP3    H162510   1.328   6.030   3.702  1.3926  1.7694  2.7400
13673TIP3    H262511   1.184   6.016   3.657  2.2368 -2.4131  0.8342
13674TIP3   OH262512   4.904   6.427  14.470 -0.5227 -0.0033 -0.6838
13674TIP3    H162513   4.931   6.452  14.558 -1.1280 -0.5358 -0.3323
13674TIP3    H262514   4.901   6.508  14.421  1.7780  0.0836 -0.7758
13675TIP3   OH262515   1.116   2.855   4.271  0.6341  0.1081 -0.5736
13675TIP3    H162516   1.190   2.810   4.312 -0.3872  0.4240  1.8216
13675TIP3    H262517   1.156   2.928   4.223  1.9917 -0.9277 -1.0784
13676TIP3   OH262518   2.866   0.921  13.892  0.3361  0.0725  0.4222
13676TIP3    H162519   2.859   0.929  13.797  0.7118  0.8795  0.4487
13676TIP3    H262520   2.923   0.845  13.906  1.3958  0.7489 -0.0476
13677TIP3   OH262521   6.314   2.066  16.379  0.3184  0.4915  0.3205
13677TIP3    H162522   6.359   2.074  16.463  0.4078  2.6600  0.1191
13677TIP3    H262523   6.252   2.139  16.378 -0.3273 -0.0432 -1.1199
13678TIP3   OH262524   5.656   2.551   0.126  0.1311 -0.2451 -0.3351
13678TIP3    H162525   5.598   2.605   0.072  1.9644  3.0257  0.6879
13678TIP3    H262526   5.625   2.564   0.215  0.8804 -0.5225 -0.0265
13679TIP3   OH262527   0.555   2.727   3.385 -0.3851 -0.3007 -0.2068
13679TIP3    H162528   0.466   2.693   3.383 -0.0693 -1.1375 -0.8835
13679TIP3    H262529   0.581   2.733   3.293  0.5884 -1.0013 -0.0006
13680TIP3   OH262530   6.134   0.125   0.302 -0.1803  0.4352  0.1179
13680TIP3    H162531   6.089   0.068   0.239  2.7642 -0.4171 -1.3830
13680TIP3    H262532   6.197   0.068   0.345  1.4163  2.1027  0.0932
13681TIP3   OH262533   2.854   6.190  13.960 -0.2779 -0.2693  0.0862
13681TIP3    H162534   2.939   6.189  14.005  0.2237 -0.0749 -0.8413
13681TIP3    H262535   2.800   6.130  14.011  0.6845 -1.0854  0.1907
13682TIP3   OH262536   0.966   0.832   5.132  0.4286 -0.2302  0.1573
13682TIP3    H162537   1.001   0.743   5.124 -1.9995 -1.3108  0.8680
13682TIP3    H262538   0.951   0.843   5.226 -0.8882  0.2652 -0.0964
13683TIP3   OH262539   3.110   2.363   2.898  0.1958 -0.4517  0.0359
13683TIP3    H162540   3.127   2.447   2.940 -1.0474 -0.4535  0.5903
13683TIP3    H262541   3.192   2.315   2.905  0.8790  0.6542 -0.1543
13684TIP3   OH262542   1.547   5.646   0.421  0.0639  0.1535  0.1190
13684TIP3    H162543   1.577   5.619   0.334 -0.2522  0.7308 -0.1722
13684TIP3    H262544   1.453   5.629   0.420  0.2289 -0.8441  0.7302
13685TIP3   OH262545   5.565   5.191  15.018  0.3607  0.3030 -0.1973
13685TIP3    H162546   5.475   5.184  15.049  0.4732  0.7906  0.2671
13685TIP3    H262547   5.578   5.285  15.003  0.0071  0.0003 -2.7060
13686TIP3   OH262548   1.049   6.471  11.265  0.1925 -0.4302  0.0564
13686TIP3    H162549   0.958   6.499  11.262  0.3065 -0.1364 -0.8419
13686TIP3    H262550   1.046   6.384  11.304 -0.8294 -1.8280 -2.9046
13687TIP3   OH262551   0.808   6.362  14.905 -0.0166  0.4324  0.2247
13687TIP3    H162552   0.741   6.394  14.845  1.2277 -0.2963 -1.6200
13687TIP3    H262553   0.788   6.269  14.917  0.5047  0.2631 -0.1569
13688TIP3   OH262554   2.066   6.239  11.547  0.0430 -0.5260 -0.0812
13688TIP3    H162555   2.158   6.222  11.565  0.0194  0.5435  1.2578
13688TIP3    H262556   2.033   6.158  11.508  1.6447 -0.7481 -1.0259
13689TIP3   OH262557   2.623   5.269  13.105  0.5231  0.0486  0.0526
13689TIP3    H162558   2.554   5.229  13.158  0.4678 -2.6419 -1.8590
13689TIP3    H262559   2.576   5.307  13.030  0.7421  2.5040  1.0771
13690TIP3   OH262560   5.262   4.124  15.415  0.2469 -0.5375  0.5694
13690TIP3    H162561   5.244   4.146  15.506  0.9036  1.4686  0.2567
13690TIP3    H262562   5.357   4.109  15.412 -0.0079 -2.3699  0.5213
13691TIP3   OH262563   2.997   3.971   2.340 -0.0063 -0.3307  0.8475
13691TIP3    H162564   2.927   4.030   2.312  0.0942  0.3362  1.9404
13691TIP3    H262565   3.011   3.993   2.432  0.5719 -1.5357  1.0649
13692TIP3   OH262566   5.323   1.310   0.061 -0.8971  0.1343  0.3772
13692TIP3    H162567   5.244   1.265   0.090  0.3492 -0.5265  3.0462
13692TIP3    H262568   5.320   1.306  -0.035 -3.0522 -1.6386  0.4592
13693TIP3   OH262569   0.215   3.311   4.642 -0.1694  0.4130 -0.3793
13693TIP3    H162570   0.288   3.370   4.623  0.4858  0.0296  0.8644
13693TIP3    H262571   0.181   3.340   4.726 -0.9228  0.0529 -0.5499
13694TIP3   OH262572   5.552   1.944   3.905 -0.3141 -0.3757  0.0046
13694TIP3    H162573   5.470   1.914   3.865  0.2697 -0.8221 -0.8774
13694TIP3    H262574   5.562   1.888   3.983 -0.2536 -1.1227 -0.5300
13695TIP3   OH262575   5.195   5.344   0.106 -0.3754 -0.2613  0.5816
13695TIP3    H162576   5.150   5.270   0.148 -1.4961  0.3281  0.4544
13695TIP3    H262577   5.206   5.408   0.175  0.6407 -0.5564  0.7023
13696TIP3   OH262578   6.069   3.362   1.188  0.3226 -0.6859 -0.8940
13696TIP3    H162579   6.120   3.304   1.244 -2.8789 -0.1916  3.0138
13696TIP3    H262580   6.062   3.444   1.238 -0.2828  0.9617 -3.4854
13697TIP3   OH262581   1.071   0.702  15.818 -0.7627  0.3511  0.0249
13697TIP3    H162582   1.089   0.724  15.726  0.3757 -0.4177  0.0466
13697TIP3    H262583   1.028   0.781  15.853 -0.8730  0.7984 -1.0599
13698TIP3   OH262584   4.695   1.911  12.885  0.0716 -0.2874 -0.1221
13698TIP3    H162585   4.610   1.921  12.842 -0.5101 -1.2076  0.7590
13698TIP3    H262586   4.681   1.945  12.974  0.1983 -1.7143  0.4711
13699TIP3   OH262587   5.232   4.584   6.364 -0.0368 -0.0247 -0.0117
13699TIP3    H162588   5.161   4.545   6.313  0.0806 -0.5408  0.2102
13699TIP3    H262589   5.230   4.677   6.342  0.8927 -0.4296 -2.0007
13700TIP3   OH262590   2.578   4.319  12.254  0.4805  0.1446  0.1809
13700TIP3    H162591   2.600   4.259  12.325  0.7806  0.7831  0.6295
13700TIP3    H262592   2.482   4.316  12.249  0.3355  1.2084  1.6130
13701TIP3   OH262593   0.057   3.642   5.698  0.5600 -0.0751 -0.2706
13701TIP3    H162594  -0.032   3.667   5.676  0.4006 -0.1778  0.2517
13701TIP3    H262595   0.071   3.560   5.651 -0.2441 -0.9946  1.0509
13702TIP3   OH262596   4.660   5.857  11.001 -0.1827 -0.1987  0.3373
13702TIP3    H162597   4.591   5.792  11.012 -0.3642 -0.1878 -0.5905
13702TIP3    H262598   4.671   5.864  10.906  1.3868 -0.4884  0.4732
13703TIP3   OH262599   4.082   1.209  15.104 -0.1871  0.2517  0.5085
13703TIP3    H162600   4.096   1.121  15.067 -2.1571  0.1852 -0.1989
13703TIP3    H262601   4.169   1.235  15.136  0.5662 -1.7228  0.2645
13704TIP3   OH262602   1.834   6.730  15.434  0.0255  0.0320  0.5246
13704TIP3    H162603   1.767   6.673  15.471  0.1047 -1.2708 -1.1752
13704TIP3    H262604   1.915   6.679  15.440  0.4053  0.6183  0.4234
13705TIP3   OH262605   4.856   6.018   6.732 -0.3314  0.5497 -0.5474
13705TIP3    H162606   4.833   6.009   6.640  1.4437  1.1587 -1.0985
13705TIP3    H262607   4.902   5.937   6.754 -0.2836  0.6261 -0.3594
13706TIP3   OH262608   2.769   2.755  10.732 -0.0914  0.1096  0.4429
13706TIP3    H162609   2.705   2.714  10.674  0.9014 -0.0368 -0.5765
13706TIP3    H262610   2.762   2.706  10.814 -1.3381  0.1617  0.3875
13707TIP3   OH262611   1.018   4.829   0.735  0.1728  0.0650  0.0608
13707TIP3    H162612   0.947   4.793   0.787 -0.1253  1.2917  0.5350
13707TIP3    H262613   1.089   4.843   0.797  0.0835  0.8117  0.0076
13708TIP3   OH262614   3.033   2.107  12.452  0.0829 -0.3281  0.1206
13708TIP3    H162615   2.981   2.032  12.480  2.5052 -2.2204 -0.1005
13708TIP3    H262616   3.094   2.071  12.388  0.4764  2.1407 -1.0125
13709TIP3   OH262617   3.258   4.896   4.266  0.2581  0.2016  0.2087
13709TIP3    H162618   3.298   4.882   4.180 -1.3562  1.1162 -0.7412
13709TIP3    H262619   3.246   4.809   4.302  0.9296 -0.1956 -0.4909
13710TIP3   OH262620   4.801   6.656  11.871 -0.4275  0.5909 -0.2050
13710TIP3    H162621   4.813   6.751  11.883 -0.4002  0.5839 -0.1764
13710TIP3    H262622   4.787   6.623  11.960  4.1119 -0.0923  0.4718
13711TIP3   OH262623   3.240   4.529   2.483  0.1787  0.1586  0.0400
13711TIP3    H162624   3.335   4.520   2.486  0.0430 -1.2377  0.5222
13711TIP3    H262625   3.224   4.620   2.508  1.3248  0.1056  1.0585
13712TIP3   OH262626   5.566   4.311  13.796 -0.2537 -0.0831 -0.2359
13712TIP3    H162627   5.497   4.270  13.847  0.0829 -1.7618 -1.0418
13712TIP3    H262628   5.638   4.248  13.798  0.7146  0.9675 -0.6273
13713TIP3   OH262629   5.359   0.909  16.967 -0.1195  0.3812  0.4812
13713TIP3    H162630   5.374   0.931  16.875 -0.5183 -1.6066 -0.1106
13713TIP3    H262631   5.368   0.814  16.971 -0.8748  0.3374  2.3648
13714TIP3   OH262632   5.779   3.674   5.267 -0.0920  0.5823 -0.4674
13714TIP3    H162633   5.828   3.740   5.218  2.1363  0.7639  1.7886
13714TIP3    H262634   5.692   3.712   5.278  0.6735  2.4663 -0.5088
13715TIP3   OH262635   5.698   0.966   3.752 -0.7424  0.4724  0.2368
13715TIP3    H162636   5.620   0.915   3.730  0.2080 -1.3751  0.9285
13715TIP3    H262637   5.671   1.021   3.825 -1.6260  0.4731 -0.0790
13716TIP3   OH262638   0.647   0.492  16.264  0.0689  0.4116  0.1867
13716TIP3    H162639   0.695   0.558  16.214 -0.0619 -0.2342 -0.8118
13716TIP3    H262640   0.674   0.507  16.355 -0.0585  1.9206  0.0012
13717TIP3   OH262641   4.039   1.415  16.226 -0.0028  0.2115 -0.0528
13717TIP3    H162642   4.030   1.414  16.321 -0.3296  2.0510 -0.0396
13717TIP3    H262643   4.108   1.351  16.208 -1.3210 -1.6711  1.2303
13718TIP3   OH262644   2.827   0.779  13.333 -0.0012  0.1713  0.1895
13718TIP3    H162645   2.870   0.749  13.253 -1.4029 -1.1474 -0.1220
13718TIP3    H262646   2.898   0.797  13.394  1.0216 -1.6062 -0.4034
13719TIP3   OH262647   5.828   3.664  13.232 -0.3126 -0.4946 -0.1180
13719TIP3    H162648   5.860   3.575  13.245  0.9483  0.0457  0.6756
13719TIP3    H262649   5.899   3.720  13.264 -1.2694  0.7908 -0.1682
13720TIP3   OH262650   4.206   3.770  14.717 -0.1934 -0.2259  0.8325
13720TIP3    H162651   4.209   3.729  14.630  0.8235  1.6090 -0.0507
13720TIP3    H262652   4.114   3.797  14.727 -0.4627 -1.0384  0.6409
13721TIP3   OH262653   5.655   4.584  13.106 -0.6545  0.2161 -0.5731
13721TIP3    H162654   5.564   4.614  13.114 -0.3757  0.8206  0.5160
13721TIP3    H262655   5.650   4.490  13.123 -1.1691  0.1119 -1.2572
13722TIP3   OH262656   6.630   6.139  12.076  0.1895 -0.4523 -0.6081
13722TIP3    H162657   6.657   6.102  11.992  2.9778  2.7744 -1.3516
13722TIP3    H262658   6.572   6.212  12.052 -1.1925 -1.1297  0.5111
13723TIP3   OH262659   5.994   2.834   4.064  0.4669  0.5385  0.0315
13723TIP3    H162660   6.086   2.816   4.084  0.2224 -0.1594  0.5787
13723TIP3    H262661   5.992   2.842   3.969  0.8497 -1.0524 -0.1553
13724TIP3   OH262662   1.984   5.119  16.107  0.1799 -0.2749 -0.2172
13724TIP3    H162663   1.903   5.069  16.098 -0.4219  0.4782  0.8405
13724TIP3    H262664   1.971   5.196  16.052  0.5864 -0.6244 -0.8193
13725TIP3   OH262665   1.281   2.745   0.387  0.3388 -0.2526  0.6250
13725TIP3    H162666   1.278   2.775   0.296 -0.3521  1.2236  1.1050
13725TIP3    H262667   1.371   2.713   0.399  0.5763 -0.0017 -0.4333
13726TIP3   OH262668   3.028   2.805   4.403  0.7087  0.3343 -0.0020
13726TIP3    H162669   3.059   2.733   4.459 -1.0578 -2.5835 -2.4732
13726TIP3    H262670   2.933   2.807   4.418  0.2375 -0.3014 -2.4714
13727TIP3   OH262671   5.513   6.176   1.697 -0.1669 -0.5142 -0.5707
13727TIP3    H162672   5.540   6.244   1.758  0.1321 -0.2224 -1.0300
13727TIP3    H262673   5.499   6.221   1.614  2.0089 -1.2932 -1.4168
13728TIP3   OH262674   1.583   4.021  11.377  0.4806 -0.2565 -0.1470
13728TIP3    H162675   1.604   4.109  11.346 -0.5237 -0.1835 -0.6596
13728TIP3    H262676   1.487   4.019  11.382  0.4875 -1.3226 -0.1660
13729TIP3   OH262677   1.617   5.606   3.642 -0.2677 -0.1836 -0.1236
13729TIP3    H162678   1.631   5.680   3.582 -1.1305 -1.5033 -2.0636
13729TIP3    H262679   1.523   5.610   3.663 -0.1584 -0.2757  0.3947
13730TIP3   OH262680   6.415   3.751  11.551 -0.0542 -0.1502 -0.2598
13730TIP3    H162681   6.370   3.696  11.616 -1.9084 -0.4661 -1.7236
13730TIP3    H262682   6.507   3.729  11.562 -0.2847 -0.2397  2.1884
13731TIP3   OH262683   5.339   3.671  13.129 -0.1133  0.5995  0.1270
13731TIP3    H162684   5.273   3.606  13.153  0.3433 -1.0646 -2.7227
13731TIP3    H262685   5.392   3.682  13.208 -2.7436  0.7815  2.0005
13732TIP3   OH262686   0.608   2.419  13.931 -0.5847 -0.3571 -0.0959
13732TIP3    H162687   0.632   2.411  13.839  1.3435  1.3992  0.1686
13732TIP3    H262688   0.514   2.435  13.931 -0.9059 -1.9369 -1.6218
13733TIP3   OH262689   0.930   2.117  14.474 -0.0317 -0.0090  0.1748
13733TIP3    H162690   0.894   2.072  14.397 -1.2568  2.0679 -0.5413
13733TIP3    H262691   1.014   2.074  14.490 -0.1029 -1.0028 -1.8549
13734TIP3   OH262692   5.830   1.401   1.360  0.2948  0.0139 -0.3158
13734TIP3    H162693   5.811   1.308   1.369 -1.9823  0.4660 -0.0186
13734TIP3    H262694   5.746   1.445   1.373  1.0207  2.0394 -1.8968
13735TIP3   OH262695   3.212   0.096  14.149 -0.1431  0.0810 -0.3067
13735TIP3    H162696   3.259   0.175  14.123  1.6885 -0.6933  0.4602
13735TIP3    H262697   3.212   0.040  14.071  1.3654 -0.4250  0.0376
13736TIP3   OH262698   5.760   1.283   0.397  0.0970  0.1941  0.4488
13736TIP3    H162699   5.779   1.377   0.402  0.5217  0.1505 -0.2984
13736TIP3    H262700   5.681   1.277   0.343  1.7781 -0.0475 -2.1486
13737TIP3   OH262701   5.138   1.871  14.057  0.3988 -0.1971 -0.4174
13737TIP3    H162702   5.224   1.835  14.037  0.4730  0.0423 -0.5369
13737TIP3    H262703   5.107   1.819  14.131  0.5738 -0.3941 -0.4802
13738TIP3   OH262704   1.832   5.686  12.115  0.2193 -0.2782  0.0013
13738TIP3    H162705   1.782   5.646  12.186 -1.5821  0.1533 -0.9647
13738TIP3    H262706   1.831   5.779  12.134  0.4859 -0.2482 -0.1283
13739TIP3   OH262707   2.560   6.705   1.881  0.0748 -0.3271  0.1211
13739TIP3    H162708   2.465   6.707   1.890  0.0150  0.0284 -0.5805
13739TIP3    H262709   2.585   6.619   1.916 -0.5170 -0.4809  0.1784
13740TIP3   OH262710   1.385   2.229   4.914 -0.4823  0.3272  0.3083
13740TIP3    H162711   1.458   2.192   4.864 -1.3022  0.8118 -1.2780
13740TIP3    H262712   1.411   2.319   4.931 -0.1015  0.0995  1.0196
13741TIP3   OH262713   3.866   3.566  11.685  0.2215  0.5797 -0.3030
13741TIP3    H162714   3.887   3.618  11.608  1.1620 -1.0372 -1.1900
13741TIP3    H262715   3.781   3.599  11.714 -1.3255 -0.3436 -3.4438
13742TIP3   OH262716   1.641   3.289   5.587 -0.7847 -0.3085 -0.2294
13742TIP3    H162717   1.610   3.216   5.533  2.3654 -1.4527 -0.7250
13742TIP3    H262718   1.618   3.367   5.537 -1.9763 -1.0774 -0.9436
13743TIP3   OH262719   2.060   4.191  16.568 -0.4323  0.0381  0.0771
13743TIP3    H162720   2.144   4.200  16.523 -0.1299 -1.7786  0.2114
13743TIP3    H262721   2.082   4.161  16.656 -1.2266 -1.7471 -0.2805
13744TIP3   OH262722   4.462   2.858   2.681  0.4500  0.6100  0.4573
13744TIP3    H162723   4.377   2.821   2.706  1.0253 -1.0701  0.0224
13744TIP3    H262724   4.484   2.814   2.599  1.9266  0.7192  0.7722
13745TIP3   OH262725   2.575   2.266   1.520  0.0128  0.4036  0.3096
13745TIP3    H162726   2.640   2.263   1.591  0.3822  0.2636 -0.0303
13745TIP3    H262727   2.618   2.315   1.450 -0.3781  0.6020  0.2067
13746TIP3   OH262728   3.149   6.329   0.647 -0.2336 -0.0712  0.6188
13746TIP3    H162729   3.185   6.279   0.574 -1.4308 -1.2382  0.7848
13746TIP3    H262730   3.219   6.330   0.712 -0.0843 -1.3909  0.5188
13747TIP3   OH262731   5.745   3.582   2.885  0.1883 -0.2534 -0.2913
13747TIP3    H162732   5.811   3.591   2.817  0.8284 -0.0769  0.3384
13747TIP3    H262733   5.791   3.539   2.958 -0.1061  0.7560  0.5173
13748TIP3   OH262734   2.920   0.741   0.122 -0.9970 -0.1854  0.5526
13748TIP3    H162735   2.927   0.729   0.216 -2.1107  1.7452  0.9423
13748TIP3    H262736   2.856   0.811   0.111  1.8649  2.4036 -1.4391
13749TIP3   OH262737   1.560   3.891  15.168  0.6528  0.6152  0.6534
13749TIP3    H162738   1.575   3.822  15.103  1.1469  3.4764 -2.5436
13749TIP3    H262739   1.641   3.895  15.218  0.8970 -0.5706  0.3896
13750TIP3   OH262740   6.044   1.766   2.443 -0.1747 -0.1365  0.2599
13750TIP3    H162741   6.129   1.726   2.460  0.1970 -0.0938 -1.3575
13750TIP3    H262742   5.994   1.698   2.397 -1.4672 -0.5789  2.2260
13751TIP3   OH262743   0.099   0.270  13.630  0.0042 -0.5461 -0.6181
13751TIP3    H162744   0.090   0.179  13.602  0.8744 -0.4888 -1.1299
13751TIP3    H262745   0.135   0.316  13.554 -1.5415  0.4886 -0.7742
13752TIP3   OH262746   3.898   4.555  10.716  0.6113 -0.0538  0.5992
13752TIP3    H162747   3.857   4.637  10.688  1.2804  0.5631  1.3616
13752TIP3    H262748   3.824   4.498  10.736  0.1307  0.3792  0.1113
13753TIP3   OH262749   3.969   2.711   3.705  0.3638  0.0335  0.0122
13753TIP3    H162750   3.985   2.655   3.781  0.5576 -0.0651 -0.1022
13753TIP3    H262751   4.054   2.750   3.685 -0.3477  2.8797  2.0575
13754TIP3   OH262752   1.706   1.044  11.930  0.1440  0.3621 -0.1289
13754TIP3    H162753   1.770   0.998  11.983 -0.7523  0.1345  0.8014
13754TIP3    H262754   1.744   1.131  11.914  0.3676  0.4810  1.0184
13755TIP3   OH262755   6.703   2.762  16.451  0.1031  0.3824 -0.1714
13755TIP3    H162756   6.794   2.760  16.420  0.7200 -1.3585  1.5431
13755TIP3    H262757   6.668   2.676  16.427 -1.1237  1.0180 -0.7693
13756TIP3   OH262758   2.230   2.111  11.256  0.0537 -0.3749 -0.1367
13756TIP3    H162759   2.210   2.034  11.203 -0.2526  0.3620 -1.1169
13756TIP3    H262760   2.318   2.137  11.229 -0.2479  0.2198 -0.5752
13757TIP3   OH262761   4.919   2.512   5.269  0.0426  0.0776  0.2534
13757TIP3    H162762   4.999   2.536   5.317 -1.1493  2.7148  1.1225
13757TIP3    H262763   4.848   2.552   5.319 -1.5664  0.3019 -2.0481
13758TIP3   OH262764   0.351   0.757   4.660 -0.3220 -0.2906 -0.4592
13758TIP3    H162765   0.275   0.729   4.711 -1.1437 -0.8021 -1.8817
13758TIP3    H262766   0.426   0.746   4.719 -1.3927  0.7828  1.1711
13759TIP3   OH262767   0.214   2.112  11.170 -0.2631 -0.0726  0.4881
13759TIP3    H162768   0.297   2.121  11.218 -1.2712 -1.0594  2.5496
13759TIP3    H262769   0.234   2.142  11.082  1.6871  1.9999  1.5318
13760TIP3   OH262770   1.773   3.464  17.119 -0.2776 -0.3928  0.0539
13760TIP3    H162771   1.765   3.441  17.212  0.3475  0.8101  0.4268
13760TIP3    H262772   1.841   3.405  17.086  0.5992  0.1950  0.7492
13761TIP3   OH262773   1.292   4.381  12.124 -0.6233  0.4336  0.0261
13761TIP3    H162774   1.275   4.371  12.031 -1.5684  1.7462  0.0210
13761TIP3    H262775   1.388   4.385  12.131 -0.5583  0.7032 -0.9287
13762TIP3   OH262776   1.986   3.013  12.891  0.1825 -0.4149 -0.2713
13762TIP3    H162777   1.898   3.051  12.884 -0.3135 -1.6626 -1.1373
13762TIP3    H262778   2.040   3.066  12.832  0.1242  0.6098  0.5714
13763TIP3   OH262779   0.321   2.866   4.629 -0.3019  0.5468  0.0147
13763TIP3    H162780   0.409   2.848   4.662  0.1890  3.4864  0.6607
13763TIP3    H262781   0.320   2.831   4.541  1.6929  0.7786 -0.1431
13764TIP3   OH262782   6.765   2.874   0.625  0.2815 -0.1024 -0.0304
13764TIP3    H162783   6.705   2.802   0.605 -0.8314  1.2582 -2.0038
13764TIP3    H262784   6.720   2.926   0.692  0.0490 -0.0534 -0.2219
13765TIP3   OH262785   6.426   2.738   0.221  0.1760 -0.3906 -0.2719
13765TIP3    H162786   6.463   2.798   0.155 -0.3022  1.4551  1.0563
13765TIP3    H262787   6.334   2.729   0.196 -0.0548  0.4763  0.2480
13766TIP3   OH262788   2.388   5.570  15.440 -0.3985 -0.0752  0.2435
13766TIP3    H162789   2.336   5.497  15.474  0.2393 -0.0664  1.2764
13766TIP3    H262790   2.444   5.596  15.513  1.6720 -0.6251 -1.0547
13767TIP3   OH262791   0.900   6.250  16.221  0.0268 -0.0554  0.2358
13767TIP3    H162792   0.838   6.188  16.182  0.8320 -0.5912 -0.2144
13767TIP3    H262793   0.930   6.303  16.147  1.7990 -1.2794  0.0178
13768TIP3   OH262794   3.744   6.422   2.353 -0.1826  0.1141  0.2926
13768TIP3    H162795   3.691   6.438   2.431  0.1271  1.4387  0.2437
13768TIP3    H262796   3.827   6.387   2.387 -1.0627 -2.0791  0.3617
13769TIP3   OH262797   6.101   3.197  14.812  0.1849  0.7130 -0.0855
13769TIP3    H162798   6.175   3.257  14.818  1.1062 -0.5127  1.9975
13769TIP3    H262799   6.139   3.110  14.823 -1.3422 -0.1255 -1.0700
13770TIP3   OH262800   0.223   0.677   6.333 -0.2597 -0.5953  0.2884
13770TIP3    H162801   0.175   0.600   6.303  2.8390 -2.2912 -0.7470
13770TIP3    H262802   0.255   0.718   6.253  0.8132 -0.0799  0.9678
13771TIP3   OH262803   1.841   0.854  12.487 -0.3116 -0.2440 -0.1159
13771TIP3    H162804   1.795   0.807  12.418 -0.5824 -0.1759  0.0198
13771TIP3    H262805   1.838   0.946  12.460  0.9508 -0.3724 -0.8202
13772TIP3   OH262806   6.038   0.181  13.857 -0.6947 -0.2324  0.5303
13772TIP3    H162807   6.100   0.253  13.841  0.1759 -0.5882  2.0475
13772TIP3    H262808   6.065   0.112  13.797 -1.2668  0.5183 -0.6350
13773TIP3   OH262809   3.373   6.081   6.386 -0.2738 -0.7747 -0.8035
13773TIP3    H162810   3.440   6.088   6.317  1.1904 -0.3429  0.6129
13773TIP3    H262811   3.344   5.990   6.382  1.8520 -1.5278 -0.1727
13774TIP3   OH262812   2.193   2.025   6.051  0.0097 -0.2667 -0.2709
13774TIP3    H162813   2.123   2.088   6.062  1.0276  0.7798  0.4991
13774TIP3    H262814   2.273   2.077   6.055  0.8690 -1.5602  0.0811
13775TIP3   OH262815   3.252   2.464  13.246  0.1278 -0.1232  0.1005
13775TIP3    H162816   3.292   2.378  13.233  0.7827  0.3701 -1.4639
13775TIP3    H262817   3.287   2.517  13.174 -1.7176  0.9195 -0.0892
13776TIP3   OH262818   0.731   5.893  17.130  0.1403  0.1524 -0.0198
13776TIP3    H162819   0.683   5.971  17.158 -0.7147 -0.0490 -0.8653
13776TIP3    H262820   0.708   5.827  17.195  2.4415  1.0630  1.8836
13777TIP3   OH262821   5.288   5.584   0.773  0.0657  0.0596  1.1496
13777TIP3    H162822   5.264   5.614   0.861 -0.9560  1.7654  0.3630
13777TIP3    H262823   5.324   5.497   0.786 -0.3941  0.1160  3.2142
13778TIP3   OH262824   6.742   4.877   0.109  0.5549  0.4195 -0.3516
13778TIP3    H162825   6.746   4.827   0.191  3.3494  2.6800  1.0764
13778TIP3    H262826   6.692   4.955   0.131  2.7896  1.8777 -0.1698
13779TIP3   OH262827   1.143   3.112  11.716  0.1349  0.2822 -0.3248
13779TIP3    H162828   1.213   3.067  11.762  1.6366  2.7576  0.0116
13779TIP3    H262829   1.067   3.106  11.774  0.4934 -1.0877  0.0307
13780TIP3   OH262830   4.195   1.677  14.399  0.1764  0.0687  0.0210
13780TIP3    H162831   4.207   1.593  14.354 -1.0907 -0.4537  0.6116
13780TIP3    H262832   4.178   1.740  14.329 -0.5072 -0.4901 -0.3212
13781TIP3   OH262833   6.649   5.102  15.940  0.2934  0.2084  0.8662
13781TIP3    H162834   6.588   5.092  15.868  0.6652 -0.0512  0.5829
13781TIP3    H262835   6.659   5.196  15.952  1.3077  0.2762 -0.3513
13782TIP3   OH262836   6.059   4.622   3.846 -0.4350 -0.1073 -0.3396
13782TIP3    H162837   6.152   4.643   3.855 -0.4481  1.0040 -2.2918
13782TIP3    H262838   6.053   4.569   3.766 -1.5906  0.8181 -0.8965
13783TIP3   OH262839   2.546   3.987   5.175 -0.4691  0.3048 -0.1498
13783TIP3    H162840   2.540   4.071   5.220 -1.1503 -0.2911  0.8989
13783TIP3    H262841   2.639   3.964   5.179 -0.7170 -0.6173  2.6890
13784TIP3   OH262842   2.623   0.567  13.782 -0.1233 -0.1986  0.3059
13784TIP3    H162843   2.603   0.654  13.748  0.1338  0.0479  0.7639
13784TIP3    H262844   2.638   0.581  13.876  0.6031 -0.6231  0.2659
13785TIP3   OH262845   1.567   1.379   1.953 -0.3955  0.2919 -0.8450
13785TIP3    H162846   1.517   1.421   1.883 -2.6293 -2.9962 -1.4147
13785TIP3    H262847   1.582   1.290   1.923  0.9413 -0.4882  1.7775
13786TIP3   OH262848   6.829   4.890   1.081 -0.0711  0.0069 -0.2231
13786TIP3    H162849   6.836   4.795   1.075  0.5597  0.0146  0.2429
13786TIP3    H262850   6.782   4.906   1.163  0.1575  0.1050 -0.1106
13787TIP3   OH262851   5.865   3.643   1.873 -0.2005 -0.5395  0.2547
13787TIP3    H162852   5.811   3.705   1.922 -0.2893  0.0007 -0.5159
13787TIP3    H262853   5.830   3.557   1.897  0.9332 -0.4253  2.5794
13788TIP3   OH262854   1.922   0.210   1.918 -0.1227 -0.1504  0.1249
13788TIP3    H162855   1.941   0.210   1.824 -0.4869  0.2225  0.0486
13788TIP3    H262856   1.944   0.121   1.947  1.9375  0.2903  0.0881
13789TIP3   OH262857   5.302   4.003   6.445  0.0773  0.1363  0.0204
13789TIP3    H162858   5.255   4.063   6.388  0.8801  1.6249  0.8453
13789TIP3    H262859   5.299   3.919   6.400 -1.4227  0.6941 -0.9896
13790TIP3   OH262860   2.676   1.336  10.961  0.1303 -0.5752  0.0284
13790TIP3    H162861   2.771   1.350  10.953 -0.1031  0.8789 -0.5580
13790TIP3    H262862   2.666   1.287  11.042  1.2704  0.7234  1.0059
13791TIP3   OH262863   2.271   5.882  16.219  0.5474 -0.1488  0.2830
13791TIP3    H162864   2.362   5.878  16.247  0.5909 -1.3245  0.0032
13791TIP3    H262865   2.223   5.827  16.282  0.0882  0.1542  0.2043
13792TIP3   OH262866   0.876   3.417  12.115  0.1923 -0.2466  0.2171
13792TIP3    H162867   0.849   3.381  12.030  0.3940  1.4360 -0.6102
13792TIP3    H262868   0.826   3.498  12.123  0.4372 -0.2092  1.5654
13793TIP3   OH262869   3.460   2.932  13.963 -0.3561 -0.0059 -0.0203
13793TIP3    H162870   3.421   2.875  13.897  0.6934 -0.7667 -0.0045
13793TIP3    H262871   3.458   3.019  13.924  1.4659 -0.6245 -1.6614
13794TIP3   OH262872   2.185   4.551  12.557 -0.1248 -0.1818  0.5082
13794TIP3    H162873   2.120   4.555  12.487  1.9288  0.9371 -1.4694
13794TIP3    H262874   2.252   4.491  12.524 -0.0249 -1.2093  2.4221
13795TIP3   OH262875   0.351   2.867  15.994  0.7269 -0.7181 -0.0198
13795TIP3    H162876   0.419   2.800  15.991  0.7034 -0.7813  0.7226
13795TIP3    H262877   0.280   2.831  15.941  0.9336 -1.0379 -0.0819
13796TIP3   OH262878   0.581   0.344  13.641  0.0133 -0.0366 -0.1645
13796TIP3    H162879   0.488   0.356  13.663 -0.1836 -1.3475 -0.1741
13796TIP3    H262880   0.588   0.251  13.619  1.1945  0.2006 -0.8790
13797TIP3   OH262881   0.613   0.945   4.543  0.2653  0.2760 -0.2662
13797TIP3    H162882   0.594   0.916   4.453  0.3746  0.2879 -0.2928
13797TIP3    H262883   0.565   1.027   4.552  0.3480  0.3330 -0.3513
13798TIP3   OH262884   6.672   4.636  15.599  0.1045 -0.0248 -0.5183
13798TIP3    H162885   6.633   4.635  15.511  1.4936 -1.2326 -1.1612
13798TIP3    H262886   6.599   4.661  15.657 -1.6019 -1.9683 -1.6749
13799TIP3   OH262887   3.351   6.804  12.419  0.0401 -0.3238 -0.1405
13799TIP3    H162888   3.273   6.839  12.375  0.2414  1.4903  0.8477
13799TIP3    H262889   3.419   6.805  12.352 -0.2500  0.1319 -0.4386
13800TIP3   OH262890   5.785   2.047   6.013  0.4669  0.2409  0.8027
13800TIP3    H162891   5.730   2.044   5.934  0.3143  0.5364  0.8948
13800TIP3    H262892   5.726   2.078   6.082  0.8057  0.7713  0.8539
13801TIP3   OH262893   4.587   5.190  12.082  0.6598  0.6206  0.5744
13801TIP3    H162894   4.527   5.130  12.038 -0.3851  0.4027  2.2312
13801TIP3    H262895   4.546   5.276  12.074  0.4230  0.5678  1.1686
13802TIP3   OH262896   0.500   0.082   2.071 -0.0384  0.1709  0.0334
13802TIP3    H162897   0.474   0.051   1.984 -1.1412 -1.6158  0.9223
13802TIP3    H262898   0.419   0.081   2.122  0.9129 -0.8531  1.6211
13803TIP3   OH262899   2.568   1.841   4.238  0.7565  0.4279 -0.0758
13803TIP3    H162900   2.621   1.919   4.249 -0.2539  1.2245 -0.6542
13803TIP3    H262901   2.625   1.769   4.263  1.7120  1.3453  0.4497
13804TIP3   OH262902   3.069   2.069   0.845  0.0566 -0.0964  0.2039
13804TIP3    H162903   3.000   2.087   0.781  0.6055  0.2622 -0.2903
13804TIP3    H262904   3.120   1.999   0.806  1.2026  1.0336 -0.3877
13805TIP3   OH262905   2.275   1.723  15.172 -0.2007  0.0392  0.3480
13805TIP3    H162906   2.292   1.665  15.098 -0.6135 -0.8707  0.9456
13805TIP3    H262907   2.267   1.664  15.247 -1.6743  0.7650  0.7982
13806TIP3   OH262908   1.292   1.044   6.214  0.0788  0.5664 -0.0102
13806TIP3    H162909   1.384   1.071   6.211  0.5401 -0.8940 -0.0720
13806TIP3    H262910   1.257   1.085   6.292  0.8973  0.8325  0.2291
13807TIP3   OH262911   1.345   0.060  16.841  0.5761 -0.1346  0.0939
13807TIP3    H162912   1.423   0.111  16.820 -0.6133  0.9235 -2.1271
13807TIP3    H262913   1.301   0.110  16.910  0.9085  0.2658  0.0166
13808TIP3   OH262914   4.198   1.059  14.758 -0.2402 -0.1744  0.6319
13808TIP3    H162915   4.188   1.065  14.853 -0.6405 -0.0857  0.5868
13808TIP3    H262916   4.179   1.147  14.727  0.3217 -0.0948  0.5016
13809TIP3   OH262917   1.984   0.861  14.310 -0.0109 -0.0581 -0.0782
13809TIP3    H162918   2.079   0.852  14.318  0.0577 -1.0761 -1.6826
13809TIP3    H262919   1.949   0.802  14.376  0.4251  1.2678  1.4117
13810TIP3   OH262920   6.199   0.887   4.730  0.4205  0.5087  0.2362
13810TIP3    H162921   6.233   0.846   4.651  0.5207 -1.5302  1.2945
13810TIP3    H262922   6.270   0.943   4.761  1.1911 -0.3796  0.0834
13811TIP3   OH262923   6.380   1.554   4.271  0.0319 -0.1344 -0.1572
13811TIP3    H162924   6.418   1.571   4.358 -0.8771  1.6997 -0.0687
13811TIP3    H262925   6.342   1.638   4.245  0.2067 -0.6703 -2.3172
13812TIP3   OH262926   4.311   0.411   5.871 -0.0507  0.2768  0.2974
13812TIP3    H162927   4.299   0.427   5.964 -2.2738  0.6439  0.0277
13812TIP3    H262928   4.392   0.361   5.864  0.3859  0.6205  2.3679
13813TIP3   OH262929   3.824   1.649  16.570  0.1682  0.5355 -0.3863
13813TIP3    H162930   3.863   1.696  16.496 -0.1489  1.1692 -0.1641
13813TIP3    H262931   3.842   1.557  16.553  1.8373  0.8058 -0.2527
13814TIP3   OH262932   1.828   3.916  11.542 -0.3225  0.0261 -0.3231
13814TIP3    H162933   1.760   3.961  11.591  0.4292  2.3884 -1.3244
13814TIP3    H262934   1.781   3.871  11.472 -1.0373 -0.2532  0.3259
13815TIP3   OH262935   5.003   2.070   1.855 -0.2172 -0.2949  0.1343
13815TIP3    H162936   4.968   2.142   1.907 -0.5778  0.1231 -0.6750
13815TIP3    H262937   4.934   2.049   1.792 -0.1326 -1.3663  0.3691
13816TIP3   OH262938   2.155   5.111   5.624 -0.3087  0.1605 -0.6002
13816TIP3    H162939   2.083   5.144   5.679 -2.0564 -1.5803 -1.7147
13816TIP3    H262940   2.142   5.016   5.622  2.5998 -0.3221 -0.1569
13817TIP3   OH262941   2.856   0.625   5.174 -0.2052 -0.7144  0.1878
13817TIP3    H162942   2.900   0.542   5.190 -2.1366 -2.0588 -1.0282
13817TIP3    H262943   2.817   0.616   5.087 -2.4511  0.5208  0.9641
13818TIP3   OH262944   0.404   3.289  14.528  0.4690  0.0715  0.4480
13818TIP3    H162945   0.431   3.355  14.591  2.9799  0.3462 -0.8204
13818TIP3    H262946   0.476   3.283  14.465 -1.7094 -0.4676 -2.2201
13819TIP3   OH262947   1.324   4.636   2.025  0.8376 -0.2189  0.1216
13819TIP3    H162948   1.240   4.682   2.022  0.9757  0.0332  0.0497
13819TIP3    H262949   1.311   4.558   1.972  1.1345  0.6386 -1.2908
13820TIP3   OH262950   3.190   2.838   0.004 -0.4885 -0.8059  0.2593
13820TIP3    H162951   3.155   2.853  -0.084 -1.4013  0.0324  0.7406
13820TIP3    H262952   3.284   2.850  -0.005 -0.4809 -1.4741 -0.7479
13821TIP3   OH262953   3.703   5.981   1.670 -0.1660 -0.8341 -0.2649
13821TIP3    H162954   3.787   6.024   1.683 -1.0823  0.9406  0.0450
13821TIP3    H262955   3.693   5.975   1.575 -0.5846  0.8419 -0.3523
13822TIP3   OH262956   2.211   2.538  16.748  0.3896 -0.4090  0.3141
13822TIP3    H162957   2.296   2.503  16.777  1.7575 -0.3322 -3.1178
13822TIP3    H262958   2.158   2.461  16.730  0.7915 -0.5572 -0.2652
13823TIP3   OH262959   2.189   1.076   2.710 -0.7896  0.2059  0.6678
13823TIP3    H162960   2.230   0.990   2.716  0.9076  1.0916  3.3732
13823TIP3    H262961   2.221   1.112   2.627 -1.2858 -1.5895 -0.3585
13824TIP3   OH262962   6.647   4.155  14.506 -0.4452  0.4167  0.5455
13824TIP3    H162963   6.636   4.239  14.550  3.1231  0.6903  1.2521
13824TIP3    H262964   6.657   4.177  14.413 -1.2248  0.5644  0.4913
13825TIP3   OH262965   1.406   2.254   2.170 -0.3211  0.3873 -0.2075
13825TIP3    H162966   1.448   2.309   2.104  1.0684 -0.2617  0.1064
13825TIP3    H262967   1.317   2.289   2.177  0.5110  2.6133  0.0167
13826TIP3   OH262968   3.571   0.883  14.715 -0.2203  0.1869 -0.4983
13826TIP3    H162969   3.623   0.844  14.785 -0.7363  0.1492 -0.1287
13826TIP3    H262970   3.499   0.821  14.702 -0.0223  0.0955 -1.2011
13827TIP3   OH262971   0.425   2.164  13.826 -0.0315 -0.3512  0.6375
13827TIP3    H162972   0.389   2.172  13.738 -1.3503  0.1999  1.2169
13827TIP3    H262973   0.520   2.165  13.813 -0.2061  0.4202 -0.7175
13828TIP3   OH262974   1.084   3.994   5.920 -0.3511 -0.1745 -0.0776
13828TIP3    H162975   1.078   4.078   5.966  0.6400  0.1413 -0.4917
13828TIP3    H262976   1.058   3.929   5.985 -0.2203  0.3789  0.5374
13829TIP3   OH262977   3.218   4.096   0.642  0.3191 -0.2627  0.7508
13829TIP3    H162978   3.235   4.160   0.574  2.6978 -2.0205 -0.4553
13829TIP3    H262979   3.221   4.146   0.724 -0.4868  1.5231 -0.2575
13830TIP3   OH262980   1.670   3.733  13.973 -0.3408  0.1042  0.3276
13830TIP3    H162981   1.766   3.727  13.977 -0.3274  0.4778  0.5904
13830TIP3    H262982   1.653   3.814  13.924 -0.5251 -0.2940 -0.2852
13831TIP3   OH262983   3.297   2.559   0.042 -0.4285  0.7726  0.2187
13831TIP3    H162984   3.389   2.575   0.059  0.0994 -0.2607 -1.4704
13831TIP3    H262985   3.253   2.639   0.072  0.6622  0.2852  3.4740
13832TIP3   OH262986   5.654   0.273  16.194 -0.0466  0.0693  0.1951
13832TIP3    H162987   5.694   0.347  16.240 -0.3688 -1.0379  2.3568
13832TIP3    H262988   5.591   0.314  16.134  1.5519  1.6366 -0.5209
13833TIP3   OH262989   4.233   3.803  17.216  0.2179 -0.9925  0.7007
13833TIP3    H162990   4.180   3.728  17.243  1.6303 -2.0047  0.7978
13833TIP3    H262991   4.175   3.854  17.160 -0.1061 -3.4272 -1.3729
13834TIP3   OH262992   5.380   2.688   4.680  0.0099 -0.1911  0.1160
13834TIP3    H162993   5.417   2.749   4.744 -0.5108 -0.9663  1.1823
13834TIP3    H262994   5.340   2.619   4.733  0.1009 -1.1757 -1.0585
13835TIP3   OH262995   6.700   6.420  16.045  0.2021 -0.1656  0.4912
13835TIP3    H162996   6.676   6.405  16.136 -1.2379 -0.1505  0.1317
13835TIP3    H262997   6.748   6.503  16.047 -2.0958  1.2196  0.9207
13836TIP3   OH262998   6.765   2.047   5.000  0.0812  0.4127  0.0090
13836TIP3    H162999   6.783   2.089   4.916  0.4733  0.5202  0.1463
13836TIP3    H263000   6.797   2.109   5.066  3.8168 -1.4449  0.1833
13837TIP3   OH263001   0.982   2.788  16.265 -0.0669 -0.1395  0.0907
13837TIP3    H163002   0.965   2.881  16.273 -0.4219 -0.0877 -1.0892
13837TIP3    H263003   0.930   2.747  16.335 -2.6975  0.2744 -1.4946
13838TIP3   OH263004   4.683   5.170  15.304  0.1568  0.2512  0.3180
13838TIP3    H163005   4.716   5.246  15.351  0.7454  1.0994 -1.3942
13838TIP3    H263006   4.756   5.108  15.302 -0.2232 -0.2642  1.4373
13839TIP3   OH263007   1.615   0.070  11.991 -0.0827 -0.1401 -0.0927
13839TIP3    H163008   1.694   0.118  12.015  0.3542 -0.8226 -0.1244
13839TIP3    H263009   1.633   0.038  11.903 -0.2148 -0.6673  0.0706
13840TIP3   OH263010   6.582   2.556  15.406  0.2048 -0.5070  0.1793
13840TIP3    H163011   6.624   2.602  15.478  2.3920  0.2813 -1.4823
13840TIP3    H263012   6.617   2.467  15.408  2.1350  0.1604 -1.2279
13841TIP3   OH263013   1.118   5.026  12.708  0.0469 -0.4163  0.1673
13841TIP3    H163014   1.028   5.007  12.734 -0.2164 -0.2225 -0.5788
13841TIP3    H263015   1.161   4.940  12.707  0.4455 -0.2928  2.5461
13842TIP3   OH263016   6.705   3.996  10.604 -0.5200 -0.3922  0.0489
13842TIP3    H163017   6.727   4.045  10.683 -0.5380 -0.4595  0.0955
13842TIP3    H263018   6.732   4.053  10.532 -1.5770  0.1946  0.0866
13843TIP3   OH263019   1.631   2.100   5.563  0.3523  0.3578  0.1012
13843TIP3    H163020   1.713   2.144   5.539 -0.2880  0.7911 -1.3985
13843TIP3    H263021   1.608   2.138   5.647  2.5581 -1.0203  1.4417
13844TIP3   OH263022   4.324   6.523  15.417  0.4152  0.0016  0.3330
13844TIP3    H163023   4.316   6.433  15.449  0.7867 -0.1483  0.0105
13844TIP3    H263024   4.238   6.544  15.381  0.2816 -0.1689  0.5544
13845TIP3   OH263025   0.302   2.519  11.352 -0.0416 -0.6002 -0.7219
13845TIP3    H163026   0.282   2.517  11.258 -1.5192 -0.3095 -0.4297
13845TIP3    H263027   0.283   2.609  11.378 -1.2055 -1.0853  0.1759
13846TIP3   OH263028   2.813   1.505   3.175  0.1781 -0.1050  0.1279
13846TIP3    H163029   2.876   1.474   3.240 -0.2552 -0.9438  0.1636
13846TIP3    H263030   2.865   1.527   3.099  0.4318 -1.8648 -0.2486
13847TIP3   OH263031   5.669   5.834   6.125  0.3662 -0.4663 -0.0255
13847TIP3    H163032   5.665   5.909   6.065  2.0894 -1.2024 -1.1298
13847TIP3    H263033   5.703   5.871   6.207 -1.8074  0.5040  0.5342
13848TIP3   OH263034   4.589   4.663   6.604  0.4503  0.1007 -0.3413
13848TIP3    H163035   4.632   4.685   6.687 -0.4587  1.5657 -0.2290
13848TIP3    H263036   4.524   4.732   6.591 -1.0580 -1.3739 -1.1063
13849TIP3   OH263037   2.361   0.093   3.228 -0.0868 -0.0535  0.8745
13849TIP3    H163038   2.271   0.095   3.197 -0.2895 -0.9323  1.3557
13849TIP3    H263039   2.399   0.177   3.201 -0.1157 -0.8848 -2.0317
13850TIP3   OH263040   2.767   4.915  11.759 -0.1339  0.0886  0.4903
13850TIP3    H163041   2.828   4.986  11.742  1.1449 -0.4789  2.4299
13850TIP3    H263042   2.681   4.957  11.760  0.2749  1.0698 -1.2162
13851TIP3   OH263043   2.536   5.383  12.865 -0.2757 -0.2681  0.2030
13851TIP3    H163044   2.562   5.300  12.825 -1.0557 -0.6101  0.3879
13851TIP3    H263045   2.527   5.444  12.791 -2.3474 -1.0625 -0.2553
13852TIP3   OH263046   4.989   0.912  14.150 -0.6318 -0.3739 -0.0006
13852TIP3    H163047   4.909   0.880  14.109 -0.4843 -0.9464  0.1488
13852TIP3    H263048   4.972   0.904  14.244  0.3462 -2.4803  0.0658
13853TIP3   OH263049   2.717   1.710   2.003  0.3006 -0.0513 -0.2261
13853TIP3    H163050   2.639   1.750   1.965  0.9326 -0.4887 -2.0682
13853TIP3    H263051   2.707   1.616   1.988 -0.5949 -0.6162  2.9984
13854TIP3   OH263052   3.811   5.064  11.823 -0.2897  0.2607  0.4339
13854TIP3    H163053   3.834   5.039  11.912 -1.2621 -0.5574  0.4748
13854TIP3    H263054   3.872   5.134  11.801  0.9569 -0.5423  1.1963
13855TIP3   OH263055   0.525   2.972  15.243 -0.1256 -0.1976 -0.1924
13855TIP3    H163056   0.473   3.034  15.192 -0.1666 -0.2318 -0.1926
13855TIP3    H263057   0.560   3.024  15.316 -1.9468 -0.6342  1.0529
13856TIP3   OH263058   0.323   3.710   5.452 -0.0529  0.0891  0.4632
13856TIP3    H163059   0.351   3.731   5.541  0.5793 -0.7724  0.4837
13856TIP3    H263060   0.333   3.615   5.446  0.8321  0.2322 -0.8221
13857TIP3   OH263061   4.668   5.394  10.638  0.5773  0.3134 -0.5922
13857TIP3    H163062   4.680   5.480  10.679  0.3872  0.3511 -0.6130
13857TIP3    H263063   4.631   5.414  10.552  1.8243  0.2878 -1.1630
13858TIP3   OH263064   0.673   2.863  12.792  0.4369 -0.3504  0.7875
13858TIP3    H163065   0.604   2.902  12.845 -1.6239 -1.0361 -1.2427
13858TIP3    H263066   0.651   2.770  12.787  1.1296 -0.4741 -0.4078
13859TIP3   OH263067   0.964   0.049   4.149 -0.2979  0.0493 -0.4515
13859TIP3    H163068   0.880   0.010   4.125  0.3700 -0.4074 -2.2168
13859TIP3    H263069   1.003   0.075   4.065  0.9399  1.0620  0.3985
13860TIP3   OH263070   3.943   4.396  13.602 -0.7532  0.3768 -0.6373
13860TIP3    H163071   3.851   4.386  13.575 -0.7551 -1.4807 -0.1385
13860TIP3    H263072   3.977   4.306  13.600  0.0819  0.5201  2.5165
13861TIP3   OH263073   1.474   3.876   0.270 -0.4596 -0.1057 -0.3374
13861TIP3    H163074   1.403   3.926   0.230  0.4211  1.1540 -0.3890
13861TIP3    H263075   1.483   3.913   0.358  0.7219  0.4309 -0.6490
13862TIP3   OH263076   4.049   0.834   0.086 -0.1774 -0.1876  0.6857
13862TIP3    H163077   4.000   0.826   0.004  2.5610 -0.5878 -1.0458
13862TIP3    H263078   4.035   0.925   0.114 -1.5168 -0.1731  0.0243
13863TIP3   OH263079   0.995   1.916  12.038  0.0090  0.7840 -0.7347
13863TIP3    H163080   1.027   1.986  11.981  0.0356  1.3432 -0.0419
13863TIP3    H263081   0.922   1.956  12.085 -1.5251 -0.3554 -2.0379
13864TIP3   OH263082   5.230   2.251   5.116 -0.0327  0.0108 -0.2061
13864TIP3    H163083   5.217   2.160   5.140 -1.2922  0.0941 -0.5148
13864TIP3    H263084   5.278   2.289   5.189  0.3846 -0.8573 -0.0154
13865TIP3   OH263085   3.471   3.095   5.558 -0.9392  0.0731 -0.5462
13865TIP3    H163086   3.381   3.126   5.551 -1.4462 -1.4641 -1.2557
13865TIP3    H263087   3.468   3.025   5.622  0.1531  1.2587  0.8877
13866TIP3   OH263088   5.075   5.736  13.590 -0.4816  0.1522 -0.0142
13866TIP3    H163089   5.110   5.649  13.570 -1.1435 -0.0762 -0.2009
13866TIP3    H263090   5.152   5.793  13.592  0.8949 -1.2521  5.2010
13867TIP3   OH263091   5.298   2.475   2.280  0.3590  0.8514  0.3174
13867TIP3    H163092   5.352   2.460   2.357 -1.5637 -0.3588  1.4921
13867TIP3    H263093   5.299   2.392   2.232  0.9828  1.3817 -0.6201
13868TIP3   OH263094   5.860   1.768   1.676  0.1065  0.2851 -0.0400
13868TIP3    H163095   5.844   1.773   1.582 -3.9648 -2.2532  0.2691
13868TIP3    H263096   5.910   1.687   1.688 -0.8830 -0.3406  0.0136
13869TIP3   OH263097   4.585   6.565  11.367 -0.2746  0.3903  0.1139
13869TIP3    H163098   4.515   6.626  11.391 -0.3002  1.0725 -1.5878
13869TIP3    H263099   4.662   6.597  11.413 -1.1974 -0.9669  2.8811
13870TIP3   OH263100   0.254   1.625  14.391  0.3259  0.0201  0.1630
13870TIP3    H163101   0.335   1.676  14.388  0.6122 -0.4046  0.5997
13870TIP3    H263102   0.208   1.649  14.311  0.6482  0.6513  0.1635
13871TIP3   OH263103   2.456   6.527  13.141 -0.0625 -0.3327  0.2826
13871TIP3    H163104   2.384   6.539  13.079  0.2089 -1.4988 -0.2807
13871TIP3    H263105   2.424   6.463  13.203  0.3601 -0.6012  0.2294
13872TIP3   OH263106   5.650   1.057   6.156 -0.0898 -0.1481 -0.3435
13872TIP3    H163107   5.679   0.970   6.129  1.5229 -0.2099  1.3537
13872TIP3    H263108   5.709   1.117   6.112 -0.8970  0.0880 -1.1333
13873TIP3   OH263109   0.553   0.109  15.267 -0.9465 -0.9186  0.3185
13873TIP3    H163110   0.459   0.108  15.252 -0.5287  0.4453 -3.3941
13873TIP3    H263111   0.584   0.024  15.235 -0.8662 -1.3567  1.5120
13874TIP3   OH263112   4.841   2.082   3.692  0.5803 -0.0707 -0.2825
13874TIP3    H163113   4.926   2.126   3.700 -0.0422  0.9466  1.4221
13874TIP3    H263114   4.781   2.137   3.743 -0.6767 -1.8499  0.2573
13875TIP3   OH263115   4.739   2.054   1.160 -0.0244  0.1061 -0.2569
13875TIP3    H163116   4.721   1.971   1.117 -2.2575 -1.0113  2.5285
13875TIP3    H263117   4.676   2.116   1.122 -1.2137 -0.5820  0.5379
13876TIP3   OH263118   2.050   3.379   1.702 -0.2862  0.7724  0.0815
13876TIP3    H163119   2.045   3.405   1.794 -0.3159  2.5119 -0.3802
13876TIP3    H263120   1.959   3.361   1.677 -0.1140 -1.3978  0.8046
13877TIP3   OH263121   3.950   6.242   2.359 -0.3212  0.3425  0.1304
13877TIP3    H163122   4.027   6.276   2.404 -0.0239 -1.0003  0.6913
13877TIP3    H263123   3.899   6.199   2.428 -0.2650 -1.0433 -0.6389
13878TIP3   OH263124   5.473   3.069   2.165  0.3852 -0.0866 -0.2111
13878TIP3    H163125   5.447   2.979   2.146  2.0746 -0.6004 -0.3149
13878TIP3    H263126   5.473   3.113   2.080  1.8342 -0.6568 -0.5275
13879TIP3   OH263127   3.913   4.464  17.036 -0.1092  0.1867  0.2258
13879TIP3    H163128   3.869   4.507  16.963  0.1279 -0.0295 -0.0484
13879TIP3    H263129   3.975   4.528  17.069 -1.1789  0.7881  1.1334
13880TIP3   OH263130   3.643   4.056   2.975  0.4046 -0.4498 -0.0867
13880TIP3    H163131   3.580   4.012   3.032 -0.2443  0.0422 -0.4102
13880TIP3    H263132   3.594   4.128   2.936  1.2475  0.1252 -0.1257
13881TIP3   OH263133   6.512   4.127  13.313  0.5918 -0.9615 -0.2159
13881TIP3    H163134   6.418   4.109  13.304  0.8812 -1.9289 -1.7562
13881TIP3    H263135   6.532   4.183  13.238  1.0029  0.4308  0.8981
13882TIP3   OH263136   0.276   4.924   0.594  0.2675  0.5113  0.4015
13882TIP3    H163137   0.237   4.891   0.514 -0.0704  0.2415  0.6773
13882TIP3    H263138   0.309   5.011   0.571 -0.0532  0.5363  0.0423
13883TIP3   OH263139   0.029   1.435   5.493 -0.1780 -0.3433 -0.2745
13883TIP3    H163140   0.008   1.470   5.580  0.2289  0.6311 -0.5468
13883TIP3    H263141   0.125   1.442   5.487 -0.2032 -0.3842 -0.8020
13884TIP3   OH263142   0.560   6.340   1.325 -0.0573 -0.3757 -0.3036
13884TIP3    H163143   0.594   6.422   1.291 -1.8020  0.8890  0.8423
13884TIP3    H263144   0.567   6.347   1.420 -0.8062 -1.2639 -0.1566
13885TIP3   OH263145   4.205   0.425   3.238  0.3770 -0.0539 -0.1381
13885TIP3    H163146   4.262   0.497   3.264  0.1772 -0.7027  2.2599
13885TIP3    H263147   4.120   0.444   3.278 -0.6435 -0.0505 -2.1311
13886TIP3   OH263148   4.938   1.333   5.091  0.2124  0.1656  0.2365
13886TIP3    H163149   4.993   1.320   5.168  0.3916  2.3739  0.5343
13886TIP3    H263150   4.922   1.427   5.087 -1.4862 -0.1072 -1.2806
13887TIP3   OH263151   6.264   2.505   6.142  0.6750  0.1811  0.1989
13887TIP3    H163152   6.227   2.441   6.202  0.8789 -1.4223 -1.2994
13887TIP3    H263153   6.189   2.537   6.092  0.9749 -1.7830 -1.6488
13888TIP3   OH263154   4.052   3.660   0.115  0.5829  0.2770 -0.2453
13888TIP3    H163155   4.018   3.570   0.111  1.5576 -0.2364  1.7351
13888TIP3    H263156   3.975   3.714   0.126 -0.0206 -0.3096 -1.4326
13889TIP3   OH263157   5.098   3.569   5.353  0.0531 -0.2768 -0.4268
13889TIP3    H163158   5.102   3.628   5.278  0.2852  0.4009  0.1105
13889TIP3    H263159   5.189   3.552   5.377 -0.0205  0.2098  0.2359
13890TIP3   OH263160   4.692   5.486   3.785  0.1861 -0.2113 -0.0185
13890TIP3    H163161   4.605   5.497   3.822 -0.0923 -0.4392 -0.5839
13890TIP3    H263162   4.712   5.393   3.799  0.2556 -0.2022 -0.0555
13891TIP3   OH263163   5.212   1.480  12.033  0.9637 -0.1920  0.2746
13891TIP3    H163164   5.212   1.404  12.091 -1.5731  0.8900  1.8703
13891TIP3    H263165   5.297   1.522  12.048  0.5853 -0.2074  2.9262
13892TIP3   OH263166   4.976   2.655   0.735 -0.1399 -0.3548  0.1409
13892TIP3    H163167   5.048   2.650   0.672  0.7006 -0.2699  1.0761
13892TIP3    H263168   5.017   2.686   0.816 -0.9887 -1.5288  1.0471
13893TIP3   OH263169   0.299   4.060   2.080  0.4476  0.2814 -0.3436
13893TIP3    H163170   0.281   4.154   2.087  0.6465  0.2985  0.0195
13893TIP3    H263171   0.213   4.019   2.073  0.3981  0.5599 -1.5088
13894TIP3   OH263172   2.358   4.469   2.120 -0.4889 -0.2578 -0.2437
13894TIP3    H163173   2.320   4.516   2.046 -0.8596 -0.9380 -0.4942
13894TIP3    H263174   2.452   4.470   2.104 -0.4777  0.5381 -0.1556
13895TIP3   OH263175   0.166   0.657  16.507 -0.0874 -0.5162  0.6175
13895TIP3    H163176   0.081   0.622  16.534 -0.4064  0.9206  1.5668
13895TIP3    H263177   0.163   0.749  16.531  1.7114 -0.4127  0.5887
13896TIP3   OH263178   4.878   1.978   5.587 -0.0170  0.0131  0.0408
13896TIP3    H163179   4.783   1.969   5.597 -0.3082  0.9694 -1.4132
13896TIP3    H263180   4.888   2.018   5.500  1.6694  0.9586  0.6413
13897TIP3   OH263181   1.517   2.532   6.182 -0.0588  0.0363  0.2460
13897TIP3    H163182   1.502   2.612   6.132  1.2146  0.7237  0.8880
13897TIP3    H263183   1.586   2.556   6.245 -1.6155 -0.7362  2.3851
13898TIP3   OH263184   1.316   6.560  12.997 -0.0162  0.1160 -0.5704
13898TIP3    H163185   1.298   6.491  13.061 -0.3525  1.3377  0.7234
13898TIP3    H263186   1.282   6.526  12.914 -1.0710 -0.8654  0.2362
13899TIP3   OH263187   0.704   5.614   2.012 -0.6203 -0.3429 -0.0525
13899TIP3    H163188   0.628   5.670   1.996 -1.8966 -1.1359  2.7003
13899TIP3    H263189   0.755   5.660   2.079  1.1056 -0.1177 -1.4207
13900TIP3   OH263190   1.202   6.121   4.737 -0.0738  0.2898  0.0566
13900TIP3    H163191   1.258   6.125   4.815 -0.2260 -0.5555  0.2162
13900TIP3    H263192   1.145   6.046   4.752 -0.2625  0.2613 -0.7676
13901TIP3   OH263193   3.128   6.512   5.031  0.0747 -0.5138 -0.5049
13901TIP3    H163194   3.132   6.501   4.936  1.3556 -1.0437 -0.4081
13901TIP3    H263195   3.143   6.605   5.046  0.2916 -0.4990 -0.8055
13902TIP3   OH263196   1.079   3.650  14.523  0.0179  0.4134 -0.0749
13902TIP3    H163197   1.085   3.555  14.519 -0.4008  0.2808  1.8164
13902TIP3    H263198   1.166   3.679  14.547 -0.4514  0.2992  1.8830
13903TIP3   OH263199   2.135   1.593   1.828  0.3344 -0.0243 -0.3564
13903TIP3    H163200   2.082   1.534   1.882  2.2290 -0.2014  1.4126
13903TIP3    H263201   2.122   1.561   1.738 -0.4983 -1.6707  0.3118
13904TIP3   OH263202   6.383   5.955  17.135 -0.5232  0.2180 -0.6365
13904TIP3    H163203   6.434   5.887  17.179 -1.0824  1.6944  2.5782
13904TIP3    H263204   6.298   5.914  17.118 -0.8245  0.0263  1.1744
13905TIP3   OH263205   2.262   2.458  11.491  0.2667 -0.1633  0.1308
13905TIP3    H163206   2.338   2.493  11.537  0.7818 -1.4744  0.3088
13905TIP3    H263207   2.188   2.481  11.548  0.6160  0.3587  0.3866
13906TIP3   OH263208   5.443   4.068   3.117 -0.2233 -0.1753 -0.3665
13906TIP3    H163209   5.499   4.081   3.040 -0.2200 -1.0924 -0.5221
13906TIP3    H263210   5.388   4.147   3.119  2.0813  1.5157  0.6747
13907TIP3   OH263211   0.533   3.207   2.386 -0.2351 -0.4812 -0.0417
13907TIP3    H163212   0.516   3.287   2.336  2.2960 -0.7779 -1.5145
13907TIP3    H263213   0.488   3.139   2.336 -0.6095 -0.3056  0.0443
13908TIP3   OH263214   0.204   2.966  10.569 -0.3648 -0.2124 -0.3343
13908TIP3    H163215   0.252   3.029  10.622 -0.5783  0.7348 -1.2439
13908TIP3    H263216   0.228   2.881  10.606 -1.4167  0.4309  2.0443
13909TIP3   OH263217   6.518   6.344  12.347  0.7191 -0.7373  0.0822
13909TIP3    H163218   6.423   6.345  12.355  0.7884  0.5000  0.9522
13909TIP3    H263219   6.535   6.350  12.253 -0.0513 -1.3070 -0.1017
13910TIP3   OH263220   6.599   0.222   0.351  0.3653  0.1770  0.0280
13910TIP3    H163221   6.689   0.195   0.332  0.7030  0.5687  1.0350
13910TIP3    H263222   6.561   0.239   0.265  1.0848 -0.5068 -0.4426
13911TIP3   OH263223   1.751   5.992  12.881 -0.2489 -0.0601  0.6599
13911TIP3    H163224   1.805   5.951  12.949 -0.0135 -0.8405  0.0241
13911TIP3    H263225   1.665   5.953  12.893  0.2092 -1.5917 -0.5826
13912TIP3   OH263226   2.501   1.700   6.277 -0.5479  0.2325  0.0797
13912TIP3    H163227   2.518   1.771   6.215  1.8163  1.1504  1.6399
13912TIP3    H263228   2.415   1.721   6.315 -0.6885  1.2521 -0.7555
13913TIP3   OH263229   4.410   6.047   1.946  0.2577  0.0953  0.3487
13913TIP3    H163230   4.444   5.958   1.933  0.1619  0.0135  0.6385
13913TIP3    H263231   4.453   6.077   2.026  1.2053  0.7649 -0.3895
13914TIP3   OH263232   1.438   4.449  14.481  0.3501 -0.1913  0.3834
13914TIP3    H163233   1.383   4.481  14.409  0.8659  1.0542  0.5171
13914TIP3    H263234   1.523   4.492  14.467 -0.2693  2.3558  3.2294
13915TIP3   OH263235   0.764   3.235  15.620 -0.7091  0.2832 -0.0445
13915TIP3    H163236   0.839   3.208  15.672 -0.6220  1.1502  0.2953
13915TIP3    H263237   0.785   3.324  15.591 -1.7671  0.7090  0.4201
13916TIP3   OH263238   3.554   1.589  10.987  0.1842 -0.1303 -0.3915
13916TIP3    H163239   3.553   1.683  10.972 -0.9793  0.1613  1.3037
13916TIP3    H263240   3.593   1.578  11.074  0.5792 -1.2516 -0.6799
13917TIP3   OH263241   0.752   6.315   0.046  0.0003 -0.3344  0.4246
13917TIP3    H163242   0.827   6.281  -0.002  0.3519 -0.0296  0.7567
13917TIP3    H263243   0.789   6.357   0.123 -0.4219  0.7938  0.0407
13918TIP3   OH263244   0.981   6.024  13.067 -0.1262 -0.5891  0.2282
13918TIP3    H163245   0.961   5.959  12.999 -0.6132  0.7299 -0.9579
13918TIP3    H263246   0.965   5.979  13.149  1.1768 -2.4834 -0.4907
13919TIP3   OH263247   2.277   5.112   2.752  0.3385  0.1841  0.3217
13919TIP3    H163248   2.204   5.165   2.783  0.8454  2.3505 -1.8359
13919TIP3    H263249   2.304   5.155   2.670  2.4007 -2.0222 -0.2601
13920TIP3   OH263250   3.882   2.003  13.105  0.3324 -0.5092 -0.0241
13920TIP3    H163251   3.826   2.023  13.180  0.5807 -1.3286  0.3922
13920TIP3    H263252   3.836   1.935  13.057  0.3883 -0.3045 -0.3763
13921TIP3   OH263253   2.919   6.138  13.351 -0.1650  0.3054 -0.0600
13921TIP3    H163254   2.845   6.084  13.378  0.6359 -0.9134 -0.2416
13921TIP3    H263255   2.952   6.176  13.432  0.4102 -0.9775  0.3249
13922TIP3   OH263256   3.350   0.523   1.675 -0.3081  0.3111  0.4016
13922TIP3    H163257   3.409   0.590   1.711  0.8238 -0.7118  0.5263
13922TIP3    H263258   3.270   0.571   1.653  0.8533  1.9317 -0.5776
13923TIP3   OH263259   0.891   6.124  16.495  0.0951  0.4504 -0.5454
13923TIP3    H163260   0.934   6.080  16.422  1.1846 -1.6746  1.2731
13923TIP3    H263261   0.930   6.211  16.496  2.2533 -0.4456 -0.7597
13924TIP3   OH263262   5.399   1.286   6.790  0.0843 -0.2223 -0.0913
13924TIP3    H163263   5.446   1.363   6.821  0.1499 -1.2211  2.5908
13924TIP3    H263264   5.308   1.302   6.813  0.1318 -1.0151  0.6951
13925TIP3   OH263265   1.106   4.812  13.520 -0.0288  0.3964  1.0041
13925TIP3    H163266   1.091   4.782  13.610  1.0405 -0.5979  0.8842
13925TIP3    H263267   1.024   4.854  13.494 -0.5208  0.2692  2.2706
13926TIP3   OH263268   6.051   6.146   2.760  0.6413  0.5216 -0.3258
13926TIP3    H163269   5.969   6.164   2.807 -0.0216 -0.2136 -1.1639
13926TIP3    H263270   6.101   6.091   2.820  0.2105  0.3853 -0.0847
13927TIP3   OH263271   4.911   6.206   1.388 -0.1775 -0.4997 -0.0169
13927TIP3    H163272   4.992   6.235   1.430  0.1060  0.0477 -0.8915
13927TIP3    H263273   4.844   6.215   1.455  0.4756 -0.9265  0.7141
13928TIP3   OH263274   6.457   3.093   5.757 -0.0956  0.0874 -0.2716
13928TIP3    H163275   6.428   3.179   5.727 -0.2021  0.8280  1.7613
13928TIP3    H263276   6.509   3.112   5.835  0.1247 -1.6890  0.0484
13929TIP3   OH263277   2.988   1.220  12.183 -0.3868  0.2951 -0.0299
13929TIP3    H163278   3.030   1.136  12.202 -0.3444  0.4081  0.3811
13929TIP3    H263279   2.933   1.237  12.260 -2.3301 -0.5410 -1.1499
13930TIP3   OH263280   2.748   0.101   6.639  0.0678 -0.1268 -0.1722
13930TIP3    H163281   2.802   0.179   6.624  1.7803 -0.9449  1.3418
13930TIP3    H263282   2.704   0.086   6.555  1.5933  1.0377 -1.2433
13931TIP3   OH263283   2.708   2.113   3.009 -0.0429 -0.6306 -0.6098
13931TIP3    H163284   2.777   2.075   2.956  0.3249  0.1470 -0.7112
13931TIP3    H263285   2.626   2.078   2.973 -0.0517  2.0923 -3.6686
13932TIP3   OH263286   3.273   5.820   2.068  0.0582  0.2296  0.2415
13932TIP3    H163287   3.238   5.736   2.037 -0.7789  0.7305 -0.1924
13932TIP3    H263288   3.362   5.823   2.034  0.5142 -1.0003  1.2405
13933TIP3   OH263289   4.322   3.206  16.566 -0.6271  0.7396  0.2237
13933TIP3    H163290   4.407   3.165  16.549  0.1392  1.5977  1.7277
13933TIP3    H263291   4.260   3.133  16.568  0.0095  0.1260 -1.1397
13934TIP3   OH263292   2.201   6.661   0.949 -0.5314  0.5261 -0.4002
13934TIP3    H163293   2.148   6.592   0.988 -0.4684  0.2597 -0.7889
13934TIP3    H263294   2.271   6.676   1.013 -0.2924 -0.0792 -0.5145
13935TIP3   OH263295   2.810   2.821  15.156 -0.0040  0.3743  0.6214
13935TIP3    H163296   2.828   2.819  15.062 -0.2205 -0.1013  0.5859
13935TIP3    H263297   2.820   2.913  15.180  0.0501  0.5017  0.1322
13936TIP3   OH263298   2.801   4.438   5.484 -0.3539  0.1243  0.1167
13936TIP3    H163299   2.748   4.427   5.562 -0.4231  3.6318  0.7137
13936TIP3    H263300   2.890   4.417   5.512 -0.2819  1.8992  1.3941
13937TIP3   OH263301   6.041   0.522   1.099 -0.3803 -0.5098  0.1289
13937TIP3    H163302   5.982   0.512   1.174 -1.7210  0.7340 -0.7130
13937TIP3    H263303   6.002   0.467   1.031 -0.4208  0.1083 -0.3492
13938TIP3   OH263304   5.346   0.618  12.104  0.1340  0.0403  0.1420
13938TIP3    H163305   5.252   0.605  12.094  0.0503  1.1499 -0.8038
13938TIP3    H263306   5.383   0.530  12.101 -1.0544 -0.7243  3.6019
13939TIP3   OH263307   3.458   0.095   2.051 -0.2090 -0.8441 -0.0871
13939TIP3    H163308   3.426   0.109   2.140 -0.4782  0.6562 -0.4048
13939TIP3    H263309   3.532   0.034   2.062  0.4683  0.1707  1.3046
13940TIP3   OH263310   5.138   5.001  11.868 -0.4114  0.2039  0.0466
13940TIP3    H163311   5.134   5.029  11.960  0.1239  0.2366  0.0633
13940TIP3    H263312   5.059   4.948  11.856 -0.6824  0.5144  0.4185
13941TIP3   OH263313   0.178   4.479   3.229  0.8230 -0.2691 -0.0194
13941TIP3    H163314   0.260   4.439   3.202  0.2422 -1.1951 -0.4602
13941TIP3    H263315   0.202   4.568   3.253  1.7725 -0.1779 -1.1978
13942TIP3   OH263316   3.980   4.808   1.512  0.0440 -0.1230  0.2418
13942TIP3    H163317   3.895   4.789   1.550  0.1868  0.0147  0.6328
13942TIP3    H263318   4.008   4.889   1.555  0.4061 -0.2102  0.1709
13943TIP3   OH263319   1.045   2.169  11.374 -0.3481  0.4300  0.1114
13943TIP3    H163320   0.966   2.141  11.327 -1.4288  2.1880  0.7794
13943TIP3    H263321   1.048   2.112  11.451 -1.3723  0.7784  0.4272
13944TIP3   OH263322   4.671   4.796   5.469 -0.1302 -0.5720  0.6544
13944TIP3    H163323   4.754   4.844   5.476  0.5332 -1.0965 -2.2920
13944TIP3    H263324   4.696   4.708   5.440 -1.6335 -1.3321  1.5278
13945TIP3   OH263325   3.435   3.875  16.732  0.4003 -0.5294 -0.0985
13945TIP3    H163326   3.424   3.969  16.737  0.5670 -0.4928 -0.3768
13945TIP3    H263327   3.459   3.858  16.640 -2.1402 -1.1185 -0.7339
13946TIP3   OH263328   3.550   3.503  12.973 -1.2045  0.0984  0.4136
13946TIP3    H163329   3.567   3.437  13.041  3.2307  0.5451  0.0046
13946TIP3    H263330   3.540   3.585  13.021  0.8795  0.2456  0.6721
13947TIP3   OH263331   4.178   0.898  15.192  0.3460  0.4040  0.5281
13947TIP3    H163332   4.229   0.974  15.163  2.2021 -0.3678  1.5782
13947TIP3    H263333   4.242   0.827  15.200 -0.9601 -0.7375  1.5413
13948TIP3   OH263334   4.532   5.407  13.712  0.5400  0.2087  0.0732
13948TIP3    H163335   4.527   5.439  13.802  1.8717  0.0288  0.2307
13948TIP3    H263336   4.441   5.405  13.682  0.2433  2.4434  0.6434
13949TIP3   OH263337   2.983   0.480  14.686 -0.2972  0.7994 -0.0366
13949TIP3    H163338   3.060   0.529  14.714 -0.0471  1.9247 -2.4765
13949TIP3    H263339   2.941   0.453  14.768  1.4026  2.1618  1.3661
13950TIP3   OH263340   1.444   1.568   1.156 -0.0710  0.1181 -0.0075
13950TIP3    H163341   1.375   1.542   1.217  1.0180  1.3666  1.8389
13950TIP3    H263342   1.396   1.598   1.079 -1.4910 -1.5285  0.1526
13951TIP3   OH263343   6.294   5.433  13.465  0.5166 -0.6255 -0.0507
13951TIP3    H163344   6.240   5.424  13.386 -1.0729  1.5233  0.6886
13951TIP3    H263345   6.263   5.364  13.523 -0.7552 -0.0691 -0.0353
13952TIP3   OH263346   1.918   0.735   1.067  0.4238 -0.1267 -0.4298
13952TIP3    H163347   1.857   0.782   1.122  0.8756  0.8675 -0.7541
13952TIP3    H263348   1.886   0.645   1.066 -0.7133  0.2655 -0.1620
13953TIP3   OH263349   3.987   3.387   0.133 -0.0487 -0.3714  0.4544
13953TIP3    H163350   4.048   3.322   0.098  1.1370  0.6379  0.5779
13953TIP3    H263351   3.903   3.342   0.135  0.3205 -1.2306 -1.4080
13954TIP3   OH263352   5.696   1.381   4.411 -0.7907  0.2294 -0.0031
13954TIP3    H163353   5.658   1.353   4.327  0.0390 -1.0878  0.0365
13954TIP3    H263354   5.708   1.300   4.460  1.2656  0.6792  0.3261
13955TIP3   OH263355   1.710   3.189   4.933 -0.5735 -0.1163 -0.1713
13955TIP3    H163356   1.730   3.101   4.966 -2.2637 -0.8204 -0.8876
13955TIP3    H263357   1.726   3.247   5.007 -1.4187 -1.2833  0.9716
13956TIP3   OH263358   2.607   5.013  13.633  0.3561  0.1777 -0.3515
13956TIP3    H163359   2.660   4.934  13.623 -0.5683 -0.4968 -0.0663
13956TIP3    H263360   2.670   5.082  13.655  1.1560 -0.4977 -0.4760
13957TIP3   OH263361   2.595   1.250  15.747 -0.0667 -0.1076 -0.0864
13957TIP3    H163362   2.557   1.230  15.833  2.1383 -1.0213  0.7463
13957TIP3    H263363   2.645   1.171  15.724  1.5027  1.0814 -0.9635
13958TIP3   OH263364   3.045   0.518  11.542 -0.0090  0.1951 -0.1881
13958TIP3    H163365   3.113   0.516  11.475 -1.8783  0.2233 -2.2298
13958TIP3    H263366   3.040   0.610  11.568  0.3190  0.2958 -0.4687
13959TIP3   OH263367   4.634   5.038   2.472  0.2427 -0.2935  0.2025
13959TIP3    H163368   4.719   5.082   2.475 -0.7177  1.9401 -1.9588
13959TIP3    H263369   4.593   5.058   2.556  1.6010 -0.9913  1.0709
13960TIP3   OH263370   5.520   0.067  16.844  0.3090 -0.1380  0.0444
13960TIP3    H163371   5.564   0.141  16.803  0.0866  1.6565  2.7606
13960TIP3    H263372   5.558  -0.010  16.802  1.9512  1.4511 -1.5781
13961TIP3   OH263373   1.851   0.291  15.146 -0.1996 -0.0376  0.4203
13961TIP3    H163374   1.872   0.334  15.063 -0.3199 -0.0441  0.3853
13961TIP3    H263375   1.934   0.255  15.176 -0.2388 -0.4441  0.0617
13962TIP3   OH263376   5.289   0.723  15.996 -0.4944 -0.0936  0.0931
13962TIP3    H163377   5.246   0.653  16.045 -1.4930 -0.8760 -1.8007
13962TIP3    H263378   5.247   0.803  16.026 -2.0155 -0.6792 -0.3686
13963TIP3   OH263379   4.963   5.053   4.456 -0.3776  0.1868  0.3756
13963TIP3    H163380   5.041   5.023   4.502 -1.1579 -0.3383  1.3924
13963TIP3    H263381   4.926   4.973   4.418  0.2335  0.6069 -1.1661
13964TIP3   OH263382   0.811   4.304  12.179  0.2880 -0.3273  0.0614
13964TIP3    H163383   0.782   4.385  12.220  0.3821 -0.5215  0.5102
13964TIP3    H263384   0.907   4.307  12.186  0.3777  0.0946 -1.0052
13965TIP3   OH263385   5.526   5.362  12.757 -0.0387 -0.4731  0.0704
13965TIP3    H163386   5.544   5.269  12.743 -1.6781 -0.5290 -2.3062
13965TIP3    H263387   5.560   5.405  12.678 -2.3538  0.4429 -0.5192
13966TIP3   OH263388   0.724   0.900   2.817  0.0933 -0.7490 -0.2969
13966TIP3    H163389   0.692   0.839   2.882 -1.9516 -1.7785 -2.1438
13966TIP3    H263390   0.763   0.845   2.749  4.6504  0.3790  1.0789
13967TIP3   OH263391   0.448   5.533  12.908 -0.1085 -0.0577  0.0522
13967TIP3    H163392   0.428   5.537  12.815  0.2333 -0.7981 -0.0543
13967TIP3    H263393   0.389   5.598  12.948 -0.9722 -0.4554 -0.5558
13968TIP3   OH263394   4.944   5.322  14.477 -0.4044 -0.3101 -0.3004
13968TIP3    H163395   4.921   5.288  14.564 -0.8747  0.0110 -0.2983
13968TIP3    H263396   4.942   5.417  14.487  1.6521 -0.2404 -0.1056
13969TIP3   OH263397   6.592   3.270   1.569  0.0980 -0.3456 -0.6743
13969TIP3    H163398   6.655   3.320   1.623  0.7861 -1.2254 -0.6430
13969TIP3    H263399   6.566   3.197   1.625 -0.9835  0.0227 -0.6839
13970TIP3   OH263400   1.731   1.373   2.569 -0.0094 -0.2186 -0.3812
13970TIP3    H163401   1.704   1.282   2.561  1.6253 -1.0772  2.4484
13970TIP3    H263402   1.823   1.369   2.596 -0.1024  2.2316  0.6114
13971TIP3   OH263403   3.401   4.218  13.722  0.0823  0.5663 -0.1265
13971TIP3    H163404   3.351   4.140  13.744  1.6914 -0.5782 -0.3208
13971TIP3    H263405   3.479   4.213  13.778  1.2318  0.8777 -1.6103
13972TIP3   OH263406   6.269   6.795  12.322  0.0901  0.1454 -0.3778
13972TIP3    H163407   6.259   6.834  12.235 -0.0511  0.1345 -0.3668
13972TIP3    H263408   6.364   6.792  12.336  0.0901  1.0238 -0.1387
13973TIP3   OH263409   5.950   4.067  10.455  0.1380 -0.3068  0.2073
13973TIP3    H163410   6.004   4.037  10.382  1.2832 -1.8449  1.6158
13973TIP3    H263411   5.860   4.053  10.426  0.5904 -2.1792 -0.4090
13974TIP3   OH263412   3.640   4.625  11.988 -0.4065  0.3541 -0.8034
13974TIP3    H163413   3.546   4.608  11.992 -0.3898  0.4907  0.8967
13974TIP3    H263414   3.647   4.710  11.944 -0.9417 -0.4214 -2.4712
13975TIP3   OH263415   1.830   3.743   4.867  0.0258  0.1063 -0.3534
13975TIP3    H163416   1.831   3.707   4.955  2.0305  1.5030  0.2774
13975TIP3    H263417   1.837   3.666   4.810  1.1573 -0.7058  0.8150
13976TIP3   OH263418   1.962   0.434   1.741  0.4833 -0.3832 -0.2575
13976TIP3    H163419   1.996   0.442   1.831  1.6936 -1.4673 -0.5822
13976TIP3    H263420   1.891   0.498   1.736 -1.0450 -1.7495  2.1298
13977TIP3   OH263421   2.890   3.787   0.720  0.2059 -0.8554  0.3681
13977TIP3    H163422   2.922   3.828   0.639 -0.4661 -1.6343 -0.3143
13977TIP3    H263423   2.848   3.858   0.768  0.2293 -0.4691 -0.1726
13978TIP3   OH263424   2.728   1.345  14.942 -0.6013 -0.2302 -0.7320
13978TIP3    H163425   2.743   1.417  14.881 -0.9062 -1.0309 -1.7807
13978TIP3    H263426   2.637   1.355  14.970 -0.6294 -0.1814 -0.8403
13979TIP3   OH263427   0.158   4.377  11.981 -0.1741  0.6943 -0.6472
13979TIP3    H163428   0.197   4.338  11.903 -0.1783 -1.9927  0.5976
13979TIP3    H263429   0.232   4.415  12.028  0.1529  0.3482 -0.8790
13980TIP3   OH263430   4.148   3.477  14.365 -0.0421 -0.1481  0.8087
13980TIP3    H163431   4.142   3.484  14.269  0.0384 -1.7616  0.6657
13980TIP3    H263432   4.242   3.470  14.382 -0.0567  0.1420  1.0225
13981TIP3   OH263433   2.135   4.536   5.917  0.4591 -0.3184  0.0666
13981TIP3    H163434   2.212   4.591   5.904  0.2432  0.3745  1.4934
13981TIP3    H263435   2.107   4.512   5.829  1.8079  0.1183 -0.4963
13982TIP3   OH263436   0.601   1.344   1.470 -0.1529  0.4095 -0.0641
13982TIP3    H163437   0.624   1.330   1.378  1.4032 -0.3505  0.4132
13982TIP3    H263438   0.578   1.437   1.475 -0.5028  0.4058 -1.2532
13983TIP3   OH263439   6.448   1.304   6.553 -0.4648  0.5372 -0.7249
13983TIP3    H163440   6.535   1.332   6.580 -0.6505  1.6259 -1.1705
13983TIP3    H263441   6.419   1.373   6.493 -0.6794 -0.9856 -2.4550
13984TIP3   OH263442   6.568   6.215  11.758  0.3148 -0.6214 -0.4549
13984TIP3    H163443   6.609   6.138  11.798  1.7471 -0.9181 -2.3476
13984TIP3    H263444   6.477   6.190  11.745  0.8435 -2.1790 -1.4144
13985TIP3   OH263445   4.093   4.794   0.475 -0.3082  0.0561 -0.1402
13985TIP3    H163446   4.184   4.810   0.452 -0.2461 -0.4389 -0.2442
13985TIP3    H263447   4.043   4.828   0.401 -0.1889  0.0372 -0.2293
13986TIP3   OH263448   2.036   3.748   2.300 -0.6266 -0.5209 -0.2662
13986TIP3    H163449   2.014   3.832   2.341 -0.6176 -1.8404  2.6493
13986TIP3    H263450   2.131   3.749   2.291 -0.5946 -0.3676  0.0971
13987TIP3   OH263451   2.505   6.120   5.330 -0.1101 -0.4331 -0.4540
13987TIP3    H163452   2.448   6.197   5.336  0.5485 -0.0483  1.9117
13987TIP3    H263453   2.565   6.141   5.258 -0.1730  1.1341 -0.0912
13988TIP3   OH263454   4.357   6.587   2.040 -0.3129 -0.1801 -0.0179
13988TIP3    H163455   4.384   6.509   2.087 -2.2354 -1.3377 -0.7255
13988TIP3    H263456   4.293   6.629   2.099 -1.0359 -0.4240 -0.6163
13989TIP3   OH263457   5.688   4.745  13.657  0.5597  0.3267  0.0911
13989TIP3    H163458   5.754   4.730  13.725  1.0115 -0.5010 -0.5089
13989TIP3    H263459   5.738   4.776  13.582  0.3679 -1.0442 -0.6151
13990TIP3   OH263460   3.842   6.812  15.629  0.7823  0.5902 -0.5887
13990TIP3    H163461   3.888   6.784  15.708  1.6873 -1.7592 -1.8464
13990TIP3    H263462   3.887   6.892  15.602  0.8090  1.1282  0.9439
13991TIP3   OH263463   1.680   3.556  11.222  0.1682  0.0763  0.1619
13991TIP3    H163464   1.672   3.623  11.290  0.5620 -1.9146  2.3206
13991TIP3    H263465   1.620   3.584  11.154 -1.5398  1.3625  2.0608
13992TIP3   OH263466   6.779   2.128   3.579 -0.4481  0.2639 -0.2677
13992TIP3    H163467   6.783   2.073   3.501 -1.7324 -1.1465  0.5823
13992TIP3    H263468   6.686   2.149   3.588 -0.3024  0.5076  0.8062
13993TIP3   OH263469   6.749   5.834  16.803 -0.1623 -0.1184 -0.0656
13993TIP3    H163470   6.685   5.768  16.829 -1.7400  1.2718 -0.1996
13993TIP3    H263471   6.770   5.813  16.712 -0.3241 -0.6705  0.0223
13994TIP3   OH263472   6.583   4.686   1.204  0.0931  0.4564 -0.5179
13994TIP3    H163473   6.672   4.657   1.223 -0.0100 -0.2478 -1.0506
13994TIP3    H263474   6.584   4.704   1.110 -0.2791  0.6231 -0.4910
13995TIP3   OH263475   4.713   4.040  15.676  0.1279  0.0340  0.0799
13995TIP3    H163476   4.630   4.015  15.635  0.3858  1.0089 -1.0915
13995TIP3    H263477   4.775   3.972  15.647 -0.0271 -0.1282  0.1258
13996TIP3   OH263478   0.073   3.692  15.049  0.4485  0.7329  0.1151
13996TIP3    H163479   0.154   3.640  15.047  0.4865  0.8055 -0.5426
13996TIP3    H263480   0.087   3.759  14.981  0.1845  1.2748  0.5875
13997TIP3   OH263481   6.041   5.284  13.097 -1.0085  0.4705 -0.2597
13997TIP3    H163482   6.129   5.305  13.065 -0.8942  0.5659  0.1075
13997TIP3    H263483   5.982   5.322  13.032 -0.8278  2.5635  0.7113
13998TIP3   OH263484   4.349   4.029  12.988  0.4392  0.2448  0.0341
13998TIP3    H163485   4.303   4.095  13.040 -0.2739 -0.0827 -0.1844
13998TIP3    H263486   4.307   3.946  13.010  1.2813 -0.1366  0.2422
13999TIP3   OH263487   1.956   4.448   6.350 -0.1965 -0.2429  0.0896
13999TIP3    H163488   1.990   4.377   6.405 -0.8657 -1.2803 -0.8102
13999TIP3    H263489   1.863   4.429   6.341 -0.2784  0.4460 -0.6226
14000TIP3   OH263490   1.749   5.721  14.318 -0.1853 -0.0048  0.7518
14000TIP3    H163491   1.832   5.722  14.269  0.9302 -0.8592  2.4910
14000TIP3    H263492   1.748   5.635  14.359 -1.1606  0.6076  2.0527
14001TIP3   OH263493   5.301   0.804   3.691 -0.0480  0.3199 -0.7625
14001TIP3    H163494   5.255   0.764   3.765  2.4766 -0.8515  0.2754
14001TIP3    H263495   5.274   0.896   3.693 -0.4107  0.2131  1.3429
14002TIP3   OH263496   1.115   4.020  14.236 -0.2975  0.5755 -0.0804
14002TIP3    H163497   1.050   4.087  14.211 -0.3836 -0.0160 -1.5299
14002TIP3    H263498   1.199   4.064  14.225 -0.2524 -0.0548 -2.9019
14003TIP3   OH263499   0.554   6.799   3.586 -0.0819  0.1871  0.1334
14003TIP3    H163500   0.638   6.842   3.565 -0.8493  2.4025  1.2994
14003TIP3    H263501   0.569   6.758   3.671  0.1565 -0.4430 -0.2079
14004TIP3   OH263502   4.265   0.038  12.380  0.0704 -0.2118 -0.0758
14004TIP3    H163503   4.178   0.058  12.415 -0.6230 -0.7419 -1.4334
14004TIP3    H263504   4.290   0.117  12.332  0.8508  0.3636  1.2136
14005TIP3   OH263505   2.452   6.713   0.691 -0.1958  0.0805  0.2376
14005TIP3    H163506   2.400   6.788   0.719  0.8053  1.4068 -1.2615
14005TIP3    H263507   2.502   6.688   0.768 -0.7625  0.7873  0.8431
14006TIP3   OH263508   1.681   2.793   1.230  0.3722 -0.0233  0.6274
14006TIP3    H163509   1.604   2.830   1.187  0.8598  1.2145  0.7784
14006TIP3    H263510   1.743   2.777   1.159 -0.2754 -1.7564  0.4037
14007TIP3   OH263511   6.194   3.922   3.977 -0.0188  0.7298 -0.9289
14007TIP3    H163512   6.205   3.840   3.929 -1.5912  0.0796 -0.2532
14007TIP3    H263513   6.250   3.985   3.932  0.8855 -0.6137 -1.7193
14008TIP3   OH263514   2.283   2.473   0.751 -0.3339  0.1114 -0.3993
14008TIP3    H163515   2.338   2.415   0.804 -0.6405 -0.6660 -0.9170
14008TIP3    H263516   2.205   2.487   0.805  0.5896  1.7203  0.6081
14009TIP3   OH263517   0.098   1.733   6.109 -0.6073  0.0103 -0.6981
14009TIP3    H163518   0.126   1.824   6.110 -0.4458 -0.0207  0.9015
14009TIP3    H263519   0.002   1.738   6.113 -0.5687  0.1451  0.6439
14010TIP3   OH263520   0.824   0.076  12.043 -0.2910  0.0377  0.0898
14010TIP3    H163521   0.815   0.104  12.134  0.5037  0.6117 -0.0067
14010TIP3    H263522   0.892   0.008  12.045 -0.4195 -0.0971 -0.0483
14011TIP3   OH263523   3.151   3.102  13.619  0.2774  0.1367 -1.1567
14011TIP3    H163524   3.073   3.118  13.671  1.0560  1.8175 -0.4023
14011TIP3    H263525   3.222   3.100  13.683  1.3556  2.9393 -2.0949
14012TIP3   OH263526   6.048   0.452  12.701  0.6711  0.6092  0.6191
14012TIP3    H163527   5.964   0.481  12.737 -0.7108 -0.5561 -1.5109
14012TIP3    H263528   6.075   0.522  12.642  0.8928  0.6877  0.8093
14013TIP3   OH263529   1.452   6.211  16.485  0.5916 -0.4549  0.0729
14013TIP3    H163530   1.460   6.117  16.469 -0.7936 -0.8494  1.4770
14013TIP3    H263531   1.358   6.226  16.494  0.6853  1.2908 -1.2918
14014TIP3   OH263532   3.991   4.276   5.086  0.2812  0.1229 -0.1901
14014TIP3    H163533   4.008   4.300   4.995  0.8527  2.4028  0.4270
14014TIP3    H263534   4.008   4.357   5.135 -0.0530 -1.0187  1.9390
14015TIP3   OH263535   5.555   4.309  15.190  0.0070  0.0461 -0.1425
14015TIP3    H163536   5.522   4.324  15.101 -0.5242 -1.1064 -0.1512
14015TIP3    H263537   5.478   4.322  15.245 -0.0363 -0.8134  0.0040
14016TIP3   OH263538   5.804   3.203  14.403 -0.1829 -0.6013  0.0795
14016TIP3    H163539   5.763   3.123  14.433 -0.6480 -0.6438 -0.6378
14016TIP3    H263540   5.891   3.203  14.444 -1.2519  0.0321  2.4759
14017TIP3   OH263541   6.030   2.580   6.021  0.4575 -0.9202  0.3287
14017TIP3    H163542   5.987   2.601   6.104  0.2642  2.7285 -0.5343
14017TIP3    H263543   5.975   2.511   5.983 -1.1170 -0.6423  1.9528
14018TIP3   OH263544   3.607   0.895  16.936  0.3805  0.0845 -0.4818
14018TIP3    H163545   3.552   0.918  17.011 -0.7723  2.6196 -1.9414
14018TIP3    H263546   3.564   0.818  16.898 -1.1400  0.8958 -0.5069
14019TIP3   OH263547   1.254   5.153  10.979  0.4567 -0.2091 -0.4155
14019TIP3    H163548   1.332   5.196  11.014 -0.1073  0.4170  0.0901
14019TIP3    H263549   1.249   5.184  10.888 -0.5782  1.7823  0.2503
14020TIP3   OH263550   3.179   0.428   2.116 -0.1545  0.2873  0.0684
14020TIP3    H163551   3.113   0.471   2.063 -1.0846 -0.2513  0.7524
14020TIP3    H263552   3.156   0.335   2.113  0.4084  0.1229  0.5366
14021TIP3   OH263553   1.998   6.112   0.761  0.0350 -0.2522 -0.4552
14021TIP3    H163554   1.943   6.054   0.707 -0.3840 -0.2047 -0.0855
14021TIP3    H263555   2.065   6.055   0.797 -1.1483 -0.8048  0.9856
14022TIP3   OH263556   6.235   5.686   2.348 -0.0957  0.1899  0.0288
14022TIP3    H163557   6.184   5.706   2.427  0.2356 -0.9586  0.5629
14022TIP3    H263558   6.223   5.762   2.291 -1.1972  0.5816  0.7527
14023TIP3   OH263559   3.983   2.713   5.392  0.5260 -0.0341  0.3098
14023TIP3    H163560   3.925   2.754   5.455  0.1531  0.3870 -0.2945
14023TIP3    H263561   4.019   2.785   5.341  0.8138 -0.3663  0.0338
14024TIP3   OH263562   5.042   0.897  14.463  0.1680  0.6547 -0.2886
14024TIP3    H163563   5.110   0.836  14.433 -1.3550 -0.4866 -1.6558
14024TIP3    H263564   5.081   0.983  14.456  2.8756 -0.1175  2.9539
14025TIP3   OH263565   3.540   1.478   2.566 -0.0207 -0.0220  0.1531
14025TIP3    H163566   3.530   1.417   2.494 -1.0812  0.2873  0.0191
14025TIP3    H263567   3.455   1.478   2.610  0.5602 -0.0971  1.3188
14026TIP3   OH263568   5.885   3.151   0.099  0.2512 -0.4479 -0.1171
14026TIP3    H163569   5.913   3.211   0.029 -0.3174  0.3678  0.3324
14026TIP3    H263570   5.790   3.155   0.096  0.2216 -0.7730  0.4073
14027TIP3   OH263571   5.938   6.005  15.533  0.3742 -0.7867 -0.1947
14027TIP3    H163572   5.978   6.088  15.510 -0.8311 -0.3667 -0.8685
14027TIP3    H263573   5.933   5.957  15.450 -0.4050 -0.8652 -0.1110
14028TIP3   OH263574   0.590   2.151  17.200 -0.5460 -0.0359  0.0215
14028TIP3    H163575   0.633   2.101  17.131 -0.7704 -0.3618  0.1161
14028TIP3    H263576   0.662   2.195  17.246 -0.2579 -0.9739  0.4943
14029TIP3   OH263577   4.914   5.474   1.513  0.2647  0.0858 -0.2524
14029TIP3    H163578   4.992   5.435   1.552  1.3163  1.6755 -0.6605
14029TIP3    H263579   4.916   5.445   1.422 -0.4343 -1.0401  0.0785
14030TIP3   OH263580   1.490   6.369  11.577 -0.0835 -0.2278  0.0427
14030TIP3    H163581   1.574   6.349  11.537  0.5466 -0.7986  1.5809
14030TIP3    H263582   1.433   6.296  11.550 -0.2151  0.3460 -1.2928
14031TIP3   OH263583   0.039   1.363   0.223  0.1472  0.1386 -0.5118
14031TIP3    H163584   0.029   1.315   0.305  1.9028  0.2594 -0.1970
14031TIP3    H263585   0.012   1.301   0.155  2.7333 -1.5228 -0.1530
14032TIP3   OH263586   1.757   4.238  13.771 -0.1504 -0.0783  0.3455
14032TIP3    H163587   1.850   4.238  13.794 -0.1316  0.9412  0.3252
14032TIP3    H263588   1.743   4.322  13.726 -0.7167 -0.9511 -1.1846
14033TIP3   OH263589   0.233   0.531   2.379 -0.4957 -0.2722  0.0707
14033TIP3    H163590   0.221   0.436   2.386  0.8319 -0.5523 -0.9464
14033TIP3    H263591   0.211   0.565   2.465 -1.9778 -1.3830  0.1680
14034TIP3   OH263592   1.135   0.663  17.002  0.0892  0.4279  0.3740
14034TIP3    H163593   1.161   0.745  17.043  1.7417 -0.7553  1.8216
14034TIP3    H263594   1.040   0.669  16.995  0.1420  2.3146  0.7177
14035TIP3   OH263595   4.180   4.517  15.624  0.4781 -0.0706 -0.7089
14035TIP3    H163596   4.152   4.538  15.535 -1.0308 -0.1884 -0.2805
14035TIP3    H263597   4.121   4.447  15.653  0.7939  0.1144  0.4578
14036TIP3   OH263598   4.602   6.764   1.123  0.2311  0.2928 -0.2128
14036TIP3    H163599   4.508   6.758   1.108 -0.1333  2.0020  1.1551
14036TIP3    H263600   4.637   6.797   1.040 -0.1723 -1.3558 -1.1022
14037TIP3   OH263601   1.982   2.587  11.286  0.6579 -0.0301 -0.1880
14037TIP3    H163602   1.978   2.616  11.377  1.1253  0.8279 -0.4265
14037TIP3    H263603   2.031   2.505  11.288  2.0582  0.7923  0.1578
14038TIP3   OH263604   5.831   2.255  17.112 -0.4560  0.2311  0.3490
14038TIP3    H163605   5.774   2.178  17.117 -0.6818  0.3700 -0.0411
14038TIP3    H263606   5.879   2.255  17.195  0.5252 -1.0926 -0.1740
14039TIP3   OH263607   4.388   6.049  13.935 -0.3856  0.0921 -0.1592
14039TIP3    H163608   4.370   6.125  13.991  1.2214  1.1055 -0.9211
14039TIP3    H263609   4.439   6.085  13.862 -0.2258 -1.6134 -0.9342
14040TIP3   OH263610   1.571   0.924  14.104 -0.8385  0.3721 -0.0385
14040TIP3    H163611   1.526   0.917  14.019 -1.7902 -1.7268  0.5929
14040TIP3    H263612   1.511   0.975  14.158 -1.2507 -0.1530  0.0085
14041TIP3   OH263613   5.538   0.915   5.770  0.4581  0.4784 -0.1435
14041TIP3    H163614   5.489   0.955   5.842 -1.2167  1.4856 -1.7298
14041TIP3    H263615   5.543   0.822   5.792  0.5345  0.8508  1.5349
14042TIP3   OH263616   4.414   2.883  15.278 -0.2682  0.1857  0.5401
14042TIP3    H163617   4.375   2.966  15.307 -0.7494  0.5147 -0.9931
14042TIP3    H263618   4.431   2.896  15.185 -0.2148 -1.3987  0.3124
14043TIP3   OH263619   4.749   5.185  10.792  0.2552 -0.2499 -0.1555
14043TIP3    H163620   4.669   5.134  10.779  0.9312 -1.2519 -0.5972
14043TIP3    H263621   4.729   5.272  10.758 -0.6852 -0.4467 -0.1274
14044TIP3   OH263622   5.943   1.277   1.765  0.6794 -0.7679  0.0108
14044TIP3    H163623   5.888   1.331   1.822  0.3192 -2.1324  1.0169
14044TIP3    H263624   5.968   1.203   1.820  1.7492 -1.2580 -1.1061
14045TIP3   OH263625   6.833   0.193   2.735 -0.2435  0.8873  0.2351
14045TIP3    H163626   6.756   0.206   2.679 -0.5082  0.6377  0.5333
14045TIP3    H263627   6.823   0.103   2.767  0.5851  0.5803 -0.3380
14046TIP3   OH263628   1.459   0.365  12.960  0.1243 -0.5924 -0.3391
14046TIP3    H163629   1.374   0.330  12.933 -0.8967  2.5360 -1.5166
14046TIP3    H263630   1.442   0.403  13.046  0.4758 -0.4150 -0.3509
14047TIP3   OH263631   3.658   5.444  14.636  0.0592 -0.4792  0.6978
14047TIP3    H163632   3.691   5.531  14.618 -0.9857 -0.4043 -1.1193
14047TIP3    H263633   3.701   5.418  14.718  2.9173  0.3968 -0.4176
14048TIP3   OH263634   4.092   6.040   3.892 -0.3177  0.3553  0.4171
14048TIP3    H163635   4.177   6.014   3.858 -0.8869 -0.2409 -0.6052
14048TIP3    H263636   4.041   5.958   3.894 -0.4753  0.4473  2.2483
14049TIP3   OH263637   0.828   0.769   6.437  0.0537  0.4240 -0.5475
14049TIP3    H163638   0.806   0.843   6.492  0.2004  0.4722 -0.5521
14049TIP3    H263639   0.906   0.797   6.388 -1.1973  1.1352 -2.2422
14050TIP3   OH263640   4.440   1.200  10.773 -0.5974  0.4865  0.2482
14050TIP3    H163641   4.394   1.257  10.712  0.5534  0.5540 -0.5866
14050TIP3    H263642   4.521   1.247  10.794  0.6828 -1.0651 -0.9406
14051TIP3   OH263643   6.633   1.140  11.869 -0.4641  0.1337 -0.4119
14051TIP3    H163644   6.586   1.067  11.909  0.7379  0.0674  0.9421
14051TIP3    H263645   6.711   1.101  11.830  0.0706  0.6496  0.1158
14052TIP3   OH263646   5.709   0.844   2.762 -0.2283 -0.1108 -0.6737
14052TIP3    H163647   5.638   0.781   2.771 -1.8159  1.2251 -2.7249
14052TIP3    H263648   5.715   0.886   2.848 -3.0614  0.8103 -0.8174
14053TIP3   OH263649   5.182   5.433   5.551  0.3366 -0.2801  0.4526
14053TIP3    H163650   5.227   5.434   5.466 -0.3567  1.4794  0.0771
14053TIP3    H263651   5.226   5.499   5.603 -0.0821 -0.4440  1.0255
14054TIP3   OH263652   2.802   1.693  15.873 -0.4049  0.1838  0.2796
14054TIP3    H163653   2.737   1.624  15.883  0.5912 -0.6142  1.5833
14054TIP3    H263654   2.812   1.704  15.779 -1.3247 -0.7164  0.0622
14055TIP3   OH263655   5.256   0.457   5.616  0.3251 -0.3358 -0.5470
14055TIP3    H163656   5.277   0.372   5.656  0.3050 -0.1784 -0.1994
14055TIP3    H263657   5.262   0.441   5.522  0.5522 -0.6666 -0.4797
14056TIP3   OH263658   4.044   4.294   0.653  0.1045 -0.3580 -0.0198
14056TIP3    H163659   4.090   4.213   0.673  0.3598  0.1480  1.5541
14056TIP3    H263660   4.108   4.363   0.671 -0.7253  0.2789  0.5727
14057TIP3   OH263661   1.858   0.135  12.136 -0.0892 -0.1691 -0.2065
14057TIP3    H163662   1.917   0.191  12.187 -1.6668  1.0574  0.3516
14057TIP3    H263663   1.900   0.049  12.137  0.9937  0.3283  1.3424
14058TIP3   OH263664   2.483   6.733  11.809  0.6666 -0.3329 -0.1724
14058TIP3    H163665   2.520   6.649  11.835  3.8246  0.9695 -0.0338
14058TIP3    H263666   2.556   6.795  11.815 -1.3614  2.3314 -0.8555
14059TIP3   OH263667   5.369   1.801  17.104 -0.3456  0.1533  0.0323
14059TIP3    H163668   5.311   1.862  17.151 -1.9301 -0.6328 -0.8378
14059TIP3    H263669   5.344   1.715  17.136  0.9353 -0.1612  0.2386
14060TIP3   OH263670   2.206   5.361  12.893  0.4143  0.2957  0.3173
14060TIP3    H163671   2.165   5.395  12.813 -0.1049  0.6764  0.7433
14060TIP3    H263672   2.294   5.334  12.864  0.6797  1.5443 -0.1458
14061TIP3   OH263673   0.343   1.547   1.591  0.0360 -0.1526 -0.1876
14061TIP3    H163674   0.295   1.547   1.508  0.8257 -0.7877 -0.6587
14061TIP3    H263675   0.315   1.467   1.635  1.7410 -1.3308 -1.1349
14062TIP3   OH263676   4.015   4.053  13.319 -0.8125  0.9565 -0.0692
14062TIP3    H163677   3.926   4.082  13.299 -0.1502  2.0271 -1.7248
14062TIP3    H263678   4.070   4.101  13.257  0.7062 -1.4166 -0.7089
14063TIP3   OH263679   3.926   1.246   5.474 -0.8880  0.3869  0.3256
14063TIP3    H163680   3.986   1.308   5.515 -1.1017 -0.0798  1.3724
14063TIP3    H263681   3.943   1.163   5.517  1.1369 -0.9572 -2.7313
14064TIP3   OH263682   5.951   6.551  13.235 -0.1199 -0.2156  0.5533
14064TIP3    H163683   5.966   6.483  13.169 -1.1861 -1.3446  1.4264
14064TIP3    H263684   6.028   6.547  13.291 -0.5468 -1.3200  1.0920
14065TIP3   OH263685   1.014   5.061  10.718 -0.1575  0.0113 -0.1589
14065TIP3    H163686   1.062   5.142  10.735 -1.4183  0.9940 -1.0653
14065TIP3    H263687   1.082   4.995  10.705  0.8981  0.4814  2.3540
14066TIP3   OH263688   4.855   1.552   0.424 -0.0220  0.1887  0.3588
14066TIP3    H163689   4.924   1.533   0.359  0.9375  3.5635  0.2362
14066TIP3    H263690   4.804   1.622   0.384 -0.8015  0.7839  2.3098
14067TIP3   OH263691   3.515   4.960  14.620  0.1758 -0.1601 -0.1279
14067TIP3    H163692   3.526   4.938  14.527  0.7499 -1.3432  0.2006
14067TIP3    H263693   3.605   4.966  14.654 -0.0284 -1.5262  0.7331
14068TIP3   OH263694   4.474   4.326  14.779 -0.0244 -0.5567  0.3990
14068TIP3    H163695   4.407   4.326  14.847 -0.6630  1.4290 -0.1701
14068TIP3    H263696   4.557   4.324  14.827 -0.4566 -0.8951  1.1594
14069TIP3   OH263697   6.132   1.535  16.360 -0.1298  0.1223 -0.0046
14069TIP3    H163698   6.138   1.445  16.330  2.8002  0.9657 -2.5032
14069TIP3    H263699   6.221   1.559  16.384 -0.0895  3.2186 -2.5667
14070TIP3   OH263700   1.495   6.477  10.830  0.2469 -0.2954  0.4970
14070TIP3    H163701   1.557   6.429  10.776 -0.2729  1.4325 -1.8202
14070TIP3    H263702   1.417   6.422  10.833  1.7687 -2.5579  3.5692
14071TIP3   OH263703   3.080   5.528   4.531  0.0885 -0.2258  0.4913
14071TIP3    H163704   2.992   5.557   4.505  0.6841  1.4860  0.2795
14071TIP3    H263705   3.105   5.465   4.463 -0.4755  0.2365 -0.1617
14072TIP3   OH263706   0.504   4.076   6.955  0.2216  0.4440  0.4250
14072TIP3    H163707   0.465   3.990   6.969  1.4478 -0.0125  1.2751
14072TIP3    H263708   0.430   4.137   6.954 -0.6576 -0.6091 -0.1256
14073TIP3   OH263709   4.730   6.812  14.952 -0.2142 -0.3485 -0.1304
14073TIP3    H163710   4.642   6.780  14.929 -1.0695  1.5056  0.3529
14073TIP3    H263711   4.780   6.805  14.871 -0.9261 -1.0304 -0.5292
14074TIP3   OH263712   2.074   3.988  11.352  0.2417 -0.3409 -0.0337
14074TIP3    H163713   2.068   4.013  11.260  0.0319 -0.5659 -0.0809
14074TIP3    H263714   2.003   3.926  11.365  0.4639 -0.5458  0.2050
14075TIP3   OH263715   1.792   3.112  16.135  0.0380  0.2854 -0.5857
14075TIP3    H163716   1.837   3.196  16.124  0.3354  0.2831  0.4734
14075TIP3    H263717   1.819   3.060  16.060  0.2539  0.9704 -0.9894
14076TIP3   OH263718   4.461   1.240  14.234  0.2013 -0.5263 -0.0798
14076TIP3    H163719   4.490   1.242  14.325 -0.6559  0.4445  0.1853
14076TIP3    H263720   4.384   1.183  14.235 -0.5096  0.4140  0.0339
14077TIP3   OH263721   4.056   0.466   4.779 -0.1709  0.5099 -0.0240
14077TIP3    H163722   4.103   0.484   4.698 -0.4161  1.0785 -0.0469
14077TIP3    H263723   4.002   0.544   4.793 -0.1442  0.4095  0.6704
14078TIP3   OH263724   3.818   2.963   1.806  0.1289 -0.3389 -0.1971
14078TIP3    H163725   3.849   3.051   1.784 -0.1036 -0.3666 -0.6466
14078TIP3    H263726   3.723   2.971   1.812  0.0470 -0.6915 -0.8862
14079TIP3   OH263727   4.442   0.615  14.199  0.7145 -0.4505  0.0881
14079TIP3    H163728   4.475   0.663  14.275 -1.4317 -0.0740  0.8372
14079TIP3    H263729   4.418   0.529  14.233 -1.5365  0.1622  0.2227
14080TIP3   OH263730   1.957   0.838   3.588  0.2591  0.3939  0.1474
14080TIP3    H163731   2.000   0.880   3.513 -0.5554  1.8364  0.4446
14080TIP3    H263732   1.907   0.766   3.551  1.8544 -0.4896 -0.3673
14081TIP3   OH263733   3.691   3.682   2.543 -0.1509  0.0597 -0.5025
14081TIP3    H163734   3.688   3.766   2.589 -0.2032  0.4234 -1.1453
14081TIP3    H263735   3.784   3.662   2.536 -0.1718 -1.1491  1.7443
14082TIP3   OH263736   4.293   5.235   3.552 -0.0429  0.2816 -0.7639
14082TIP3    H163737   4.235   5.271   3.485 -0.5787 -0.8957 -0.9733
14082TIP3    H263738   4.239   5.228   3.630 -0.1530 -0.6170 -0.9001
14083TIP3   OH263739   2.369   4.999   5.053  0.0467 -0.3128 -0.4425
14083TIP3    H163740   2.303   4.935   5.025  0.6612 -0.5337 -1.4265
14083TIP3    H263741   2.367   5.066   4.984  1.0178 -0.4510 -0.6162
14084TIP3   OH263742   2.535   6.796  16.822 -0.0850 -0.4321  0.0962
14084TIP3    H163743   2.601   6.864  16.812 -0.5632 -0.1231 -1.1080
14084TIP3    H263744   2.508   6.802  16.913  1.7728 -0.7842  0.7159
14085TIP3   OH263745   1.373   1.823  14.495 -0.3154  0.3104  0.1805
14085TIP3    H163746   1.451   1.865  14.530 -0.3887  1.3773 -0.8498
14085TIP3    H263747   1.397   1.731  14.484 -0.1070  0.0393  2.3986
14086TIP3   OH263748   3.329   2.609   6.152 -0.3188  0.3318  0.1607
14086TIP3    H163749   3.244   2.626   6.112 -0.3757  1.2480  0.6309
14086TIP3    H263750   3.339   2.514   6.150 -2.2637  0.0109  1.8817
14087TIP3   OH263751   0.647   3.592  12.740 -0.4993  0.4981  0.0273
14087TIP3    H163752   0.637   3.525  12.808 -0.9448  1.9235  1.4343
14087TIP3    H263753   0.690   3.546  12.667  1.4646 -0.7111  1.8435
14088TIP3   OH263754   1.508   2.167   5.203 -0.0496  0.1868  0.2591
14088TIP3    H163755   1.603   2.163   5.220  0.0901  1.7076  0.0143
14088TIP3    H263756   1.495   2.112   5.127  0.4894 -0.7807  0.8422
14089TIP3   OH263757   6.408   5.781  14.977 -0.0856  0.0939  0.2117
14089TIP3    H163758   6.384   5.852  15.035 -1.6105 -0.4572  0.2885
14089TIP3    H263759   6.487   5.744  15.016  0.0953  1.0395  0.7692
14090TIP3   OH263760   6.316   1.256  13.169  0.7608 -0.8114 -0.0401
14090TIP3    H163761   6.292   1.318  13.100 -1.5719 -0.4686  0.9903
14090TIP3    H263762   6.321   1.309  13.248  1.0432 -1.5661  0.4579
14091TIP3   OH263763   5.968   1.933  16.655 -0.3092 -0.1489  0.2263
14091TIP3    H163764   5.926   1.877  16.590 -0.4323 -1.0728  1.0839
14091TIP3    H263765   6.014   1.999  16.603 -0.1338 -1.0490 -0.8085
14092TIP3   OH263766   6.462   5.274  11.192  0.3614  0.2315 -0.1034
14092TIP3    H163767   6.505   5.323  11.122  1.3443 -1.2746 -0.5983
14092TIP3    H263768   6.527   5.268  11.261  0.2418 -0.3407 -0.0355
14093TIP3   OH263769   3.210   4.649   3.429  0.4431 -0.6960  0.0714
14093TIP3    H163770   3.134   4.680   3.479 -0.6967 -0.3217 -1.7926
14093TIP3    H263771   3.247   4.578   3.482 -3.2485 -3.2598 -0.4508
14094TIP3   OH263772   5.309   2.423   6.134  0.0511 -0.3315 -0.1419
14094TIP3    H163773   5.262   2.352   6.091  1.1219 -0.8856 -0.4479
14094TIP3    H263774   5.356   2.380   6.206  1.5634 -0.1690 -0.9693
14095TIP3   OH263775   2.920   1.652  14.225  0.2403  0.7725  0.3384
14095TIP3    H163776   2.990   1.695  14.276 -0.6843  1.9503  0.6739
14095TIP3    H263777   2.879   1.592  14.287  1.3907 -0.4964 -0.0677
14096TIP3   OH263778   4.327   2.057   3.470  0.2073 -0.1388 -0.4051
14096TIP3    H163779   4.269   2.132   3.460 -1.4411 -1.4542 -1.4169
14096TIP3    H263780   4.356   2.061   3.561 -0.5279  1.2227 -0.2051
14097TIP3   OH263781   3.517   2.478  12.531 -0.0828  0.1552 -0.0369
14097TIP3    H163782   3.445   2.475  12.469  0.5885 -0.3496 -0.8203
14097TIP3    H263783   3.532   2.386  12.555  1.3480  0.0590 -1.1619
14098TIP3   OH263784   3.554   5.879  16.692 -0.2314  0.1090  0.3007
14098TIP3    H163785   3.616   5.861  16.621  0.4254 -1.2584  1.1761
14098TIP3    H263786   3.600   5.940  16.749 -0.1748  0.0739  0.2928
14099TIP3   OH263787   4.164   5.377  15.049  0.4447  0.3588  0.5194
14099TIP3    H163788   4.153   5.385  14.954  0.6183  0.2592  0.4898
14099TIP3    H263789   4.169   5.283  15.065 -1.1544  0.3039  0.8241
14100TIP3   OH263790   4.046   4.085  16.072 -0.2735 -0.7951  0.8104
14100TIP3    H163791   3.989   4.112  16.144 -1.1588  1.0652 -0.4957
14100TIP3    H263792   4.133   4.113  16.098 -0.9258  2.0545  0.2465
14101TIP3   OH263793   4.637   6.639  13.616  0.0414 -0.2293 -0.8907
14101TIP3    H163794   4.678   6.565  13.571 -0.3460 -0.4810 -0.8343
14101TIP3    H263795   4.603   6.694  13.545  0.7228  0.1332 -0.9501
14102TIP3   OH263796   4.876   2.038  11.063  0.0689 -0.9499 -0.3884
14102TIP3    H163797   4.906   2.043  10.972  0.7151 -0.9787 -0.1775
14102TIP3    H263798   4.894   1.948  11.090 -1.4883 -1.3831 -0.6901
14103TIP3   OH263799   2.735   4.600   0.431 -0.7534 -0.3551 -0.1159
14103TIP3    H163800   2.718   4.619   0.524 -2.2562  0.7725 -0.5844
14103TIP3    H263801   2.653   4.564   0.399  0.0533 -1.6366 -0.8155
14104TIP3   OH263802   6.532   3.366  14.058 -1.0544 -0.6431  0.3021
14104TIP3    H163803   6.538   3.420  13.979 -0.9842 -0.6951  0.2721
14104TIP3    H263804   6.458   3.307  14.041 -1.2195 -0.4649  0.3909
14105TIP3   OH263805   1.308   5.249  14.436  0.3951  0.2173  0.5676
14105TIP3    H163806   1.273   5.336  14.453 -1.7436 -0.1402 -1.4397
14105TIP3    H263807   1.239   5.205  14.385  1.9926 -2.1498  0.2768
14106TIP3   OH263808   1.914   0.389  13.895  0.1357  0.7056  0.1396
14106TIP3    H163809   1.963   0.311  13.868 -0.2388  0.5240 -0.0203
14106TIP3    H263810   1.855   0.406  13.822  1.2645  2.0469 -0.5014
14107TIP3   OH263811   6.010   0.702  14.517  0.2997  0.0826  0.8484
14107TIP3    H163812   5.920   0.720  14.490  0.5637  0.4512  0.1828
14107TIP3    H263813   6.005   0.688  14.612 -0.5787 -0.7594  0.6870
14108TIP3   OH263814   5.728   2.627   4.240  0.2447  0.4027 -0.2195
14108TIP3    H163815   5.767   2.708   4.205  1.5713 -0.1971 -0.1921
14108TIP3    H263816   5.638   2.651   4.261 -0.0118  1.3198 -2.1543
14109TIP3   OH263817   5.791   1.911   4.277 -0.0139  0.0943  0.3897
14109TIP3    H163818   5.733   1.911   4.354  1.2512 -1.6821  1.4316
14109TIP3    H263819   5.749   1.849   4.217  1.8594 -3.2020  2.1692
14110TIP3   OH263820   1.676   1.258  14.836 -0.3490 -0.1196 -0.6790
14110TIP3    H163821   1.637   1.207  14.766  0.6191 -1.1551 -0.5076
14110TIP3    H263822   1.770   1.239  14.830 -0.3037 -0.7756  1.2833
14111TIP3   OH263823   6.198   2.413  15.770  0.1815 -0.3331  0.3721
14111TIP3    H163824   6.175   2.457  15.688  0.9611  0.1270  0.3905
14111TIP3    H263825   6.272   2.357  15.747  0.3005 -0.3206  0.7325
14112TIP3   OH263826   0.035   2.317   4.845 -0.3030 -0.0546  0.4163
14112TIP3    H163827   0.094   2.334   4.772  0.0055 -0.1774  0.6308
14112TIP3    H263828  -0.052   2.319   4.807 -0.2277  1.0674  0.2674
14113TIP3   OH263829   1.696   3.936  11.805 -0.6570 -0.6399  0.4960
14113TIP3    H163830   1.604   3.951  11.828 -0.6541 -1.0615  0.7949
14113TIP3    H263831   1.744   3.947  11.887  0.1600  3.9094 -0.3208
14114TIP3   OH263832   4.556   2.666  15.181  0.7226 -0.0935 -0.4450
14114TIP3    H163833   4.626   2.661  15.246  0.0322 -0.4806  0.2814
14114TIP3    H263834   4.475   2.673  15.233  0.2195  0.3526 -1.2677
14115TIP3   OH263835   5.724   6.036   2.643  0.6588  0.6535  0.3048
14115TIP3    H163836   5.786   5.971   2.675  0.6063  0.2765 -0.3456
14115TIP3    H263837   5.680   6.068   2.722  2.0151  1.2873  0.8280
14116TIP3   OH263838   3.615   0.627   1.702  0.1692 -0.8013 -0.6549
14116TIP3    H163839   3.602   0.722   1.697  0.8851 -0.7228 -1.0942
14116TIP3    H263840   3.679   0.607   1.633  0.4096 -1.5347 -0.2317
14117TIP3   OH263841   4.188   1.360   1.545 -0.0351  0.6254  0.0107
14117TIP3    H163842   4.163   1.271   1.519  0.0412  0.4107  0.6514
14117TIP3    H263843   4.122   1.385   1.610 -1.0475  1.6874 -1.3571
14118TIP3   OH263844   3.571   4.559  10.893 -0.2965  0.3632 -0.0328
14118TIP3    H163845   3.576   4.595  10.804  0.9529 -0.1880 -0.1917
14118TIP3    H263846   3.617   4.476  10.888 -0.2953  0.2883  1.1203
14119TIP3   OH263847   5.103   3.405  17.201  0.5127  0.5013 -0.0904
14119TIP3    H163848   5.022   3.379  17.244  1.7959 -1.6732  1.1915
14119TIP3    H263849   5.075   3.439  17.116 -1.9130  2.6151  1.3823
14120TIP3   OH263850   2.611   0.525   6.624  0.3901 -0.4079  0.5973
14120TIP3    H163851   2.632   0.612   6.589  1.5619 -0.4442  1.1606
14120TIP3    H263852   2.689   0.473   6.607  0.0557 -1.0929  1.1105
14121TIP3   OH263853   4.681   2.552   1.081  0.6025 -0.0845  0.2582
14121TIP3    H163854   4.647   2.505   1.005  0.5556  1.4594 -0.7083
14121TIP3    H263855   4.606   2.559   1.140  0.3787 -0.4318  0.0231
14122TIP3   OH263856   3.464   0.742  13.903  0.3791  0.4362 -0.4215
14122TIP3    H163857   3.496   0.779  13.985  0.3655  0.4936 -0.4416
14122TIP3    H263858   3.376   0.711  13.923  0.6075 -0.1092 -0.2576
14123TIP3   OH263859   4.276   2.509  14.798  0.7817 -0.1115 -0.2011
14123TIP3    H163860   4.259   2.599  14.826 -0.9696 -0.9863  1.7630
14123TIP3    H263861   4.326   2.471  14.870 -0.4813 -1.3382  0.0639
14124TIP3   OH263862   3.483   3.169  14.845 -0.0103 -0.3978 -0.4049
14124TIP3    H163863   3.415   3.209  14.791 -0.3870 -0.2050  0.2066
14124TIP3    H263864   3.480   3.076  14.823 -0.7482 -0.4514 -0.0783
14125TIP3   OH263865   1.313   6.309  15.058  0.4934  0.1127  0.4001
14125TIP3    H163866   1.313   6.274  15.148  0.4572  0.3249  0.4834
14125TIP3    H263867   1.228   6.352  15.049 -0.1015 -1.1409 -0.2267
14126TIP3   OH263868   5.092   3.798   5.912 -0.2404 -0.4704  0.1184
14126TIP3    H163869   5.129   3.727   5.859 -1.4374 -0.7226 -0.4130
14126TIP3    H263870   5.165   3.858   5.927  0.3667 -0.9220 -0.9478
14127TIP3   OH263871   3.296   1.137  15.863 -0.2995 -0.8988  0.1375
14127TIP3    H163872   3.385   1.159  15.834 -0.6157 -0.7125 -0.7131
14127TIP3    H263873   3.239   1.173  15.795 -1.0999 -0.0179  1.2315
14128TIP3   OH263874   1.683   4.685  16.583  0.0042 -0.0534  0.2986
14128TIP3    H163875   1.636   4.617  16.535  1.1143 -1.1130  0.6943
14128TIP3    H263876   1.739   4.638  16.644 -1.0103  1.2343  2.3567
14129TIP3   OH263877   4.448   0.731   2.121  0.2499  0.1308  0.4608
14129TIP3    H163878   4.493   0.807   2.084  1.0786 -0.7222 -0.3441
14129TIP3    H263879   4.489   0.655   2.078  0.8525 -0.8887  2.7100
14130TIP3   OH263880   0.942   3.057  15.388  0.0930 -0.1566 -0.5457
14130TIP3    H163881   0.963   3.049  15.295  1.6771 -1.0066 -0.1372
14130TIP3    H263882   0.971   3.145  15.411 -0.5626  0.1623 -0.8985
14131TIP3   OH263883   1.231   0.213   0.545 -0.2875 -0.3292  0.1638
14131TIP3    H163884   1.229   0.164   0.462  0.4054 -1.0102  0.5389
14131TIP3    H263885   1.240   0.146   0.612 -0.7904  0.2259  0.7974
14132TIP3   OH263886   2.236   4.181   3.693 -0.6501  0.5145 -0.3596
14132TIP3    H163887   2.224   4.274   3.676  0.0156  1.1529  2.2974
14132TIP3    H263888   2.273   4.176   3.781 -0.5055 -2.2647 -0.4686
14133TIP3   OH263889   4.662   4.062   4.075 -0.2471 -0.2590 -0.2546
14133TIP3    H163890   4.606   3.986   4.059  0.9969 -1.2300 -0.1615
14133TIP3    H263891   4.711   4.073   3.993  1.9049 -1.5922  0.7838
14134TIP3   OH263892   1.036   3.843  13.066  0.2480 -0.7081 -0.6857
14134TIP3    H163893   0.951   3.844  13.110 -0.1524 -0.2931 -1.4471
14134TIP3    H263894   1.098   3.816  13.134 -0.0441  1.7789  0.6787
14135TIP3   OH263895   5.353   0.168   5.210  0.3901  0.1936  0.1353
14135TIP3    H163896   5.348   0.211   5.125 -1.3944  0.8886  0.5449
14135TIP3    H263897   5.437   0.123   5.209  0.3163  0.0022 -2.0699
14136TIP3   OH263898   3.963   0.863  15.638  0.0442  0.1618 -0.1922
14136TIP3    H163899   4.013   0.933  15.680  1.3102  0.1297 -1.5871
14136TIP3    H263900   3.982   0.872  15.545 -1.1111 -1.0049 -0.5664
14137TIP3   OH263901   1.864   1.495  13.146 -0.2631  0.3155 -0.1061
14137TIP3    H163902   1.817   1.567  13.188 -0.1131 -0.1522  0.8794
14137TIP3    H263903   1.869   1.427  13.213  1.6828  0.2828 -0.2470
14138TIP3   OH263904   0.498   2.547   1.634 -0.3729  0.0200  0.7152
14138TIP3    H163905   0.422   2.498   1.664 -0.5295  0.3693  0.9063
14138TIP3    H263906   0.492   2.547   1.539  0.3479 -1.4480  0.6517
14139TIP3   OH263907   4.264   4.071  12.287  0.2181  0.1019 -1.0183
14139TIP3    H163908   4.227   4.071  12.375  0.0608 -0.4074 -1.0771
14139TIP3    H263909   4.191   4.048  12.230 -0.2726  2.7463 -1.5796
14140TIP3   OH263910   1.399   4.270   5.966 -0.2072  0.1145 -0.1087
14140TIP3    H163911   1.426   4.179   5.980  0.2569  0.2875  0.1687
14140TIP3    H263912   1.426   4.289   5.876  0.4098  0.2121  0.0887
14141TIP3   OH263913   3.518   4.642   5.389  0.0968  0.6327 -0.3918
14141TIP3    H163914   3.553   4.726   5.417 -1.0862  0.8360  0.5891
14141TIP3    H263915   3.423   4.652   5.397 -0.0278 -1.3499  1.4564
14142TIP3   OH263916   0.413   3.915   2.649  0.5808 -0.4632  0.4351
14142TIP3    H163917   0.477   3.856   2.686  0.3403 -2.7091 -2.3640
14142TIP3    H263918   0.462   3.966   2.584  0.5329  1.6865  1.9850
14143TIP3   OH263919   6.292   6.540  14.694 -0.2480  0.1963  0.0710
14143TIP3    H163920   6.221   6.558  14.755 -0.1586 -0.5175  0.3944
14143TIP3    H263921   6.248   6.507  14.615 -0.3109  0.3282  0.0507
14144TIP3   OH263922   2.605   5.377  15.517 -0.4830  0.8904  0.5719
14144TIP3    H163923   2.535   5.313  15.506  0.3470  0.0257  0.1685
14144TIP3    H263924   2.685   5.324  15.523  0.5992  1.9134 -2.5969
14145TIP3   OH263925   6.638   2.150   4.741 -0.6682  0.2402 -0.3592
14145TIP3    H163926   6.604   2.138   4.829 -1.9442 -1.0699 -0.9892
14145TIP3    H263927   6.570   2.201   4.696 -0.1688  0.6419 -0.6617
14146TIP3   OH263928   6.803   4.549  12.601 -0.1331 -0.5245 -0.4641
14146TIP3    H163929   6.850   4.521  12.522  1.6538 -0.8409  0.6498
14146TIP3    H263930   6.783   4.641  12.586  1.0787 -0.3150 -0.9013
14147TIP3   OH263931   3.918   0.822  17.074  0.0592  0.2430 -0.0016
14147TIP3    H163932   3.945   0.798  16.985 -0.1505 -0.5438  0.1477
14147TIP3    H263933   3.849   0.760  17.096 -0.0956  0.6249  0.6028
14148TIP3   OH263934   1.065   0.420  12.264  0.1046  0.2241 -0.0000
14148TIP3    H163935   1.008   0.486  12.224  1.0659  1.1101  0.0376
14148TIP3    H263936   1.151   0.461  12.266  0.8414 -1.2470 -0.4372
14149TIP3   OH263937   4.187   6.222   2.641  0.4403  0.7329 -0.0047
14149TIP3    H163938   4.230   6.164   2.704  0.3059  0.1864 -0.4101
14149TIP3    H263939   4.219   6.310   2.663 -0.6197  0.7341  1.6789
14150TIP3   OH263940   3.848   4.928   2.298  0.0569 -0.1485 -0.1942
14150TIP3    H163941   3.809   5.015   2.311  0.0930 -0.1203 -0.2758
14150TIP3    H263942   3.775   4.867   2.312  0.2589 -0.1639  0.9249
14151TIP3   OH263943   2.918   2.449   5.094  0.1849 -0.2406 -0.4115
14151TIP3    H163944   2.825   2.436   5.112  0.3916  0.2375  1.1437
14151TIP3    H263945   2.962   2.405   5.166  1.0639  2.2984  0.7129
14152TIP3   OH263946   3.343   0.335  16.060 -0.6342  0.3260 -0.0776
14152TIP3    H163947   3.337   0.314  16.153  1.3223  1.1074  0.2815
14152TIP3    H263948   3.362   0.251  16.018  1.3521  0.3504  0.6365
14153TIP3   OH263949   0.837   3.307  11.876  0.0843  0.0888  0.2129
14153TIP3    H163950   0.851   3.334  11.785 -1.3924 -1.3695 -0.4892
14153TIP3    H263951   0.871   3.218  11.880 -1.8838 -0.6977  0.4662
14154TIP3   OH263952   3.288   6.787   1.451  0.2108 -0.0067 -0.2961
14154TIP3    H163953   3.292   6.880   1.476  2.2272  0.1810 -1.0946
14154TIP3    H263954   3.196   6.772   1.428 -0.3179  1.5715  0.6154
14155TIP3   OH263955   3.411   4.968   0.487 -0.6073 -0.4486  0.3698
14155TIP3    H163956   3.362   5.007   0.559 -0.0892  0.7313  0.1176
14155TIP3    H263957   3.503   4.975   0.514 -0.4493 -0.6074 -0.1101
14156TIP3   OH263958   1.164   0.944   2.897 -0.3029 -0.2533 -0.5116
14156TIP3    H163959   1.232   0.948   2.829  1.2101 -1.7057  0.8453
14156TIP3    H263960   1.094   1.001   2.863  1.9517  2.1483 -1.5425
14157TIP3   OH263961   2.654   1.738  16.946  0.1054 -0.2583  0.2473
14157TIP3    H163962   2.696   1.810  16.899  0.2428 -0.9620 -0.7395
14157TIP3    H263963   2.578   1.778  16.988 -0.3679  0.3074 -1.0733
14158TIP3   OH263964   0.044   1.315   3.688 -0.0790  0.0784  0.7896
14158TIP3    H163965  -0.051   1.328   3.698 -0.0744  0.5767  0.2640
14158TIP3    H263966   0.080   1.403   3.693  0.0655  0.2461 -1.8613
14159TIP3   OH263967   6.747   1.974  12.282  0.0446 -0.2640  0.1798
14159TIP3    H163968   6.753   1.985  12.187 -0.3313 -0.1514  0.1688
14159TIP3    H263969   6.653   1.967  12.300  0.1149 -0.3052  0.5417
14160TIP3   OH263970   0.464   1.724  13.545  0.0193  0.7021 -0.0928
14160TIP3    H163971   0.401   1.786  13.581 -0.6442  0.4746 -0.8163
14160TIP3    H263972   0.426   1.698  13.461  0.1838 -0.8054  0.2702
14161TIP3   OH263973   1.591   3.222  14.975  0.3520  0.2206  0.1104
14161TIP3    H163974   1.592   3.290  15.042 -1.0559  1.0806 -0.6834
14161TIP3    H263975   1.656   3.251  14.911 -1.5993  1.9690 -1.2240
14162TIP3   OH263976   3.460   5.040  11.423  0.0061  0.0768 -0.1613
14162TIP3    H163977   3.425   5.122  11.389 -0.7318 -0.3318 -0.3912
14162TIP3    H263978   3.492   5.063  11.511  1.0113  0.8998 -0.7269
14163TIP3   OH263979   5.809   4.852   1.631  0.5922 -0.2427  0.1697
14163TIP3    H163980   5.902   4.835   1.647  1.0599  2.2794  0.6326
14163TIP3    H263981   5.794   4.939   1.669 -1.8243 -0.3310 -0.4258
14164TIP3   OH263982   2.082   3.751  16.844  0.6592  0.4500 -0.2470
14164TIP3    H163983   2.164   3.718  16.881 -0.2416  1.3742  2.8844
14164TIP3    H263984   2.033   3.785  16.920 -2.2056  0.8448 -2.1100
14165TIP3   OH263985   0.270   4.340  14.202  0.0665 -0.2819  0.7125
14165TIP3    H163986   0.359   4.317  14.228 -0.0665  0.6717  2.1311
14165TIP3    H263987   0.276   4.354  14.107  1.7874  1.1926  0.9824
14166TIP3   OH263988   3.388   3.834  12.436  0.3921 -0.7909 -0.4697
14166TIP3    H163989   3.392   3.759  12.496 -0.8078  0.1735  0.8999
14166TIP3    H263990   3.359   3.797  12.353 -0.4628 -1.8234  0.2611
14167TIP3   OH263991   0.244   5.514  15.068 -0.1869 -0.2995  0.3995
14167TIP3    H163992   0.260   5.425  15.100 -2.0038 -0.8006  0.0217
14167TIP3    H263993   0.225   5.565  15.146 -1.9980 -0.9252  0.4018
14168TIP3   OH263994   5.850   2.849  14.462  0.3340 -0.2155  0.4520
14168TIP3    H163995   5.838   2.770  14.515  1.0823  0.6282  1.9578
14168TIP3    H263996   5.766   2.895  14.467 -0.5141 -1.4182 -1.4175
14169TIP3   OH263997   3.709   6.591   4.099  0.0884 -0.2566 -0.0455
14169TIP3    H163998   3.773   6.614   4.167 -1.3511  2.6365  0.4889
14169TIP3    H263999   3.737   6.641   4.023  0.1390 -1.3571 -0.7682
14170TIP3   OH264000   3.545   4.371   0.817 -0.0597 -0.1151 -0.2166
14170TIP3    H164001   3.636   4.371   0.790  0.4289  1.8987  1.1823
14170TIP3    H264002   3.539   4.302   0.883 -0.3832 -2.4509 -2.5460
14171TIP3   OH264003   1.392   2.614  14.256  0.1150  0.2520  0.0969
14171TIP3    H164004   1.310   2.597  14.210  0.6159 -0.2486 -0.6423
14171TIP3    H264005   1.400   2.543  14.319 -0.4721  0.8218  0.8211
14172TIP3   OH264006   4.781   4.968  13.135  0.4684 -0.0333 -0.4770
14172TIP3    H164007   4.719   4.896  13.126  0.0445  0.2272  0.3076
14172TIP3    H264008   4.857   4.929  13.177  0.7206 -0.2794 -1.1445
14173TIP3   OH264009   4.868   2.217  11.271  0.1061  0.7001 -0.1354
14173TIP3    H164010   4.885   2.149  11.205  0.5983 -0.1562  0.8506
14173TIP3    H264011   4.785   2.256  11.245  1.4325  2.1363 -2.7217
14174TIP3   OH264012   6.555   1.679  11.205 -0.5388 -0.1295  0.3916
14174TIP3    H164013   6.590   1.687  11.116  0.0012 -1.9591  0.4031
14174TIP3    H264014   6.568   1.766  11.243  1.0208  0.1647 -0.6945
14175TIP3   OH264015   5.157   1.037   5.826 -0.0764  0.7577  0.0932
14175TIP3    H164016   5.188   0.947   5.821 -1.8098  0.1823 -1.5335
14175TIP3    H264017   5.133   1.049   5.918  0.7151 -0.2298  0.4486
14176TIP3   OH264018   3.482   2.740   1.382  0.0004 -0.0980 -0.1546
14176TIP3    H164019   3.558   2.797   1.396  0.6154 -1.0540  0.4750
14176TIP3    H264020   3.421   2.794   1.331  0.4823  1.1836  0.5829
14177TIP3   OH264021   4.884   0.106  13.128 -0.2655  0.7909  0.0867
14177TIP3    H164022   4.902   0.197  13.105 -1.8921  1.2459  0.4836
14177TIP3    H264023   4.843   0.111  13.214 -1.6118 -0.1856 -0.4593
14178TIP3   OH264024   4.047   4.696   1.961  0.7476 -0.1962  0.2378
14178TIP3    H164025   3.988   4.668   2.031 -1.0337  1.5599 -0.4565
14178TIP3    H264026   4.095   4.617   1.937 -1.4832 -1.7832  0.6878
14179TIP3   OH264027   2.281   3.639   1.419  0.5530  0.0936 -0.3153
14179TIP3    H164028   2.196   3.635   1.375 -0.3847  1.0379  1.3147
14179TIP3    H264029   2.273   3.579   1.492  0.9553  0.8692  0.3763
14180TIP3   OH264030   6.389   2.644  11.500 -0.3510 -0.3378 -0.2165
14180TIP3    H164031   6.295   2.642  11.521  0.0028 -0.7326  1.4874
14180TIP3    H264032   6.430   2.685  11.576  0.6516  2.1594 -1.9944
14181TIP3   OH264033   3.921   2.146   4.625  0.4482 -0.1380 -0.2821
14181TIP3    H164034   3.941   2.129   4.533  1.6604  0.4531 -0.1497
14181TIP3    H264035   3.864   2.222   4.623 -2.1642 -1.9756 -0.6795
14182TIP3   OH264036   0.858   3.855   6.597  0.2491 -0.1912  0.1147
14182TIP3    H164037   0.856   3.884   6.506 -0.7356 -1.4681 -0.3041
14182TIP3    H264038   0.868   3.935   6.648 -0.8912  0.7221 -1.0392
14183TIP3   OH264039   1.623   2.470  15.583 -0.0375  0.1816 -0.9151
14183TIP3    H164040   1.556   2.408  15.613  0.2166  0.1422 -0.4106
14183TIP3    H264041   1.621   2.540  15.648  1.7181 -0.7440  0.2111
14184TIP3   OH264042   0.600   1.150   5.967  0.1685  1.0532 -0.5967
14184TIP3    H164043   0.555   1.066   5.952 -0.0321  1.0087  0.2284
14184TIP3    H264044   0.643   1.139   6.052 -0.4226  2.0286 -0.1601
14185TIP3   OH264045   1.972   4.827   4.356 -0.1199  0.0193  0.2472
14185TIP3    H164046   1.912   4.862   4.291  1.2553 -0.3837 -1.3200
14185TIP3    H264047   1.995   4.903   4.411  0.2261  0.8331 -0.9896
14186TIP3   OH264048   2.054   4.494   0.114  0.1377  0.1468 -0.0717
14186TIP3    H164049   2.011   4.419   0.155  0.0953 -0.0231 -0.4262
14186TIP3    H264050   2.062   4.470   0.022  1.0289  0.1626 -0.0059
14187TIP3   OH264051   1.911   3.419   5.554 -0.6238  0.7145 -0.4947
14187TIP3    H164052   1.883   3.329   5.571  0.0310  0.2400 -1.8117
14187TIP3    H264053   1.880   3.468   5.630 -1.5588 -0.4948 -0.0629
14188TIP3   OH264054   2.715   4.643  15.005  0.2464 -0.6935  0.3421
14188TIP3    H164055   2.762   4.726  14.996  0.3159 -0.9183 -1.6229
14188TIP3    H264056   2.636   4.666  15.054  0.4474  0.4437  0.1585
14189TIP3   OH264057   3.268   2.899   1.324 -0.0041 -0.6385  0.3016
14189TIP3    H164058   3.178   2.875   1.343 -0.7746  1.2203 -0.7408
14189TIP3    H264059   3.275   2.893   1.229  0.2934  1.2841  0.1652
14190TIP3   OH264060   3.952   1.963  14.042  0.2271 -0.5751  0.1742
14190TIP3    H164061   4.013   1.946  13.971 -0.5239 -0.5282 -0.4955
14190TIP3    H264062   3.879   1.902  14.027 -0.8268  0.7187 -0.2103
14191TIP3   OH264063   6.836   4.821  16.605 -0.6882  0.0790 -0.5686
14191TIP3    H164064   6.811   4.829  16.513 -1.3204 -1.2848 -0.5393
14191TIP3    H264065   6.874   4.733  16.613 -3.0891 -0.9445  0.9545
14192TIP3   OH264066   1.039   0.886  16.178  0.1227 -0.0509  0.2992
14192TIP3    H164067   0.962   0.942  16.173 -0.6489 -1.1476 -0.7925
14192TIP3    H264068   1.096   0.928  16.242  0.1476  2.6085 -1.3625
14193TIP3   OH264069   4.676   4.122   2.275 -0.0550 -0.0922 -0.4826
14193TIP3    H164070   4.639   4.034   2.275  1.3767 -0.8039 -3.0817
14193TIP3    H264071   4.767   4.110   2.250  0.4340  2.0826 -0.0119
14194TIP3   OH264072   5.940   5.309   5.832  0.2147  0.7274 -0.0657
14194TIP3    H164073   5.946   5.345   5.743 -0.2594  2.5352  0.6079
14194TIP3    H264074   5.847   5.318   5.855  0.2880  0.0333  0.5392
14195TIP3   OH264075   5.466   2.967   3.329 -0.3476  0.3935  0.4338
14195TIP3    H164076   5.377   2.965   3.363 -0.3058 -0.9858  0.5341
14195TIP3    H264077   5.512   2.899   3.378  0.9772  1.5815  0.9223
14196TIP3   OH264078   2.701   3.265  16.104 -0.2507 -0.0406 -0.0195
14196TIP3    H164079   2.662   3.252  16.018  0.1687  0.4748 -0.2920
14196TIP3    H264080   2.745   3.182  16.124 -2.0118 -0.8881  0.5890
14197TIP3   OH264081   0.157   0.236  11.482  0.3334  0.1355 -0.3999
14197TIP3    H164082   0.126   0.239  11.572 -2.2957 -0.0792 -1.2016
14197TIP3    H264083   0.105   0.167  11.441  0.7321  0.8886 -2.3006
14198TIP3   OH264084   3.568   0.597  16.945  0.3249 -0.5877 -0.8347
14198TIP3    H164085   3.570   0.503  16.958 -0.3524 -0.6915 -1.4040
14198TIP3    H264086   3.569   0.634  17.033 -1.8138 -1.2025 -0.5021
14199TIP3   OH264087   1.077   1.435   5.201 -0.6174 -0.3893  0.5398
14199TIP3    H164088   1.152   1.401   5.250 -0.1269 -0.6341 -0.3625
14199TIP3    H264089   1.097   1.416   5.109 -1.5894 -0.0748  0.2474
14200TIP3   OH264090   0.139   6.649  13.639  0.3226  0.8381 -0.2214
14200TIP3    H164091   0.103   6.723  13.687  0.7847  0.7450  0.2812
14200TIP3    H264092   0.067   6.585  13.637  0.5278  0.5400  1.0184
14201TIP3   OH264093   5.329   5.132   3.461  0.1055  0.2502  0.4323
14201TIP3    H164094   5.390   5.122   3.387 -1.3227  0.9196 -0.8839
14201TIP3    H264095   5.370   5.198   3.517  0.9334  0.1676 -0.0588
14202TIP3   OH264096   4.228   0.075   3.047  0.3677 -0.1962  0.0017
14202TIP3    H164097   4.304   0.034   3.006  0.0096 -0.4983 -0.3632
14202TIP3    H264098   4.201   0.014   3.115  0.1288 -0.3349 -0.2193
14203TIP3   OH264099   0.355   4.796  14.220  0.1105 -0.5098 -0.1464
14203TIP3    H164100   0.393   4.749  14.146 -2.8684 -2.2311 -0.7101
14203TIP3    H264101   0.413   4.774  14.293  1.8352 -0.5899 -1.4712
14204TIP3   OH264102   1.430   4.120   4.071 -0.3645 -0.1872  0.4021
14204TIP3    H164103   1.380   4.182   4.018  0.3475  1.0250  1.1200
14204TIP3    H264104   1.444   4.045   4.013 -0.7610  0.5436 -0.6654
14205TIP3   OH264105   1.878   0.280  13.359 -0.3024  0.8268  0.6552
14205TIP3    H164106   1.940   0.331  13.306  1.8395 -0.4338  1.7737
14205TIP3    H264107   1.807   0.259  13.300  2.3692 -1.2764 -2.1274
14206TIP3   OH264108   2.535   5.319   4.869 -0.0735  0.0927 -0.2418
14206TIP3    H164109   2.487   5.279   4.796 -0.7291  0.0580  0.2028
14206TIP3    H264110   2.590   5.249   4.903  1.6789  0.5817 -1.8727
14207TIP3   OH264111   2.410   3.641  10.900 -0.5831  0.6155 -0.2076
14207TIP3    H164112   2.393   3.553  10.866  2.9128 -0.1205 -0.4541
14207TIP3    H264113   2.476   3.677  10.841  1.5046  1.5295  2.4816
14208TIP3   OH264114   0.921   6.707   6.201  0.4628 -0.3946  0.3012
14208TIP3    H164115   0.948   6.627   6.158  0.6232 -0.2356  0.1046
14208TIP3    H264116   0.831   6.690   6.230 -0.3026  0.1030 -1.6419
14209TIP3   OH264117   3.278   0.509  14.168 -0.5174  0.2691 -0.5591
14209TIP3    H164118   3.283   0.540  14.077  0.1365 -2.7875 -1.6775
14209TIP3    H264119   3.184   0.497  14.184 -0.6368  0.7865 -0.8509
14210TIP3   OH264120   0.714   6.657   2.574 -0.2695  0.2686  0.2208
14210TIP3    H164121   0.644   6.669   2.510 -1.7768 -2.3833  1.1982
14210TIP3    H264122   0.682   6.701   2.653 -0.5285 -0.3187  0.4505
14211TIP3   OH264123   5.902   2.582  12.717  0.0956 -0.4153 -0.0634
14211TIP3    H164124   5.991   2.616  12.712 -0.0334 -0.0167  0.2222
14211TIP3    H264125   5.869   2.587  12.627  0.2042 -0.1173 -0.0888
14212TIP3   OH264126   0.737   4.427   0.073  0.0548  0.1442  0.4091
14212TIP3    H164127   0.802   4.397   0.010  1.4445  1.8832  0.9264
14212TIP3    H264128   0.664   4.366   0.063  1.9950 -2.3380  0.3103
14213TIP3   OH264129   4.126   2.169   4.837  0.3792  0.4792 -0.9456
14213TIP3    H164130   4.094   2.253   4.803 -2.5320  0.8652  2.2401
14213TIP3    H264131   4.143   2.117   4.759  1.2031  3.5750 -3.0476
14214TIP3   OH264132   0.461   4.171   4.775  0.1738 -0.0293  0.2909
14214TIP3    H164133   0.378   4.125   4.766 -1.4862  2.7835  0.3168
14214TIP3    H264134   0.465   4.193   4.868  1.2211 -0.5442  0.3826
14215TIP3   OH264135   3.607   2.869  16.903 -0.2105 -0.4894 -0.3497
14215TIP3    H164136   3.551   2.834  16.834 -0.2905 -1.3493  0.1329
14215TIP3    H264137   3.546   2.903  16.968 -0.1336  0.5753 -0.8112
14216TIP3   OH264138   5.678   6.106  15.673 -0.7901  0.8027 -1.3378
14216TIP3    H164139   5.747   6.103  15.607 -0.1257 -2.4477 -0.6425
14216TIP3    H264140   5.709   6.169  15.738  0.7570  0.5826 -1.8345
14217TIP3   OH264141   6.043   1.283  13.846 -0.2259 -0.6861  0.0304
14217TIP3    H164142   5.978   1.215  13.858  0.4002 -1.2627  0.2218
14217TIP3    H264143   6.124   1.246  13.881  0.3089 -0.1637 -0.6091
14218TIP3   OH264144   5.994   3.224  15.083 -0.7512  0.0482  0.2277
14218TIP3    H164145   6.059   3.173  15.131  1.4319  1.5947 -0.9114
14218TIP3    H264146   6.016   3.211  14.991 -1.7925  0.9868 -0.1861
14219TIP3   OH264147   5.267   4.934  14.462  0.4714  0.0485 -0.0010
14219TIP3    H164148   5.309   4.860  14.505  0.7543  0.0022 -0.3542
14219TIP3    H264149   5.308   4.938  14.376  2.1635  2.0474  0.8233
14220TIP3   OH264150   2.813   4.762  14.588  0.0459  0.3564  0.0791
14220TIP3    H164151   2.836   4.817  14.514 -1.4363 -0.3102 -0.9188
14220TIP3    H264152   2.860   4.680  14.572 -0.1291  0.2754 -0.0147
14221TIP3   OH264153   6.146   5.419   4.716 -0.1918 -0.5891 -0.5875
14221TIP3    H164154   6.237   5.405   4.744  0.6566 -2.3195 -3.7252
14221TIP3    H264155   6.152   5.487   4.649 -1.2999 -0.3824 -0.4897
14222TIP3   OH264156   1.384   5.322   6.026  0.0426  0.7404  0.4549
14222TIP3    H164157   1.332   5.282   6.096  0.8632  1.5009  1.5401
14222TIP3    H264158   1.475   5.308   6.053  0.3989  0.6710 -0.6996
14223TIP3   OH264159   4.720   0.184  16.038  0.0165 -0.4217 -0.1256
14223TIP3    H164160   4.688   0.166  15.950 -0.1138 -0.6911 -0.0235
14223TIP3    H264161   4.792   0.245  16.025 -1.6976  1.6776 -0.2208
14224TIP3   OH264162   1.507   5.629   5.986 -0.0603 -0.0052  0.6582
14224TIP3    H164163   1.473   5.545   5.955  0.4891  0.7665 -2.3094
14224TIP3    H264164   1.596   5.609   6.015  1.0115 -0.1675 -2.3638
14225TIP3   OH264165   0.660   2.309  16.496 -0.6919  0.2358  0.0014
14225TIP3    H164166   0.686   2.347  16.412  0.9693 -0.6609  0.0750
14225TIP3    H264167   0.711   2.228  16.503 -1.0987  0.0865  1.7100
14226TIP3   OH264168   0.057   4.451  12.363  0.1618  0.6723 -0.1538
14226TIP3    H164169   0.152   4.443  12.369  0.6926  4.4978 -0.5334
14226TIP3    H264170   0.036   4.419  12.275  0.9571 -0.8543  0.1842
14227TIP3   OH264171   3.300   6.151  13.156 -0.0938 -0.0194 -0.3729
14227TIP3    H164172   3.229   6.186  13.102 -1.3191 -1.7758  0.0262
14227TIP3    H264173   3.296   6.201  13.237  0.2323  1.0072 -0.9607
14228TIP3   OH264174   1.530   3.275  12.572  0.2404  0.4102 -0.9851
14228TIP3    H164175   1.471   3.199  12.571  1.1858 -0.3617 -0.1383
14228TIP3    H264176   1.506   3.322  12.652  2.5063 -1.3842  0.8903
14229TIP3   OH264177   3.890   6.051  17.089  0.3521 -0.0039 -0.7631
14229TIP3    H164178   3.957   5.988  17.063  1.5683  1.6530 -1.8577
14229TIP3    H264179   3.837   6.004  17.153  1.5501 -1.9271 -1.0866
14230TIP3   OH264180   2.832   4.106  11.710 -0.5643  0.1058 -0.2380
14230TIP3    H164181   2.744   4.090  11.743 -0.3761 -1.9622 -0.6064
14230TIP3    H264182   2.826   4.191  11.665 -2.4525 -0.1864 -0.6006
14231TIP3   OH264183   4.924   5.553  14.783 -0.3544 -0.0161  0.3667
14231TIP3    H164184   4.875   5.487  14.735 -0.8811  0.2801  0.4906
14231TIP3    H264185   4.861   5.590  14.844 -0.3347  1.2654 -0.3568
14232TIP3   OH264186   1.356   1.255  10.686 -0.0019 -0.7938  0.1204
14232TIP3    H164187   1.300   1.178  10.697 -0.8736 -0.3425 -0.8829
14232TIP3    H264188   1.308   1.326  10.730  0.0233 -0.5188 -0.2812
14233TIP3   OH264189   2.683   3.646  16.059  0.6424 -0.0858  0.2191
14233TIP3    H164190   2.752   3.597  16.105 -0.6494 -0.6860  1.6122
14233TIP3    H264191   2.699   3.738  16.083 -0.7382 -0.4692  3.1061
14234TIP3   OH264192   4.811   2.490  13.496  0.0076  0.6552  0.3976
14234TIP3    H164193   4.784   2.573  13.457 -0.1714  1.3385  1.9349
14234TIP3    H264194   4.742   2.428  13.471 -0.3054  1.1625 -0.0190
14235TIP3   OH264195   2.529   3.543   1.824 -0.1048  0.0331 -0.0777
14235TIP3    H164196   2.509   3.485   1.898  0.5162 -0.2419 -0.1181
14235TIP3    H264197   2.623   3.531   1.809  0.0343  1.0587 -0.0848
14236TIP3   OH264198   4.833   3.021   0.582 -0.1626  0.3316 -0.2203
14236TIP3    H164199   4.820   3.032   0.488 -0.5503  3.0536  0.0584
14236TIP3    H264200   4.921   3.056   0.598 -0.6619  1.2842  0.5760
14237TIP3   OH264201   2.809   2.715  14.371 -0.1103  0.4281 -0.1015
14237TIP3    H164202   2.767   2.677  14.448 -0.5901  2.5465  0.7430
14237TIP3    H264203   2.820   2.641  14.311 -2.2039 -0.7784  0.9006
14238TIP3   OH264204   0.944   2.718   1.886  0.2311 -0.0213 -0.2072
14238TIP3    H164205   0.877   2.696   1.821 -1.4608  0.3830  1.3352
14238TIP3    H264206   0.965   2.635   1.929 -0.6231  0.1399  0.5310
14239TIP3   OH264207   3.451   3.580  13.301 -0.2045  0.3041  0.0501
14239TIP3    H164208   3.499   3.528  13.365 -1.8329 -1.3138  0.0492
14239TIP3    H264209   3.409   3.515  13.244 -0.5958  1.6755 -1.2928
14240TIP3   OH264210   1.988   5.092   4.449 -0.1456 -0.2161 -0.0167
14240TIP3    H164211   2.064   5.149   4.452 -0.8440  0.7346 -0.1174
14240TIP3    H264212   1.933   5.121   4.522 -2.0031  1.4216 -1.9412
14241TIP3   OH264213   0.712   1.693   5.283  0.1070  0.1574  0.1406
14241TIP3    H164214   0.652   1.629   5.243  0.2281 -1.0255  1.7412
14241TIP3    H264215   0.676   1.778   5.259 -0.9488 -0.5146 -0.7743
14242TIP3   OH264216   4.372   4.330  14.246 -0.1141  0.0237 -0.4369
14242TIP3    H164217   4.350   4.323  14.339 -0.1269  0.0277 -0.4402
14242TIP3    H264218   4.406   4.419  14.237  1.2594 -0.4444 -0.1433
14243TIP3   OH264219   4.722   5.475  12.404 -0.1985  0.1347 -0.0137
14243TIP3    H164220   4.698   5.558  12.445 -0.9798 -0.2012  0.2281
14243TIP3    H264221   4.639   5.440  12.370  0.1676 -0.4079 -0.3731
14244TIP3   OH264222   3.623   3.800   5.734  0.3821  0.0508  0.0268
14244TIP3    H164223   3.702   3.802   5.680 -0.5954 -0.6889 -1.5311
14244TIP3    H264224   3.566   3.866   5.695  0.4729  1.0621  1.5643
14245TIP3   OH264225   3.466   0.009   2.395 -0.0201  0.2422 -0.1075
14245TIP3    H164226   3.433  -0.020   2.480 -2.9051  1.0718 -0.8222
14245TIP3    H264227   3.506   0.095   2.413 -1.9885  1.1400  0.2651
14246TIP3   OH264228   1.577   6.722   1.957 -0.2663  0.0274  0.2302
14246TIP3    H164229   1.523   6.698   1.883 -0.0916  0.7668 -0.1410
14246TIP3    H264230   1.657   6.669   1.947 -0.6320 -0.5679  0.4176
14247TIP3   OH264231   2.486   0.842  14.263  0.2273 -0.8515 -0.7462
14247TIP3    H164232   2.463   0.856  14.171 -1.0585 -0.5139 -0.3856
14247TIP3    H264233   2.581   0.858  14.266 -0.0916  1.6685 -1.5529
14248TIP3   OH264234   1.712   3.224  15.687 -0.4520  0.5485  0.7617
14248TIP3    H164235   1.672   3.151  15.640  0.7679  0.6977 -0.5705
14248TIP3    H264236   1.638   3.273  15.723 -1.3133 -0.9140  1.0436
14249TIP3   OH264237   5.550   0.047   3.704  0.5789 -0.2627 -0.0236
14249TIP3    H164238   5.601   0.114   3.658  0.6076 -1.0099 -1.1239
14249TIP3    H264239   5.615  -0.014   3.738  0.5495  0.2288  0.9390
14250TIP3   OH264240   1.916   1.304  14.670  0.1259 -0.0986  0.0278
14250TIP3    H164241   1.834   1.354  14.671 -0.0882 -0.4372  1.1095
14250TIP3    H264242   1.895   1.227  14.617  0.0737  0.3173 -0.5768
14251TIP3   OH264243   1.213   5.245  11.598  0.3762  0.2364  0.2865
14251TIP3    H164244   1.291   5.264  11.547  0.8324  1.4671  1.3897
14251TIP3    H264245   1.147   5.222  11.533  1.1449  0.9905 -0.7972
14252TIP3   OH264246   3.877   3.366  12.479 -0.5066  0.4679 -0.6046
14252TIP3    H164247   3.845   3.309  12.549 -0.3817  1.6889  0.4857
14252TIP3    H264248   3.917   3.439  12.525 -0.7649  1.4929 -1.9660
14253TIP3   OH264249   4.281   1.524  13.289 -0.4452 -0.0998 -0.0193
14253TIP3    H164250   4.274   1.619  13.285 -0.2352 -0.1157 -1.6283
14253TIP3    H264251   4.341   1.502  13.218 -0.1436 -1.4108  0.6153
14254TIP3   OH264252   2.370   0.301   4.249 -0.0571 -0.6548  0.0371
14254TIP3    H164253   2.412   0.221   4.219  0.1385 -0.6351  0.2560
14254TIP3    H264254   2.283   0.272   4.279  0.5436 -1.0474  1.5182
14255TIP3   OH264255   3.901   2.920   0.676  0.2318 -0.2890 -0.5141
14255TIP3    H164256   3.840   2.862   0.630 -1.9616  0.7528  0.8824
14255TIP3    H264257   3.972   2.862   0.704 -1.6401 -2.2708  0.4634
14256TIP3   OH264258   5.499   0.034  14.279  0.2182  0.1340 -0.0259
14256TIP3    H164259   5.417  -0.005  14.250 -1.3059  0.9831  2.7295
14256TIP3    H264260   5.542   0.063  14.199  0.2039 -4.5135 -2.0339
14257TIP3   OH264261   1.709   1.088   2.572 -0.4561 -0.7509 -0.4814
14257TIP3    H164262   1.766   1.042   2.511 -0.3654  1.2313 -1.9916
14257TIP3    H264263   1.757   1.087   2.655  1.1946 -0.3053 -1.3814
14258TIP3   OH264264   6.391   4.341   6.125 -0.4401  0.7217 -0.6052
14258TIP3    H164265   6.404   4.246   6.115 -2.0257  0.3382  0.7149
14258TIP3    H264266   6.352   4.351   6.211  0.9961  2.7394 -0.1165
14259TIP3   OH264267   5.268   1.486   2.822  0.0600  0.6743  0.0609
14259TIP3    H164268   5.321   1.409   2.838 -1.1657  0.2867  2.7565
14259TIP3    H264269   5.210   1.460   2.750 -0.2818 -0.9205  0.8695
14260TIP3   OH264270   1.336   4.587   4.129 -1.0714  0.2515 -0.0012
14260TIP3    H164271   1.365   4.618   4.043 -0.9691 -0.2598 -0.1539
14260TIP3    H264272   1.293   4.663   4.168  0.0150  0.8809  0.0173
14261TIP3   OH264273   2.581   1.664   1.001 -0.1165  0.2512 -0.2908
14261TIP3    H164274   2.555   1.741   1.050  0.9990  0.6358 -0.2794
14261TIP3    H264275   2.504   1.608   1.002  0.0169 -0.0268  2.4061
14262TIP3   OH264276   1.068   1.227   4.715  0.4145  0.3055 -0.7825
14262TIP3    H164277   1.147   1.179   4.690  0.4802 -0.1109  0.1998
14262TIP3    H264278   1.036   1.182   4.793  1.1862  2.5646  0.9613
14263TIP3   OH264279   5.400   2.484   2.935 -0.2212 -0.0841 -0.8269
14263TIP3    H164280   5.403   2.549   3.006  0.4572 -1.6639  0.6626
14263TIP3    H264281   5.330   2.514   2.878 -2.6647 -0.1423  1.9364
14264TIP3   OH264282   6.146   5.606   0.424  0.0527  0.0066 -0.2399
14264TIP3    H164283   6.237   5.595   0.400  0.4188  0.2193  0.9659
14264TIP3    H264284   6.134   5.701   0.430 -0.6846  0.0555 -1.9029
14265TIP3   OH264285   4.231   6.507   1.727 -0.4740 -0.2053  0.3188
14265TIP3    H164286   4.187   6.434   1.684 -0.0418  0.0868 -0.6560
14265TIP3    H264287   4.160   6.564   1.757 -0.8123  0.2632 -1.2293
14266TIP3   OH264288   4.240   2.236   4.365 -0.1822 -0.8209 -0.2343
14266TIP3    H164289   4.148   2.246   4.343  0.0742 -2.6665 -2.5596
14266TIP3    H264290   4.284   2.223   4.281  1.9534 -1.7075  0.9169
14267TIP3   OH264291   6.364   5.180  16.100  0.1179  0.3634 -0.0875
14267TIP3    H164292   6.377   5.275  16.107 -1.9122  0.6759  0.2410
14267TIP3    H264293   6.270   5.171  16.083  0.7117 -1.4570 -3.2619
14268TIP3   OH264294   3.257   0.236  10.512 -0.6105 -0.3354  0.0151
14268TIP3    H164295   3.172   0.273  10.488  0.3224  0.8819 -1.5956
14268TIP3    H264296   3.298   0.212  10.429  0.1961 -1.9199  0.8329
14269TIP3   OH264297   6.506   6.833   1.528 -0.2804  0.1381 -0.1234
14269TIP3    H164298   6.438   6.870   1.472  0.4177  0.3683 -0.8464
14269TIP3    H264299   6.585   6.833   1.473  0.3481  0.0563  0.7513
14270TIP3   OH264300   3.191   2.463   2.485 -0.0102  0.0738  0.0654
14270TIP3    H164301   3.212   2.396   2.550  0.7767 -0.1835 -0.4366
14270TIP3    H264302   3.102   2.490   2.505 -0.4002 -1.2512  0.1708
14271TIP3   OH264303   3.510   0.362  16.639  0.1389 -0.1304  0.0467
14271TIP3    H164304   3.513   0.330  16.549 -2.9357  1.8956 -0.9460
14271TIP3    H264305   3.486   0.454  16.631  0.6584  0.3606  2.9502
14272TIP3   OH264306   0.283   2.657  16.937 -0.3486 -0.5137  0.0952
14272TIP3    H164307   0.280   2.714  17.013 -0.1989 -1.9061  1.1796
14272TIP3    H264308   0.249   2.711  16.865  0.2801  1.0812  0.9577
14273TIP3   OH264309   2.841   2.872  11.162 -0.0660  0.1958 -0.2428
14273TIP3    H164310   2.774   2.858  11.096 -2.0684  1.1314  1.4615
14273TIP3    H264311   2.792   2.894  11.242  2.2993  2.9152  0.6479
14274TIP3   OH264312   5.678   1.266  16.400  0.1938  0.3196 -0.2126
14274TIP3    H164313   5.739   1.334  16.431  1.2701 -0.5644 -0.3285
14274TIP3    H264314   5.684   1.271  16.305  0.4104 -0.0516 -0.2192
14275TIP3   OH264315   6.447   1.203   4.588  0.1155  0.1509 -0.2435
14275TIP3    H164316   6.401   1.150   4.523  1.4980 -0.6499 -0.6052
14275TIP3    H264317   6.417   1.292   4.571  0.3326 -0.0599 -1.8983
14276TIP3   OH264318   1.146   2.701   6.009 -0.2721  0.2530 -0.0516
14276TIP3    H164319   1.235   2.723   5.982  0.2742 -2.8178 -1.2564
14276TIP3    H264320   1.090   2.729   5.936 -0.1053  0.8873  0.0643
14277TIP3   OH264321   3.569   0.879  10.595 -0.2482 -0.1302  0.7378
14277TIP3    H164322   3.615   0.862  10.513 -0.1356  1.2780  0.4791
14277TIP3    H264323   3.594   0.807  10.653 -0.6178 -1.3544 -0.5577
14278TIP3   OH264324   1.901   6.161  15.407  0.3518 -1.1062  0.3086
14278TIP3    H164325   1.814   6.150  15.444  0.5823  0.0820  1.2709
14278TIP3    H264326   1.956   6.101  15.459  0.2800 -1.1089  0.3820
14279TIP3   OH264327   4.780   3.353  11.901 -0.1716 -0.5723  0.2439
14279TIP3    H164328   4.826   3.411  11.839  1.6343  0.7949  2.7088
14279TIP3    H264329   4.765   3.408  11.978 -1.6693 -2.4219  1.3307
14280TIP3   OH264330   3.196   0.877   2.560 -0.0129  0.1687 -0.2496
14280TIP3    H164331   3.199   0.972   2.566 -1.6023  0.1939  0.8117
14280TIP3    H264332   3.149   0.860   2.478 -0.5464  0.3260  0.0182
14281TIP3   OH264333   3.951   2.899   1.482  0.4548 -0.0305  0.0063
14281TIP3    H164334   3.856   2.898   1.495  0.4256 -0.4995 -0.2274
14281TIP3    H264335   3.980   2.979   1.526  0.2454 -1.0321  2.1304
14282TIP3   OH264336   5.187   3.427   2.361  0.0213  0.4625  0.2721
14282TIP3    H164337   5.261   3.374   2.331 -1.7750 -1.1212 -1.6707
14282TIP3    H264338   5.164   3.390   2.446  0.9047  0.4020  0.4935
14283TIP3   OH264339   5.613   2.992  13.019  0.5115 -0.2355 -0.0827
14283TIP3    H164340   5.627   3.071  13.071 -0.2595 -0.5910  0.6906
14283TIP3    H264341   5.566   2.932  13.078 -0.1804 -0.7325 -1.1097
14284TIP3   OH264342   6.124   0.722   5.370 -0.0312 -0.4615 -0.5418
14284TIP3    H164343   6.095   0.710   5.460 -1.0803  1.7137 -0.5234
14284TIP3    H264344   6.219   0.718   5.374  0.1290  2.3145  1.2060
14285TIP3   OH264345   3.915   5.981   2.239 -0.1286  0.1206 -0.0995
14285TIP3    H164346   3.824   5.968   2.211 -0.7967 -0.3421  2.0946
14285TIP3    H264347   3.920   6.075   2.259 -0.2533  0.0601  0.2156
14286TIP3   OH264348   5.734   1.966  16.792 -0.3312  0.4011 -0.3340
14286TIP3    H164349   5.815   1.965  16.741 -0.2956 -1.5770 -0.2892
14286TIP3    H264350   5.688   2.045  16.762  0.8964  0.7079 -1.4856
14287TIP3   OH264351   5.888   5.110   2.431  0.2455  0.2954 -0.0227
14287TIP3    H164352   5.928   5.023   2.420 -0.2213  0.1909 -0.9826
14287TIP3    H264353   5.850   5.108   2.519 -1.0417 -1.0167 -0.5632
14288TIP3   OH264354   4.025   0.671   4.553 -0.3926  0.3849  0.3590
14288TIP3    H164355   4.060   0.760   4.565 -0.8467  0.6074  0.0601
14288TIP3    H264356   3.936   0.684   4.522 -0.5383 -0.1827  0.5309
14289TIP3   OH264357   2.615   6.448   1.975 -0.4613 -0.4357 -0.2030
14289TIP3    H164358   2.699   6.405   1.957 -0.4241  0.1398 -1.5711
14289TIP3    H264359   2.549   6.380   1.959 -0.4832  0.2080 -3.6138
14290TIP3   OH264360   3.133   2.362   5.224  0.3678 -0.4859 -0.1395
14290TIP3    H164361   3.216   2.388   5.185  0.7924 -0.3512  0.8306
14290TIP3    H264362   3.140   2.386   5.316 -0.4548 -1.1501  0.1193
14291TIP3   OH264363   4.815   5.716   5.965  0.1020  0.2835  0.1192
14291TIP3    H164364   4.847   5.653   6.030  0.2424 -0.2816 -0.4862
14291TIP3    H264365   4.804   5.797   6.014 -2.0640 -0.6891  1.4411
14292TIP3   OH264366   1.819   2.139   2.308  0.0809  0.1322 -0.4446
14292TIP3    H164367   1.836   2.202   2.378  0.8533 -0.8337  0.2883
14292TIP3    H264368   1.829   2.054   2.351  0.2099 -0.4862 -1.6560
14293TIP3   OH264369   5.338   6.522   5.611  0.2415 -0.5663 -0.0584
14293TIP3    H164370   5.296   6.568   5.684 -0.9103 -1.3266 -0.2112
14293TIP3    H264371   5.299   6.562   5.533 -1.5781 -2.4450 -0.1908
14294TIP3   OH264372   4.961   2.696   0.343  0.3555  0.0519 -0.0071
14294TIP3    H164373   4.930   2.786   0.330  1.6345  0.6736  0.9725
14294TIP3    H264374   4.926   2.670   0.428  0.4505 -0.1714 -0.0343
14295TIP3   OH264375   4.590   4.930  15.043 -0.3698 -1.1814 -0.1027
14295TIP3    H164376   4.577   4.908  15.136 -0.7696 -1.3769 -0.2038
14295TIP3    H264377   4.675   4.975  15.041  1.1013 -3.7480 -0.0326
14296TIP3   OH264378   5.282   4.694   0.059  0.2622 -0.6125 -0.1034
14296TIP3    H164379   5.322   4.674   0.143  0.3889  0.4200  0.0956
14296TIP3    H264380   5.289   4.789   0.051 -2.0340 -0.3912 -0.1106
14297TIP3   OH264381   3.031   1.339   0.889 -0.4176  0.3744 -0.2783
14297TIP3    H164382   3.120   1.325   0.856  0.4639  2.4897  0.9394
14297TIP3    H264383   2.996   1.408   0.832 -0.7423  0.5219  0.0987
14298TIP3   OH264384   3.070   4.934   6.231 -0.1435 -0.3850 -0.7289
14298TIP3    H164385   3.135   4.989   6.276  0.3484 -1.0900 -0.5652
14298TIP3    H264386   3.009   4.997   6.192  0.0800  0.2666 -0.0563
14299TIP3   OH264387   4.400   0.592  16.569 -0.8549 -0.4845 -0.2387
14299TIP3    H164388   4.448   0.550  16.640 -0.7993 -0.3600 -0.2031
14299TIP3    H264389   4.447   0.673  16.552 -0.4888 -0.8140 -0.8555
14300TIP3   OH264390   6.647   5.275   0.979  0.0839  0.4202  0.2709
14300TIP3    H164391   6.642   5.348   0.918 -2.5106 -0.6867 -0.9772
14300TIP3    H264392   6.703   5.211   0.935 -1.7632 -0.3696 -1.0642
14301TIP3   OH264393   4.399   3.636   6.489 -0.3534  0.1523  0.4172
14301TIP3    H164394   4.344   3.664   6.561  0.7954  1.7464  0.7309
14301TIP3    H264395   4.431   3.549   6.515 -0.7170  0.2928  1.3655
14302TIP3   OH264396   5.098   1.607   5.441 -0.0280  0.3083  0.0731
14302TIP3    H164397   5.143   1.523   5.453 -0.1700  0.4613  2.0988
14302TIP3    H264398   5.100   1.648   5.528 -1.5220  1.6124 -0.4480
14303TIP3   OH264399   2.019   0.903   2.542  0.4726  0.0812  0.3745
14303TIP3    H164400   2.050   0.987   2.508  1.5126 -0.7023 -0.6508
14303TIP3    H264401   1.973   0.863   2.469  0.9497 -0.7314  0.5163
14304TIP3   OH264402   0.228   5.856  14.575  0.4253 -0.7800  0.2941
14304TIP3    H164403   0.168   5.916  14.620 -2.3126 -0.9561 -2.7859
14304TIP3    H264404   0.303   5.911  14.552  0.3329  0.1273  1.9450
14305TIP3   OH264405   6.118   5.959   3.772  0.0021  0.3553  0.2149
14305TIP3    H164406   6.044   5.898   3.776  0.3376 -0.0724 -0.0913
14305TIP3    H264407   6.182   5.924   3.834  0.9249 -0.5896 -1.2095
14306TIP3   OH264408   2.883   0.801   1.625  0.3786  1.1545 -0.1618
14306TIP3    H164409   2.797   0.818   1.664 -0.4246  0.6886 -1.6435
14306TIP3    H264410   2.916   0.887   1.600  0.9358  1.4703  1.5159
14307TIP3   OH264411   2.010   2.528  14.559  0.0910 -0.5915 -0.3563
14307TIP3    H164412   1.983   2.438  14.542 -0.3501 -0.3956 -0.7045
14307TIP3    H264413   1.985   2.576  14.480  0.6060 -0.2235 -0.2970
14308TIP3   OH264414   3.943   6.481   5.532 -0.0428 -0.5832  0.1342
14308TIP3    H164415   3.950   6.576   5.542 -1.9444 -0.3421 -0.4303
14308TIP3    H264416   4.022   6.456   5.484  0.2829  0.7820 -0.0732
14309TIP3   OH264417   3.470   3.927  10.789 -0.3591  0.1769 -0.4139
14309TIP3    H164418   3.391   3.946  10.839 -0.1428  0.0847 -0.0304
14309TIP3    H264419   3.503   4.013  10.762 -0.6806  0.2046 -0.7190
14310TIP3   OH264420   3.377   5.890   1.435 -0.0700  0.1522 -0.6290
14310TIP3    H164421   3.328   5.808   1.422  0.2226 -0.1341  0.0285
14310TIP3    H264422   3.429   5.874   1.514  0.4810  0.7421 -0.8677
14311TIP3   OH264423   3.539   1.535   3.107  0.2072  0.0402 -0.2723
14311TIP3    H164424   3.561   1.602   3.172  0.1884  1.0716 -1.2986
14311TIP3    H264425   3.621   1.491   3.089 -0.0897 -1.4463  1.7083
14312TIP3   OH264426   5.438   1.025  10.883 -0.1824  0.2012  0.2023
14312TIP3    H164427   5.474   0.939  10.862  0.6291  0.4789  0.4506
14312TIP3    H264428   5.451   1.034  10.978  1.5428  1.4036 -0.1040
14313TIP3   OH264429   1.366   3.278   2.845  0.1925  0.1775 -0.5667
14313TIP3    H164430   1.392   3.321   2.926  1.3848 -0.0695 -0.7881
14313TIP3    H264431   1.298   3.216   2.871 -0.0908  0.7390  0.0800
14314TIP3   OH264432   3.730   4.930  16.572 -0.0090 -0.1487 -0.2213
14314TIP3    H164433   3.814   4.932  16.620 -0.1055 -0.9042 -0.0054
14314TIP3    H264434   3.729   5.012  16.523 -0.0164  0.7797  1.2624
14315TIP3   OH264435   2.764   4.430   1.198 -0.0510 -0.0227  0.4993
14315TIP3    H164436   2.695   4.365   1.184 -0.8248  0.6213  1.2184
14315TIP3    H264437   2.726   4.512   1.167  1.8161 -0.2362 -2.9055
14316TIP3   OH264438   4.114   3.708  13.322  0.0151 -0.2349  0.0377
14316TIP3    H164439   4.024   3.681  13.302  0.3845 -1.3749 -0.1287
14316TIP3    H264440   4.129   3.678  13.411  0.4157 -0.5391 -0.1301
14317TIP3   OH264441   6.777   3.030   0.025  0.3248 -0.2680  0.5604
14317TIP3    H164442   6.804   3.120   0.008 -0.9208  0.2978  1.4045
14317TIP3    H264443   6.805   2.981  -0.053  1.0392  0.8291  0.1070
14318TIP3   OH264444   5.082   1.288   5.342  0.4257 -0.3871 -0.1732
14318TIP3    H164445   5.150   1.307   5.407 -0.6000 -0.7414  1.0553
14318TIP3    H264446   5.120   1.221   5.285  0.7192 -1.4198  1.1906
14319TIP3   OH264447   5.257   3.945  10.869  0.1471 -0.3524  0.0848
14319TIP3    H164448   5.258   3.850  10.866 -3.7918 -0.6646  1.7812
14319TIP3    H264449   5.346   3.972  10.845  0.9111 -4.3134 -2.3466
14320TIP3   OH264450   3.895   6.259   3.523  0.0745 -0.2295 -0.6314
14320TIP3    H164451   3.972   6.203   3.521 -0.2426 -0.7557  0.6711
14320TIP3    H264452   3.879   6.274   3.616 -2.2689 -1.4002 -0.7712
14321TIP3   OH264453   4.624   1.518   1.824  0.4786  0.2178 -0.5135
14321TIP3    H164454   4.683   1.507   1.750  0.4458 -2.0600 -0.2539
14321TIP3    H264455   4.598   1.430   1.848 -2.7455  1.0972 -0.3236
14322TIP3   OH264456   0.936   5.545  14.576  0.1606 -0.6397 -0.2139
14322TIP3    H164457   0.937   5.625  14.522 -0.2184 -1.0429 -0.8381
14322TIP3    H264458   0.902   5.574  14.660  0.2886 -0.0863 -0.3435
14323TIP3   OH264459   0.525   5.733   3.366  0.0419  0.5605  0.5908
14323TIP3    H164460   0.557   5.809   3.414  1.7764 -0.0008  0.3765
14323TIP3    H264461   0.429   5.742   3.367  0.1795  4.1059 -1.6563
14324TIP3   OH264462   5.820   2.730   5.141  0.3665  0.2038  0.2234
14324TIP3    H164463   5.865   2.807   5.176  2.7851 -1.7784  1.8786
14324TIP3    H264464   5.842   2.660   5.202 -1.0552 -1.9864 -1.6134
14325TIP3   OH264465   6.629   1.966  12.577  0.2053  0.1127 -0.8345
14325TIP3    H164466   6.627   1.892  12.637 -0.4252  0.2888 -0.6285
14325TIP3    H264467   6.570   1.939  12.505 -1.2110  0.9896 -0.0489
14326TIP3   OH264468   2.513   0.669   2.941 -0.1824  0.6196  0.5287
14326TIP3    H164469   2.598   0.698   2.973 -0.0389  0.4734  0.2772
14326TIP3    H264470   2.455   0.745   2.955  0.6016  1.7836 -1.8880
14327TIP3   OH264471   5.450   4.918  13.647 -0.0743  0.1440  0.1388
14327TIP3    H164472   5.509   4.992  13.630 -0.3403 -0.0714 -2.0345
14327TIP3    H264473   5.509   4.844  13.664  0.2206  0.4864  0.6304
14328TIP3   OH264474   1.651   0.365   0.776 -0.0887 -0.0221 -0.0399
14328TIP3    H164475   1.633   0.371   0.683  0.3430  0.2504 -0.1111
14328TIP3    H264476   1.567   0.382   0.818  0.1713  2.2513 -0.3398
14329TIP3   OH264477   4.704   2.688  14.699  0.4014 -0.7617  0.0211
14329TIP3    H164478   4.725   2.600  14.670  2.7433 -0.6941  1.2710
14329TIP3    H264479   4.705   2.682  14.795 -0.3105  0.4428  0.1245
14330TIP3   OH264480   6.345   3.384  14.743 -0.5515 -0.2692  0.1264
14330TIP3    H164481   6.357   3.478  14.726  0.8301 -0.1741  1.4070
14330TIP3    H264482   6.370   3.341  14.661  2.3075  0.3440  0.5768
14331TIP3   OH264483   1.389   5.276   0.122 -0.4340  0.3191  0.0726
14331TIP3    H164484   1.296   5.294   0.109 -0.1789  0.7089 -1.4043
14331TIP3    H264485   1.410   5.209   0.056  0.2740  0.0413  0.5658
14332TIP3   OH264486   4.121   4.828  15.417  0.0279 -0.1987  0.2289
14332TIP3    H164487   4.095   4.843  15.508  0.2604  0.6511  0.1569
14332TIP3    H264488   4.114   4.733  15.406  0.9985 -0.4444  1.4488
14333TIP3   OH264489   2.155   4.094   0.133 -0.2738 -0.2835 -0.0996
14333TIP3    H164490   2.232   4.151   0.131 -0.8998  0.5732 -1.3406
14333TIP3    H264491   2.186   4.011   0.097  0.3199 -0.2960  0.4214
14334TIP3   OH264492   2.914   6.575   1.861 -0.4608 -0.4636 -0.0391
14334TIP3    H164493   2.991   6.518   1.852 -0.7854 -0.7851 -0.8219
14334TIP3    H264494   2.865   6.563   1.780 -0.4060  1.1346 -0.3481
14335TIP3   OH264495   4.286   4.560   3.100  0.2148 -0.5694 -0.5396
14335TIP3    H164496   4.319   4.577   3.189 -1.5330  0.4182 -0.0231
14335TIP3    H264497   4.195   4.532   3.114 -0.1894 -0.0717 -2.0275
14336TIP3   OH264498   6.604   2.459  16.988 -0.1586  0.6656 -0.6008
14336TIP3    H164499   6.598   2.518  17.063  0.3040  0.3680 -0.3274
14336TIP3    H264500   6.601   2.371  17.026 -0.1721  0.5099 -0.9519
14337TIP3   OH264501   5.384   5.539  16.790 -0.0541 -0.0072 -0.6064
14337TIP3    H164502   5.454   5.511  16.850  0.4381  0.2883 -1.0306
14337TIP3    H264503   5.358   5.625  16.824 -0.9046 -0.5309  0.1300
14338TIP3   OH264504   2.858   3.175   5.722 -0.3414 -0.1561  0.4291
14338TIP3    H164505   2.857   3.080   5.721 -0.8547 -0.1598 -0.6798
14338TIP3    H264506   2.805   3.199   5.798  0.0440 -0.7435  0.8893
14339TIP3   OH264507   3.695   4.069  17.121 -0.0600  0.1205 -0.6570
14339TIP3    H164508   3.775   4.086  17.071  0.5252 -2.1745 -0.6096
14339TIP3    H264509   3.688   4.143  17.181  2.0905  0.3163 -0.5794
14340TIP3   OH264510   6.607   6.550   2.401 -0.5922 -0.3741 -0.4345
14340TIP3    H164511   6.534   6.497   2.432 -1.1416  0.0478 -0.9905
14340TIP3    H264512   6.685   6.507   2.436 -1.1577 -0.2601  1.0038
14341TIP3   OH264513   5.231   5.630   1.287 -0.6517  0.2307 -0.1056
14341TIP3    H164514   5.264   5.641   1.376  0.0636 -2.9269  0.1448
14341TIP3    H264515   5.206   5.718   1.259  1.9707  1.8149  2.0609
14342TIP3   OH264516   3.069   4.317   2.548  0.8792  0.4422 -0.4611
14342TIP3    H164517   3.034   4.389   2.600  0.4294 -0.8219  1.0965
14342TIP3    H264518   3.122   4.359   2.481 -0.2018  2.2440 -0.2633
14343TIP3   OH264519   1.946   2.859  11.251  0.3730 -0.5546  0.3547
14343TIP3    H164520   2.035   2.897  11.251 -0.4637  1.5766 -0.2419
14343TIP3    H264521   1.960   2.765  11.257  2.6231 -0.1918  2.2087
14344TIP3   OH264522   2.755   0.766  12.232 -0.1842 -0.1513 -0.1576
14344TIP3    H164523   2.709   0.827  12.290 -0.5689 -0.8913  0.3440
14344TIP3    H264524   2.694   0.751  12.160  0.0665  0.3471 -0.4728
14345TIP3   OH264525   6.039   5.324   0.966 -0.7751 -0.1273  0.3985
14345TIP3    H164526   6.083   5.286   0.889 -1.2269  2.6556 -1.3638
14345TIP3    H264527   6.056   5.261   1.036  0.8068 -2.1542 -1.6361
14346TIP3   OH264528   6.384   2.840   2.064  0.6801  0.2051  0.0691
14346TIP3    H164529   6.366   2.927   2.027  1.3502 -0.1874 -1.2135
14346TIP3    H264530   6.480   2.837   2.070  0.6022  0.5363  2.5773
14347TIP3   OH264531   3.171   4.922  14.851  0.3968 -0.1912 -0.4003
14347TIP3    H164532   3.083   4.953  14.832 -0.0419 -1.6415 -0.8808
14347TIP3    H264533   3.227   4.999  14.840 -0.7515  0.6588 -0.4644
14348TIP3   OH264534   4.802   3.381  12.213 -0.7302 -0.3432 -0.5497
14348TIP3    H164535   4.849   3.421  12.287 -0.3955 -0.4162 -0.7195
14348TIP3    H264536   4.722   3.345  12.252 -0.9072  0.2549 -0.3464
14349TIP3   OH264537   3.978   1.581   1.957  0.2604 -0.5926  0.0140
14349TIP3    H164538   3.907   1.642   1.973  0.5081 -0.1049 -0.6916
14349TIP3    H264539   3.989   1.534   2.040  0.3864  0.6488  0.7258
14350TIP3   OH264540   6.705   2.912  12.866  0.3573 -0.5980  0.0610
14350TIP3    H164541   6.644   2.970  12.821 -0.2526 -0.9643  0.3943
14350TIP3    H264542   6.781   2.907  12.808  0.2936  0.2957 -0.1039
14351TIP3   OH264543   6.366   1.005  16.783 -0.2207 -0.1721 -0.7605
14351TIP3    H164544   6.416   1.071  16.735  1.9488 -1.6614 -0.7191
14351TIP3    H264545   6.389   1.021  16.875  1.4017 -1.7321 -0.8465
14352TIP3   OH264546   0.479   3.192   5.347  0.7769  0.1934 -0.3522
14352TIP3    H164547   0.404   3.150   5.306  0.7944  0.8584 -1.0852
14352TIP3    H264548   0.537   3.120   5.372 -0.1520 -0.3431  0.3556
14353TIP3   OH264549   2.865   0.508  12.184 -0.0711 -0.2047  0.1512
14353TIP3    H164550   2.946   0.510  12.235 -0.4320  2.0349  0.7518
14353TIP3    H264551   2.812   0.579  12.221 -0.9962  0.4785 -2.3237
14354TIP3   OH264552   4.702   3.575   6.547  0.1044 -0.1603 -0.4738
14354TIP3    H164553   4.691   3.582   6.453 -0.5116  0.4815 -0.3625
14354TIP3    H264554   4.636   3.633   6.584  0.8037  0.1497  0.3403
14355TIP3   OH264555   1.689   6.510  15.561 -0.2913 -0.0063 -0.6265
14355TIP3    H164556   1.639   6.465  15.493 -2.0186  1.2823 -0.2664
14355TIP3    H264557   1.635   6.502  15.640 -0.5043  2.3094 -0.4648
14356TIP3   OH264558   1.247   1.667   0.570 -0.4269  0.7527  0.6794
14356TIP3    H164559   1.275   1.587   0.526 -2.3925 -0.9829  2.3453
14356TIP3    H264560   1.177   1.702   0.515  1.3622  2.1681 -0.7735
14357TIP3   OH264561   0.324   5.210  12.410 -0.1283 -0.3532  0.2832
14357TIP3    H164562   0.331   5.154  12.333  3.0922  0.8929 -0.4805
14357TIP3    H264563   0.359   5.294  12.383  0.5920  0.3077  2.9551
14358TIP3   OH264564   4.816   1.584   5.631 -0.0444  0.0511 -0.2015
14358TIP3    H164565   4.881   1.560   5.698  0.1176 -2.3106 -1.0991
14358TIP3    H264566   4.733   1.586   5.677  0.2907  0.2505  0.4042
14359TIP3   OH264567   3.090   2.133   3.150  0.3194  0.5831 -0.4709
14359TIP3    H164568   3.099   2.070   3.078 -0.5108  1.6821 -1.5671
14359TIP3    H264569   3.028   2.198   3.118  0.2176  1.3096  1.1100
14360TIP3   OH264570   6.730   2.276  12.387 -0.1685  0.1023  0.3388
14360TIP3    H164571   6.636   2.291  12.373 -0.8037 -1.0361  2.8675
14360TIP3    H264572   6.743   2.184  12.364  0.0060 -0.1157  1.2504
14361TIP3   OH264573   2.904   1.817   2.285  0.0137  0.4937  0.6989
14361TIP3    H164574   2.874   1.896   2.331 -1.6430  0.3688 -0.0795
14361TIP3    H264575   2.830   1.794   2.228  1.2612 -0.4450 -0.6000
14362TIP3   OH264576   1.104   4.737   0.305  0.7137 -0.6084 -0.2359
14362TIP3    H164577   1.110   4.644   0.325  1.3784 -0.0416  2.5463
14362TIP3    H264578   1.049   4.773   0.375  0.2685  1.0688 -1.3944
14363TIP3   OH264579   2.819   5.324   4.647 -0.4811 -0.5414 -0.0714
14363TIP3    H164580   2.865   5.313   4.730  0.7416 -1.9765 -0.8905
14363TIP3    H264581   2.761   5.399   4.662  0.1089 -0.4052  1.8798
14364TIP3   OH264582   4.315   3.963   2.479  0.0694  0.2369  0.0860
14364TIP3    H164583   4.317   3.944   2.385 -1.7493  0.5650 -0.0529
14364TIP3    H264584   4.406   3.951   2.508  0.7720  0.6956 -1.8137
14365TIP3   OH264585   1.722   6.333   3.204 -0.5176 -0.4235 -0.0411
14365TIP3    H164586   1.668   6.375   3.137 -2.2905 -0.0953  1.4988
14365TIP3    H264587   1.811   6.363   3.186 -1.1667  0.8844 -1.3025
14366TIP3   OH264588   3.987   0.124   5.885  0.5565  0.0524 -0.4923
14366TIP3    H164589   4.014   0.042   5.842  0.3102  0.4976 -1.5380
14366TIP3    H264590   4.024   0.193   5.830  1.0245  0.6562  0.5512
14367TIP3   OH264591   5.194   6.400  14.313  0.1896 -0.2981 -0.5905
14367TIP3    H164592   5.165   6.370  14.227  0.9780 -0.9212 -0.6386
14367TIP3    H264593   5.126   6.370  14.373  0.0741 -0.6125 -0.8784
14368TIP3   OH264594   0.734   6.732  14.154  0.0261  0.0611  0.2435
14368TIP3    H164595   0.662   6.678  14.122 -0.9752 -0.1506  2.6664
14368TIP3    H264596   0.756   6.694  14.239 -0.1489  2.9317  1.6655
14369TIP3   OH264597   1.526   1.422  16.321  0.0407 -0.4004  0.0708
14369TIP3    H164598   1.466   1.489  16.289 -0.5943 -1.0850 -0.2066
14369TIP3    H264599   1.612   1.464  16.323 -0.2657  0.2584 -0.5816
14370TIP3   OH264600   0.237   3.649  14.043 -0.6609 -0.2214  0.4902
14370TIP3    H164601   0.177   3.691  14.105  0.2034  0.0327  1.1792
14370TIP3    H264602   0.258   3.718  13.980  0.7500  0.4398  1.6152
14371TIP3   OH264603   0.372   2.347   0.087  0.0634 -0.4226 -0.1128
14371TIP3    H164604   0.433   2.275   0.070  1.2457  0.6234 -0.5206
14371TIP3    H264605   0.345   2.334   0.178  0.8566 -0.9657  0.0623
14372TIP3   OH264606   1.461   5.635  12.470 -0.9182 -0.4552  0.2323
14372TIP3    H164607   1.437   5.556  12.519 -2.0199  0.8784  1.9584
14372TIP3    H264608   1.385   5.651  12.414 -0.0303 -1.4661 -1.3431
14373TIP3   OH264609   0.376   5.163  17.007 -0.4987 -0.2128 -0.2682
14373TIP3    H164610   0.391   5.088  16.950 -1.0719  0.4937 -1.3834
14373TIP3    H264611   0.459   5.176  17.053 -0.0817 -0.9136 -0.8083
14374TIP3   OH264612   6.044   4.718   1.085 -0.2071 -0.2506  0.2416
14374TIP3    H164613   5.973   4.668   1.045 -0.7219 -0.0716  0.9078
14374TIP3    H264614   6.095   4.751   1.011 -0.9712 -0.1688 -0.2628
14375TIP3   OH264615   6.326   0.724  12.011  0.0824  0.3515  1.0540
14375TIP3    H164616   6.262   0.725  12.083 -2.0150 -0.1932 -0.7076
14375TIP3    H264617   6.360   0.635  12.010 -0.6173  0.0828  0.7764
14376TIP3   OH264618   4.223   2.437   2.484 -0.1904 -0.5423 -0.6091
14376TIP3    H164619   4.299   2.488   2.455 -0.9114 -0.2348 -2.0572
14376TIP3    H264620   4.243   2.347   2.459 -0.9374 -0.2363 -2.4743
14377TIP3   OH264621   5.788   6.280   0.389 -0.0618 -0.2141 -0.1927
14377TIP3    H164622   5.724   6.254   0.323  1.0697  0.3955 -1.5953
14377TIP3    H264623   5.851   6.334   0.341  0.5618  0.6354  1.4973
14378TIP3   OH264624   3.205   5.644  12.495  0.1695 -0.1826  0.6888
14378TIP3    H164625   3.188   5.552  12.515 -1.0778  0.2291  1.6654
14378TIP3    H264626   3.298   5.656  12.517  0.5177 -1.3316 -0.0390
14379TIP3   OH264627   6.140   0.352  11.815 -0.0405  0.1671 -0.3258
14379TIP3    H164628   6.165   0.387  11.729  1.3182 -2.6006 -1.2144
14379TIP3    H264629   6.217   0.302  11.843 -0.9819 -0.1594  1.8717
14380TIP3   OH264630   4.505   2.517   3.682 -0.1660  0.8547 -0.1579
14380TIP3    H164631   4.579   2.459   3.702 -1.2049  0.0115  1.3729
14380TIP3    H264632   4.504   2.580   3.754 -0.5892  1.2110 -0.4749
14381TIP3   OH264633   4.529   0.298  10.780 -0.6915  0.1164  0.0516
14381TIP3    H164634   4.587   0.337  10.715 -1.1369  1.6187  0.5205
14381TIP3    H264635   4.488   0.372  10.824 -0.4290 -0.8447  2.0444
14382TIP3   OH264636   1.240   3.666   6.230 -0.0954 -0.1963 -0.3251
14382TIP3    H164637   1.174   3.612   6.274  0.1398 -0.6480 -0.5189
14382TIP3    H264638   1.324   3.633   6.262  0.0511  0.0796 -0.4187
14383TIP3   OH264639   5.510   4.972   1.440 -0.3650 -0.7341 -0.2538
14383TIP3    H164640   5.473   4.958   1.527  0.3425  2.4588  0.7052
14383TIP3    H264641   5.592   4.923   1.441  0.0910 -0.0149  1.2971
14384TIP3   OH264642   1.946   3.820   4.173 -0.2755  0.3818 -0.2583
14384TIP3    H164643   1.976   3.860   4.092  0.9373 -0.4148 -0.2227
14384TIP3    H264644   2.000   3.742   4.183  0.2403  0.9327  1.7746
14385TIP3   OH264645   2.119   5.146   6.425  0.5391 -0.0322  0.1836
14385TIP3    H164646   2.131   5.103   6.341  0.5828  0.5757 -0.1231
14385TIP3    H264647   2.026   5.167   6.428  0.5675  0.0863  0.2223
14386TIP3   OH264648   1.270   2.828  14.983 -0.0686 -0.0030 -0.7858
14386TIP3    H164649   1.228   2.752  14.941  2.6133 -0.6616 -2.5383
14386TIP3    H264650   1.363   2.805  14.986  0.3999  1.8311  1.8466
14387TIP3   OH264651   5.099   0.811  11.872  0.5273 -0.4453  0.2119
14387TIP3    H164652   5.112   0.869  11.948 -2.9158 -1.2703  1.6498
14387TIP3    H264653   5.039   0.860  11.816  2.2615 -0.2735 -1.5877
14388TIP3   OH264654   2.874   1.765   4.184  0.0513 -0.9418 -0.3751
14388TIP3    H164655   2.863   1.716   4.265  0.1241 -0.5584 -0.1322
14388TIP3    H264656   2.948   1.824   4.201 -0.9717  0.3103 -0.1542
14389TIP3   OH264657   5.961   1.096  11.527 -0.3169 -0.1250 -0.8505
14389TIP3    H164658   5.921   1.111  11.613 -0.5949  0.7556 -1.1189
14389TIP3    H264659   6.042   1.147  11.529  0.4628 -1.3370 -0.5653
14390TIP3   OH264660   1.912   1.417  16.814  0.2738  0.2506 -0.3298
14390TIP3    H164661   1.899   1.508  16.784 -1.6007 -0.3319 -1.4686
14390TIP3    H264662   1.890   1.419  16.907  0.3031  0.9726 -0.3321
14391TIP3   OH264663   3.926   0.079  12.796 -0.0396 -0.4328 -0.1133
14391TIP3    H164664   3.836   0.047  12.786 -1.1605  1.2876  2.9827
14391TIP3    H264665   3.954   0.045  12.881  2.1546 -0.6056 -0.8431
14392TIP3   OH264666   6.025   6.093  12.276 -0.2956  0.1624 -0.0493
14392TIP3    H164667   5.978   6.027  12.327  1.0159 -0.8571 -0.0988
14392TIP3    H264668   6.019   6.062  12.186  0.8890 -0.2933  0.0041
14393TIP3   OH264669   6.017   5.826  15.730  0.3736  0.0456  0.9599
14393TIP3    H164670   5.942   5.790  15.777 -0.2605  0.9640  0.6921
14393TIP3    H264671   5.979   5.893  15.673  1.1854 -0.6865 -0.4972
14394TIP3   OH264672   2.286   3.107   3.430 -0.0758 -0.6952 -0.1160
14394TIP3    H164673   2.227   3.106   3.505  1.7093 -0.1624  1.3558
14394TIP3    H264674   2.287   3.016   3.399  0.3239 -1.2729  1.4907
14395TIP3   OH264675   2.911   3.232  11.521  0.2683  0.5996  0.2526
14395TIP3    H164676   2.952   3.165  11.576  1.0036 -0.5944 -1.6563
14395TIP3    H264677   2.983   3.289  11.495  0.0126  0.8653  0.1216
14396TIP3   OH264678   0.022   4.018   2.856 -0.0031  0.0804  0.0955
14396TIP3    H164679   0.116   4.033   2.868  0.4520 -0.0582 -2.6516
14396TIP3    H264680  -0.019   4.103   2.873  0.8391  0.6133 -0.4786
14397TIP3   OH264681   4.289   5.680  12.559 -0.1272  0.1123 -0.2882
14397TIP3    H164682   4.236   5.616  12.606  0.3419 -0.3060 -0.3288
14397TIP3    H264683   4.225   5.733  12.511 -0.4058 -1.9392 -2.3196
14398TIP3   OH264684   4.716   6.393   4.551 -0.1294  0.4214  0.1605
14398TIP3    H164685   4.646   6.328   4.555  1.2733 -1.1385  0.2761
14398TIP3    H264686   4.768   6.377   4.629  0.1017  1.8856  0.3311
14399TIP3   OH264687   6.815   3.359  11.171 -0.0951 -0.0173 -0.0783
14399TIP3    H164688   6.782   3.286  11.225  0.2042  0.0317  0.1777
14399TIP3    H264689   6.784   3.339  11.083 -1.3187  0.3389  0.2435
14400TIP3   OH264690   4.307   1.520   6.306 -0.5193  0.2801  0.0737
14400TIP3    H164691   4.345   1.600   6.270  1.4631 -0.4996  0.2829
14400TIP3    H264692   4.275   1.545   6.392  1.2225  0.6352  0.6620
14401TIP3   OH264693   2.226   1.049  12.792 -0.0297 -0.4782 -0.1830
14401TIP3    H164694   2.249   1.002  12.872  1.2314 -0.2219 -0.3667
14401TIP3    H264695   2.178   0.986  12.740  0.5851 -1.1851  0.0877
14402TIP3   OH264696   3.397   6.592   4.430  0.6138  0.7416 -0.5147
14402TIP3    H164697   3.394   6.593   4.335 -0.0127 -1.2819 -0.5587
14402TIP3    H264698   3.478   6.545   4.451  1.5928  2.5607  0.0107
14403TIP3   OH264699   2.199   5.567  15.708  0.7329  0.4909  0.4349
14403TIP3    H164700   2.134   5.637  15.716  1.5895  1.2279  1.3137
14403TIP3    H264701   2.233   5.556  15.797  2.0907  0.4170 -0.0650
14404TIP3   OH264702   5.806   2.839   2.099 -0.0915  0.4587 -0.4145
14404TIP3    H164703   5.769   2.910   2.150 -2.2059 -0.5507 -0.4486
14404TIP3    H264704   5.854   2.883   2.028 -1.1847  1.8542 -0.3336
14405TIP3   OH264705   0.253   3.131   5.824 -0.5930 -0.3227 -0.0630
14405TIP3    H164706   0.203   3.104   5.902 -1.3475 -1.4564 -0.9138
14405TIP3    H264707   0.286   3.218   5.847 -1.1694 -0.4411  1.3584
14406TIP3   OH264708   0.974   4.839  14.965 -0.0431  0.2439 -0.4119
14406TIP3    H164709   0.906   4.899  14.935 -0.8793 -0.2624  0.3933
14406TIP3    H264710   0.992   4.784  14.889 -1.0955 -0.1013 -0.4362
14407TIP3   OH264711   5.741   1.381   7.116  0.2788  0.8304  0.2968
14407TIP3    H164712   5.732   1.371   7.022  0.3021  0.8946  0.2875
14407TIP3    H264713   5.677   1.449   7.139 -1.3179 -0.7016  0.6427
14408TIP3   OH264714   1.013   5.790  14.771 -0.2864 -0.4493  0.4708
14408TIP3    H164715   0.983   5.831  14.853 -2.9091 -0.8818 -0.1848
14408TIP3    H264716   1.037   5.701  14.796 -2.0843 -0.9209  0.6695
14409TIP3   OH264717   6.348   1.010  14.821  0.4821 -0.0917  0.2302
14409TIP3    H164718   6.309   0.988  14.736  2.2360  3.2685 -1.6833
14409TIP3    H264719   6.284   1.067  14.863 -0.4947 -1.9557  1.3736
14410TIP3   OH264720   3.308   2.141   1.097  0.5058  0.4914  0.5542
14410TIP3    H164721   3.240   2.195   1.057  0.8885  0.6640  0.1244
14410TIP3    H264722   3.292   2.053   1.064  0.1644  0.4288  0.8849
14411TIP3   OH264723   2.139   6.183   4.668  0.1163 -0.1416 -0.6185
14411TIP3    H164724   2.158   6.183   4.762  0.1505  2.1345 -0.5802
14411TIP3    H264725   2.161   6.271   4.639 -0.0423 -0.7597 -2.7510
14412TIP3   OH264726   0.454   2.214  16.888 -0.1662 -0.4400 -0.5942
14412TIP3    H164727   0.388   2.276  16.921  0.0548 -1.0787  1.1875
14412TIP3    H264728   0.537   2.258  16.903 -0.0436 -0.8864  0.0776
14413TIP3   OH264729   0.202   0.933   3.848  0.0047 -0.4597 -1.0641
14413TIP3    H164730   0.196   0.990   3.771 -0.1746 -0.7157 -1.2398
14413TIP3    H264731   0.222   0.846   3.812 -2.2737 -1.0616 -1.0173
14414TIP3   OH264732   3.839   4.972  12.098  0.1465  0.3591 -0.0288
14414TIP3    H164733   3.765   4.911  12.095  0.7920 -0.3796 -2.4068
14414TIP3    H264734   3.909   4.923  12.141  0.7509 -0.7943 -2.1651
14415TIP3   OH264735   6.681   5.378  15.806 -0.1405  0.1892 -0.3189
14415TIP3    H164736   6.762   5.360  15.758  0.4184  0.3893  0.5157
14415TIP3    H264737   6.707   5.439  15.875 -0.1291 -2.6433  2.4255
14416TIP3   OH264738   2.081   1.393   5.237  0.4689  0.1991  0.0766
14416TIP3    H164739   2.129   1.406   5.319 -0.3480  0.9914  0.4490
14416TIP3    H264740   2.149   1.378   5.171  1.1059 -1.7958  1.0989
14417TIP3   OH264741   5.204   0.463  11.470  0.4572 -0.1006 -0.0827
14417TIP3    H164742   5.154   0.392  11.430  0.2403 -1.8540  2.9893
14417TIP3    H264743   5.280   0.474  11.412 -0.2558 -1.8093 -1.4526
14418TIP3   OH264744   1.881   1.847   0.791  0.0073 -0.0563  0.1682
14418TIP3    H164745   1.894   1.913   0.860 -0.1895  0.1700 -0.0077
14418TIP3    H264746   1.812   1.790   0.825  2.6770 -2.4744  1.9959
14419TIP3   OH264747   6.016   1.543  14.355  0.0161  0.2756 -0.2117
14419TIP3    H164748   5.944   1.581  14.305  0.8254  2.9417  0.4668
14419TIP3    H264749   6.030   1.457  14.316 -2.9295  0.0018 -0.9089
14420TIP3   OH264750   3.586   2.864   2.253  0.1013  0.0175 -0.0314
14420TIP3    H164751   3.560   2.896   2.339 -2.7266 -0.3639 -0.6481
14420TIP3    H264752   3.546   2.925   2.191 -1.5829 -2.0236 -1.1166
14421TIP3   OH264753   3.678   5.050  13.913 -0.8760 -0.1875 -0.4833
14421TIP3    H164754   3.656   5.096  13.994  0.3261 -0.3703 -0.0294
14421TIP3    H264755   3.637   5.102  13.843 -0.6289  0.8382  0.1200
14422TIP3   OH264756   5.992   5.580   5.179  0.0100 -0.2321 -0.6737
14422TIP3    H164757   6.056   5.581   5.108 -1.5510 -0.0383 -2.1616
14422TIP3    H264758   5.909   5.561   5.135 -0.8500 -1.1854  1.2719
14423TIP3   OH264759   5.951   6.765  13.506 -0.5343  0.3197  0.5839
14423TIP3    H164760   5.859   6.763  13.480 -0.5319 -2.3211  0.5458
14423TIP3    H264761   5.973   6.674  13.526  2.2285  0.7935  0.1243
14424TIP3   OH264762   4.107   4.893   0.201 -0.5498  0.3255  0.1926
14424TIP3    H164763   4.181   4.858   0.153  1.0376  0.9050  2.0669
14424TIP3    H264764   4.106   4.987   0.180 -1.2931  0.1764 -0.4762
14425TIP3   OH264765   3.444   2.976  16.389  0.5169 -0.0417  0.2608
14425TIP3    H164766   3.496   2.991  16.468  0.0304 -0.3637  0.6395
14425TIP3    H264767   3.510   2.962  16.320  0.9381 -0.0632  0.6640
14426TIP3   OH264768   1.702   4.611   1.889 -1.0940 -0.0996 -0.2748
14426TIP3    H164769   1.774   4.550   1.903  0.5733  1.5998 -1.0666
14426TIP3    H264770   1.642   4.564   1.831  0.8511 -0.5417 -2.0744
14427TIP3   OH264771   3.556   1.310  11.674 -0.1087  0.1507 -0.2426
14427TIP3    H164772   3.625   1.248  11.651  0.5759  0.9045 -0.2669
14427TIP3    H264773   3.537   1.356  11.592 -0.7147 -0.1095 -0.2567
14428TIP3   OH264774   1.543   2.313  10.628  0.1490 -0.6326  0.3986
14428TIP3    H164775   1.630   2.274  10.615 -0.2775 -2.9622  3.3553
14428TIP3    H264776   1.554   2.369  10.704 -0.7376 -0.1380  0.1643
14429TIP3   OH264777   3.287   4.066   3.853 -0.0832  0.3752  0.4438
14429TIP3    H164778   3.229   4.095   3.923 -0.3560 -0.3657  0.5340
14429TIP3    H264779   3.280   3.971   3.854 -1.3924  0.3742 -1.6565
14430TIP3   OH264780   2.906   4.130   3.942 -0.1967  0.3914  0.1685
14430TIP3    H164781   2.828   4.075   3.940  0.5564 -0.6968 -0.3541
14430TIP3    H264782   2.883   4.206   3.888 -0.3516 -0.7209 -1.4111
14431TIP3   OH264783   2.163   4.045  11.636  0.1585  0.1423 -0.4824
14431TIP3    H164784   2.131   3.984  11.702 -0.6420  1.2766  0.2150
14431TIP3    H264785   2.138   4.006  11.552 -0.7014 -0.2768 -0.0341
14432TIP3   OH264786   3.727   0.342  14.701  0.4797  0.0833  0.1319
14432TIP3    H164787   3.686   0.295  14.628  1.3179 -2.4704  1.1850
14432TIP3    H264788   3.656   0.352  14.765  0.4796 -0.5101  0.2304
14433TIP3   OH264789   0.974   0.982  11.611 -0.2180 -0.1194  0.3458
14433TIP3    H164790   0.983   1.049  11.544  1.7732  0.7703  1.4095
14433TIP3    H264791   0.971   0.900  11.562 -0.1857  0.5818 -0.8739
14434TIP3   OH264792   5.109   0.184   0.141 -0.3684 -0.1383 -0.9019
14434TIP3    H164793   5.083   0.113   0.083 -0.9631 -0.9297  0.2972
14434TIP3    H264794   5.199   0.162   0.168  0.5414  1.0736 -2.7389
14435TIP3   OH264795   4.961   1.315  11.428  0.3061  0.3092  0.3255
14435TIP3    H164796   4.917   1.387  11.473 -0.3439  1.4987 -2.0545
14435TIP3    H264797   5.055   1.332  11.441  0.1397  1.0657  0.5977
14436TIP3   OH264798   6.327   2.093  11.783  0.0779 -0.0775 -0.0310
14436TIP3    H164799   6.252   2.150  11.799 -0.9254 -1.1888 -0.6272
14436TIP3    H264800   6.346   2.103  11.690 -0.0875 -0.6595 -0.1362
14437TIP3   OH264801   2.254   5.661   1.685  0.3014 -0.0762  0.0773
14437TIP3    H164802   2.240   5.743   1.733 -2.8430 -0.4230 -0.0741
14437TIP3    H264803   2.251   5.687   1.593 -0.0499 -0.2514  0.0368
14438TIP3   OH264804   1.587   2.160   4.762 -0.2874 -0.8798 -0.0493
14438TIP3    H164805   1.566   2.221   4.691 -1.2799 -1.3709 -0.1961
14438TIP3    H264806   1.643   2.210   4.821  0.4947 -0.4355 -1.1259
14439TIP3   OH264807   4.573   4.381   3.754 -0.2817 -0.0337 -0.5837
14439TIP3    H164808   4.648   4.333   3.790 -0.2493 -0.3400 -1.0533
14439TIP3    H264809   4.597   4.473   3.764 -0.1458 -0.1176 -0.0931
14440TIP3   OH264810   5.892   0.312   4.220  0.1529 -0.0473 -0.2754
14440TIP3    H164811   5.877   0.220   4.198  1.1897 -0.0519 -1.0132
14440TIP3    H264812   5.979   0.314   4.259 -0.8608  0.2654  2.0974
14441TIP3   OH264813   6.709   2.144  12.770 -0.0437 -0.4832  0.6451
14441TIP3    H164814   6.749   2.081  12.830 -1.3456 -0.5045  1.5326
14441TIP3    H264815   6.696   2.094  12.689 -0.1937 -1.0828  1.0282
14442TIP3   OH264816   4.478   3.404  15.056 -0.7234 -0.3911 -0.5428
14442TIP3    H164817   4.419   3.367  14.991 -1.9941 -0.9777  0.8819
14442TIP3    H264818   4.535   3.331  15.081  0.3363  0.0529 -1.5744
14443TIP3   OH264819   6.028   6.615   1.520  0.4786  0.5953 -0.3988
14443TIP3    H164820   6.028   6.538   1.577  0.1602  0.8535 -0.0445
14443TIP3    H264821   6.120   6.637   1.509  0.6775 -0.7648 -1.7847
14444TIP3   OH264822   6.118   0.074  14.616 -0.0960 -0.2327 -0.1424
14444TIP3    H164823   6.098   0.165  14.593 -0.3283  0.2023  1.6332
14444TIP3    H264824   6.090   0.066  14.707  3.1684 -1.0352  0.9058
14445TIP3   OH264825   2.931   4.316  13.572  0.3738 -0.1209 -0.8734
14445TIP3    H164826   2.937   4.358  13.487 -0.7245 -1.9994 -1.9462
14445TIP3    H264827   3.022   4.298  13.596  0.8331  2.1863 -0.6495
14446TIP3   OH264828   4.347   6.351   5.430  0.1437 -0.1845  0.1115
14446TIP3    H164829   4.437   6.351   5.398 -0.6697 -2.3158 -2.4685
14446TIP3    H264830   4.330   6.443   5.450  2.1488  0.6480 -1.5713
14447TIP3   OH264831   2.430   1.682   2.073 -0.1660  0.4229  0.2198
14447TIP3    H164832   2.377   1.603   2.072  1.1799 -0.6350 -3.0177
14447TIP3    H264833   2.487   1.672   2.149 -2.1574 -0.1020  1.7097
14448TIP3   OH264834   6.307   3.430  17.100  1.2156  0.1679  0.3269
14448TIP3    H164835   6.356   3.457  17.022 -0.6786 -0.6343 -1.1978
14448TIP3    H264836   6.216   3.453  17.081  0.6327 -0.4844  2.1154
14449TIP3   OH264837   6.068   4.597  13.263 -0.2004  0.2814  0.0561
14449TIP3    H164838   6.082   4.678  13.215 -0.3919  0.4999  0.3667
14449TIP3    H264839   6.025   4.624  13.345  1.0439  0.0168  0.8145
14450TIP3   OH264840   1.235   2.032  15.935  0.9386 -0.2985  0.0320
14450TIP3    H164841   1.234   1.953  15.881  0.2190  0.2383 -0.7779
14450TIP3    H264842   1.279   2.097  15.880 -0.5609  0.4916 -0.2901
14451TIP3   OH264843   1.474   1.525  12.369 -0.0712 -0.0236 -0.7386
14451TIP3    H164844   1.402   1.522  12.306 -0.3509  1.6712 -0.5396
14451TIP3    H264845   1.465   1.610  12.412  0.1379 -1.0633  1.5478
14452TIP3   OH264846   2.776   0.854   5.902 -0.4310 -0.3559 -0.0849
14452TIP3    H164847   2.815   0.819   5.982  1.8572 -2.1975 -1.8488
14452TIP3    H264848   2.834   0.927   5.878  0.7210 -1.6813 -1.5384
14453TIP3   OH264849   4.718   4.266  14.888  0.0680 -0.1362 -0.3618
14453TIP3    H164850   4.797   4.219  14.916  0.1195  0.5765  0.7708
14453TIP3    H264851   4.750   4.337  14.832  0.2947  0.4733  0.5251
14454TIP3   OH264852   3.905   5.722  15.334  0.3883 -0.1204 -0.5490
14454TIP3    H164853   3.986   5.732  15.383 -0.5118 -0.2864  1.0567
14454TIP3    H264854   3.895   5.627  15.323  0.3819 -0.1037 -0.6861
14455TIP3   OH264855   3.804   2.299  17.181  0.2002 -0.5942  0.0625
14455TIP3    H164856   3.879   2.253  17.144 -0.0426 -0.9039 -0.0459
14455TIP3    H264857   3.746   2.314  17.107  0.2310 -0.2054  0.1165
14456TIP3   OH264858   1.056   1.096   4.971 -0.4186  0.1287  0.3911
14456TIP3    H164859   1.052   1.008   5.007 -0.5885  0.9287  2.4500
14456TIP3    H264860   1.115   1.143   5.029  0.3038  1.1892 -1.1347
14457TIP3   OH264861   5.614   4.404   0.005  0.3179 -0.2980  0.6751
14457TIP3    H164862   5.562   4.459  -0.054 -0.0226 -1.0378  0.2671
14457TIP3    H264863   5.680   4.463   0.042 -1.7814  1.0871  2.4876
14458TIP3   OH264864   3.672   1.771  16.772  0.0432  0.5745  0.3588
14458TIP3    H164865   3.622   1.715  16.831 -3.8088  1.2833 -1.8695
14458TIP3    H264866   3.736   1.713  16.731 -0.0047 -0.8267  2.1738
14459TIP3   OH264867   6.400   3.348   4.863  0.1566  0.2605  0.1500
14459TIP3    H164868   6.353   3.297   4.928 -0.9339  3.5331  2.1981
14459TIP3    H264869   6.492   3.330   4.880 -0.1794 -0.8213  0.9261
14460TIP3   OH264870   3.596   6.774   6.201  0.0934 -0.6844  0.4024
14460TIP3    H164871   3.585   6.737   6.289 -1.0634 -1.9386 -0.2481
14460TIP3    H264872   3.655   6.713   6.157  0.7521 -0.0020  0.3144
14461TIP3   OH264873   1.471   1.312   0.724 -0.6526  0.4037 -0.4653
14461TIP3    H164874   1.485   1.406   0.712  1.1599  0.1388 -0.8266
14461TIP3    H264875   1.386   1.295   0.685  0.0274  1.5228 -2.5920
14462TIP3   OH264876   2.701   2.384   5.241 -0.0789 -0.1331  0.3879
14462TIP3    H164877   2.619   2.432   5.251  0.0907  0.2692 -0.1288
14462TIP3    H264878   2.718   2.347   5.328 -0.6940 -0.0409  0.5500
14463TIP3   OH264879   4.453   4.858   5.286 -0.4857  0.2044 -0.5591
14463TIP3    H164880   4.497   4.862   5.371 -1.5579  2.1167 -0.0461
14463TIP3    H264881   4.513   4.900   5.225  0.1416 -0.8747 -0.7033
14464TIP3   OH264882   4.035   4.489   3.219  0.0523  0.4444  0.0190
14464TIP3    H164883   3.984   4.560   3.257  0.4878  1.2022 -0.7815
14464TIP3    H264884   3.984   4.410   3.238 -1.5761  1.1907 -0.9629
14465TIP3   OH264885   0.401   3.217   1.790  0.0598  0.2020 -0.0755
14465TIP3    H164886   0.490   3.210   1.825 -0.5808 -0.2868  1.5626
14465TIP3    H264887   0.406   3.286   1.724  1.8277 -0.4233 -0.6274
14466TIP3   OH264888   5.916   5.342   1.870  0.1478  0.0143  0.3027
14466TIP3    H164889   5.918   5.435   1.849  1.2102  0.0385  0.4422
14466TIP3    H264890   5.845   5.333   1.934  0.1705  0.7601  0.4436
14467TIP3   OH264891   4.219   0.272   0.199  0.1991  0.1880  0.3680
14467TIP3    H164892   4.135   0.269   0.245 -0.2633 -0.5519 -0.4952
14467TIP3    H264893   4.210   0.208   0.128  1.2494  0.5875 -0.1456
14468TIP3   OH264894   4.751   1.460   6.678 -0.1665 -0.0459 -0.5295
14468TIP3    H164895   4.826   1.404   6.655 -0.4342 -0.0065 -1.5540
14468TIP3    H264896   4.791   1.537   6.719  0.4200  0.2528 -1.6116
14469TIP3   OH264897   2.205   6.396  15.007 -0.3427  0.3125 -0.0687
14469TIP3    H164898   2.147   6.361  15.074 -0.1439  0.1124 -0.0012
14469TIP3    H264899   2.231   6.482  15.041  0.8785 -0.3664  0.7843
14470TIP3   OH264900   4.446   5.802  13.727 -0.4038  0.0491 -0.3748
14470TIP3    H164901   4.522   5.847  13.690 -0.0996  0.4085  0.6558
14470TIP3    H264902   4.371   5.838  13.680 -0.4992  3.7787  2.2359
14471TIP3   OH264903   0.951   4.200   5.481 -0.0139  0.5866 -0.0472
14471TIP3    H164904   0.979   4.187   5.390  0.7959 -1.1397  0.3968
14471TIP3    H264905   0.878   4.139   5.493 -0.8311  1.5824  0.1784
14472TIP3   OH264906   6.535   5.032  14.439  0.1343 -0.7465  0.4631
14472TIP3    H164907   6.544   5.126  14.454 -1.4885 -0.1970 -1.4489
14472TIP3    H264908   6.449   5.010  14.474  0.7010 -1.6522  1.3366
14473TIP3   OH264909   1.537   3.760  14.939  0.1287  0.0054 -0.4356
14473TIP3    H164910   1.583   3.693  14.990  1.4361  0.6364 -0.7709
14473TIP3    H264911   1.554   3.737  14.848 -1.2043 -0.4187 -0.5976
14474TIP3   OH264912   4.446   6.769  16.112  0.3008  0.2184  0.4095
14474TIP3    H164913   4.497   6.758  16.031 -0.6295  0.4992 -0.2202
14474TIP3    H264914   4.371   6.822  16.087 -0.8696 -1.0345  1.0807
14475TIP3   OH264915   0.860   4.741   3.711 -0.0226  0.1587  0.1063
14475TIP3    H164916   0.880   4.658   3.752  0.4009  0.8297  1.2850
14475TIP3    H264917   0.765   4.738   3.697  0.0167 -0.5859 -0.0277
14476TIP3   OH264918   0.113   5.037   3.851  0.4017  0.4415 -1.4419
14476TIP3    H164919   0.031   5.074   3.884  0.2858 -0.9173 -0.0364
14476TIP3    H264920   0.177   5.107   3.860 -0.2650  1.0059 -0.9683
14477TIP3   OH264921   5.581   0.546  14.666  0.2375  0.0737  0.9889
14477TIP3    H164922   5.554   0.585  14.583  1.5513  1.9935  1.4019
14477TIP3    H264923   5.521   0.473  14.678 -0.0407 -0.2283 -1.6027
14478TIP3   OH264924   6.083   5.921   3.373  0.6079 -0.9500 -0.6836
14478TIP3    H164925   6.079   6.014   3.350 -1.0867 -0.7923  0.0531
14478TIP3    H264926   6.154   5.915   3.437  0.7182 -0.1627 -0.7221
14479TIP3   OH264927   4.869   6.500   5.394 -0.2496 -0.2661  0.3004
14479TIP3    H164928   4.851   6.560   5.466 -1.9438 -0.3394 -0.0204
14479TIP3    H264929   4.787   6.450   5.383 -0.4074  0.4056 -2.2647
14480TIP3   OH264930   0.178   0.765  13.140 -0.2880 -0.2365 -0.1735
14480TIP3    H164931   0.253   0.728  13.186  0.2897  0.0279 -0.8942
14480TIP3    H264932   0.106   0.704  13.159  0.3928 -1.1546 -0.4757
14481TIP3   OH264933   1.686   5.246   6.146  0.3284 -0.6611  0.5350
14481TIP3    H164934   1.705   5.328   6.190 -2.1669 -0.9611  2.3934
14481TIP3    H264935   1.737   5.181   6.194  1.6347 -0.3408 -0.3876
14482TIP3   OH264936   6.616   6.702   4.287 -0.7846 -0.3029 -0.0196
14482TIP3    H164937   6.663   6.718   4.370  2.7672 -1.7598 -1.5361
14482TIP3    H264938   6.551   6.635   4.310  0.6555 -1.2820  1.5183
14483TIP3   OH264939   5.935   2.515   0.155 -0.3486  0.2463 -0.0494
14483TIP3    H164940   5.952   2.422   0.145  0.0738  0.2205  0.7997
14483TIP3    H264941   5.843   2.526   0.131  0.1330 -0.0437 -2.1608
14484TIP3   OH264942   0.134   1.241   5.865 -0.5579 -0.0195  0.3961
14484TIP3    H164943   0.137   1.320   5.919  0.3583  0.1057  0.1708
14484TIP3    H264944   0.041   1.231   5.843 -0.7398  0.7542  0.7741
14485TIP3   OH264945   2.256   3.514   4.456 -0.1402 -0.5928 -0.0564
14485TIP3    H164946   2.202   3.590   4.435  1.9074  0.6126 -1.3777
14485TIP3    H264947   2.195   3.448   4.487 -2.2360  0.9285 -0.7549
14486TIP3   OH264948   1.350   6.109   4.007  0.7556  0.8629 -0.2004
14486TIP3    H164949   1.328   6.120   3.915  2.4041  0.7937 -0.6326
14486TIP3    H264950   1.371   6.016   4.016 -0.4561  0.6210  0.5280
14487TIP3   OH264951   0.896   3.128   5.499 -0.3056  0.5507  0.2584
14487TIP3    H164952   0.882   3.166   5.586  1.6854  0.1314  0.8345
14487TIP3    H264953   0.920   3.203   5.444  0.0763  0.6209  0.5085
14488TIP3   OH264954   1.537   1.077   2.988  0.4079 -0.0521 -0.3547
14488TIP3    H164955   1.469   1.142   2.971 -0.0208 -0.5332 -0.4895
14488TIP3    H264956   1.499   1.018   3.052  0.7472 -0.2582 -0.3389
14489TIP3   OH264957   5.571   5.820   4.328 -0.0535 -0.3356  0.3460
14489TIP3    H164958   5.486   5.795   4.292  0.4571 -0.6880 -0.6515
14489TIP3    H264959   5.615   5.737   4.347  0.0315 -0.1553  0.9561
14490TIP3   OH264960   6.721   4.274  15.257  0.3798  0.2704 -0.3886
14490TIP3    H164961   6.652   4.327  15.295 -0.6444 -0.2276 -1.4937
14490TIP3    H264962   6.690   4.184  15.267  0.5445  0.0789 -1.4852
14491TIP3   OH264963   6.210   4.678   1.517  0.2762  0.1129  0.1959
14491TIP3    H164964   6.185   4.594   1.554 -0.8258  0.6305  0.6803
14491TIP3    H264965   6.302   4.667   1.492 -0.1061 -1.5103 -0.6126
14492TIP3   OH264966   4.531   1.980   6.010  0.3484  0.0471  0.7504
14492TIP3    H164967   4.447   1.936   6.000 -0.2921  1.1342  1.2699
14492TIP3    H264968   4.550   1.976   6.104  1.0111 -0.4109  0.6091
14493TIP3   OH264969   0.022   6.744  12.256  0.0411 -0.1731  0.3238
14493TIP3    H164970   0.098   6.688  12.274  1.0798  0.6001 -1.3552
14493TIP3    H264971   0.007   6.734  12.162 -0.3480  1.5778  0.1648
14494TIP3   OH264972   2.944   1.401   4.189  0.4041  0.0499  0.3704
14494TIP3    H164973   2.926   1.446   4.107  0.7566 -0.5951 -0.0756
14494TIP3    H264974   3.035   1.423   4.209  0.6370 -0.5938  0.0525
14495TIP3   OH264975   3.647   3.348  11.736 -0.1005 -0.1867  0.3591
14495TIP3    H164976   3.687   3.390  11.811 -1.5680  1.0939  0.4818
14495TIP3    H264977   3.718   3.301  11.693  1.1727  0.7470  1.3950
14496TIP3   OH264978   2.268   4.340  12.197 -0.1246 -0.3639 -0.3896
14496TIP3    H164979   2.202   4.297  12.143 -0.6002  0.7401 -0.7297
14496TIP3    H264980   2.272   4.430  12.163  0.6809 -0.0767  0.4125
14497TIP3   OH264981   4.904   5.970  12.875  0.2045 -0.3247 -0.5202
14497TIP3    H164982   4.836   5.970  12.942  0.9121 -0.6979  0.2058
14497TIP3    H264983   4.885   5.893  12.821 -0.2072 -0.1725 -0.6007
14498TIP3   OH264984   5.266   0.018  10.826 -0.3915 -0.0328 -0.2424
14498TIP3    H164985   5.288  -0.031  10.906 -0.3202  0.4659  0.0487
14498TIP3    H264986   5.174   0.041  10.837 -1.3671 -2.7349 -1.7851
14499TIP3   OH264987   2.072   5.676   1.413  0.2286 -0.4433 -0.2574
14499TIP3    H164988   2.036   5.610   1.471  0.3828 -1.9645 -1.8290
14499TIP3    H264989   2.038   5.654   1.326  3.3244 -0.8550 -1.5021
14500TIP3   OH264990   0.694   0.430   5.140  0.0202 -1.0249 -0.2092
14500TIP3    H164991   0.734   0.401   5.222  0.3310 -0.2172 -0.0642
14500TIP3    H264992   0.627   0.493   5.167  2.3473  1.8595 -0.6541
14501TIP3   OH264993   4.429   2.412   4.964  0.2112  0.0169 -0.4784
14501TIP3    H164994   4.338   2.427   4.991  0.5182  0.7135  0.2125
14501TIP3    H264995   4.423   2.349   4.892 -0.6491 -2.1737  1.3932
14502TIP3   OH264996   0.958   2.456  11.245  0.3554 -0.0799 -0.0497
14502TIP3    H164997   0.869   2.486  11.228  0.9235  1.0043 -1.3098
14502TIP3    H264998   0.953   2.412  11.330 -1.6611 -1.3434 -0.7719
14503TIP3   OH264999   5.009   5.053  12.627  0.2482 -0.2491  0.1903
14503TIP3    H165000   5.099   5.083  12.637 -0.2493  1.5055 -0.2298
14503TIP3    H265001   4.997   5.046  12.532 -0.2713  0.2409  0.2178
14504TIP3   OH265002   2.776   3.377  12.356 -0.2137  0.0260 -0.1616
14504TIP3    H165003   2.736   3.348  12.274  0.6015 -2.6075  0.2859
14504TIP3    H265004   2.852   3.320  12.367  0.3268  1.0536  1.8840
14505TIP3   OH265005   5.778   0.217   5.034 -0.2964 -1.0122 -0.2440
14505TIP3    H165006   5.776   0.129   4.997 -0.0536 -0.9685 -0.3625
14505TIP3    H265007   5.861   0.254   5.004 -1.0191 -0.2382 -1.3665
14506TIP3   OH265008   4.786   3.513   4.062  0.0516  0.3380  0.1532
14506TIP3    H165009   4.875   3.544   4.075 -0.3771  1.1381  1.3971
14506TIP3    H265010   4.794   3.418   4.051  1.0883  0.4622 -0.1701
14507TIP3   OH265011   0.529   2.035  15.027  0.5709  0.0287  0.0339
14507TIP3    H165012   0.591   1.978  14.980 -0.4531 -0.9837 -0.1273
14507TIP3    H265013   0.454   1.978  15.045 -0.0205  1.0506  0.8441
14508TIP3   OH265014   2.299   6.117   1.552  0.5967 -0.3818 -0.1613
14508TIP3    H165015   2.329   6.050   1.614 -1.1995  0.7691  2.1026
14508TIP3    H265016   2.255   6.182   1.607 -2.1328  0.1502 -2.7691
14509TIP3   OH265017   2.855   3.976  15.036 -0.3640 -0.4700  0.5215
14509TIP3    H165018   2.934   3.926  15.059 -0.0719 -0.7725 -1.0297
14509TIP3    H265019   2.885   4.067  15.031  0.4070 -0.7906 -1.9879
14510TIP3   OH265020   2.067   4.368  16.831 -0.0013  0.2775 -0.1997
14510TIP3    H165021   2.066   4.275  16.854  2.4392  0.9517  3.5709
14510TIP3    H265022   2.141   4.377  16.771  0.4780 -0.1019  0.3169
14511TIP3   OH265023   1.497   6.799  10.825  0.4325  0.3585 -0.9915
14511TIP3    H165024   1.481   6.704  10.826 -0.4162  0.4909 -1.1419
14511TIP3    H265025   1.412   6.838  10.845  1.0144  1.0746  0.1763
14512TIP3   OH265026   3.270   4.172   5.402 -0.4623 -0.1451  0.1062
14512TIP3    H165027   3.251   4.163   5.308  1.4026 -0.7420 -0.2537
14512TIP3    H265028   3.312   4.257   5.410  0.7207 -0.7020  0.1212
14513TIP3   OH265029   2.228   3.305   1.047  0.0323  0.4267  0.0528
14513TIP3    H165030   2.320   3.295   1.022  0.5225  0.0844  1.8820
14513TIP3    H265031   2.201   3.217   1.075 -0.9396  0.4705 -0.7009
14514TIP3   OH265032   0.373   2.838  16.561 -0.3108  0.0028  0.6841
14514TIP3    H165033   0.415   2.911  16.605  0.5300 -0.5045  0.7517
14514TIP3    H265034   0.280   2.859  16.561  0.0075  1.5770 -0.2393
14515TIP3   OH265035   6.214   4.058   3.658  0.0692 -0.1990 -0.0954
14515TIP3    H165036   6.150   4.022   3.720  0.5597 -0.9630 -0.0201
14515TIP3    H265037   6.285   4.091   3.713  0.1232 -0.1177 -0.2137
14516TIP3   OH265038   1.593   5.124   1.685 -0.1340  0.3570  0.0163
14516TIP3    H165039   1.687   5.128   1.673 -0.1956 -0.4870 -0.8561
14516TIP3    H265040   1.579   5.051   1.745 -0.1314  1.7303  1.7813
14517TIP3   OH265041   5.600   2.104   3.194 -0.1576  0.0992  0.2835
14517TIP3    H165042   5.535   2.152   3.144  2.7482  2.9148 -1.1983
14517TIP3    H265043   5.611   2.021   3.148  1.2099  1.9122 -2.9888
14518TIP3   OH265044   1.488   6.774  17.162  0.5250 -0.1467  0.6370
14518TIP3    H165045   1.437   6.716  17.105  0.9776 -0.8190  0.9051
14518TIP3    H265046   1.423   6.835  17.198  0.0314 -0.5189  0.3981
14519TIP3   OH265047   4.825   1.047   0.137  0.4040 -0.2918 -0.1849
14519TIP3    H165048   4.849   0.985   0.206 -2.3928 -0.3829  0.8368
14519TIP3    H265049   4.892   1.115   0.142  0.2245 -0.1784  2.8340
14520TIP3   OH265050   4.196   0.651  12.497  0.5425 -0.1105  0.2664
14520TIP3    H165051   4.150   0.625  12.577  0.2822 -0.4107  0.0239
14520TIP3    H265052   4.263   0.712  12.526 -0.8118  1.3262  0.4892
14521TIP3   OH265053   5.258   6.541  16.245 -0.0845  0.2527  0.4724
14521TIP3    H165054   5.165   6.560  16.230 -0.1120 -0.1968  0.0385
14521TIP3    H265055   5.278   6.471  16.183  0.7825  0.9732 -0.0900
14522TIP3   OH265056   3.174   3.747  15.829 -0.1471  0.1399 -0.0413
14522TIP3    H165057   3.235   3.821  15.823  0.6867 -0.6076 -1.4988
14522TIP3    H265058   3.087   3.788  15.831  0.2474  1.1797 -1.7578
14523TIP3   OH265059   0.411   3.653   0.118 -0.0310 -1.0185 -0.2094
14523TIP3    H165060   0.491   3.611   0.087 -0.5737 -1.5862 -0.8679
14523TIP3    H265061   0.405   3.735   0.069  0.0914 -1.0250 -0.2346
14524TIP3   OH265062   4.920   2.382   1.472  0.4721  0.1499  0.0296
14524TIP3    H165063   4.978   2.323   1.424  2.6897  1.8589  0.4712
14524TIP3    H265064   4.902   2.335   1.554  0.5654 -0.7488 -0.4516
14525TIP3   OH265065   1.161   5.694   5.039  0.4754 -0.0647 -0.5243
14525TIP3    H165066   1.155   5.748   4.960 -0.3830 -0.4458 -0.7210
14525TIP3    H265067   1.071   5.677   5.064  0.7145  0.4849  0.8539
14526TIP3   OH265068   4.903   2.762  12.508 -0.0605 -0.2009  0.2836
14526TIP3    H165069   4.883   2.717  12.426 -1.1300  1.9071 -0.6927
14526TIP3    H265070   4.947   2.843  12.482 -0.0587  0.3292  1.8109
14527TIP3   OH265071   5.929   0.673  15.650 -0.5953  0.2603 -0.4144
14527TIP3    H165072   5.988   0.648  15.579 -0.4916 -2.0523  0.4227
14527TIP3    H265073   5.858   0.721  15.607 -0.4626 -0.9658 -2.0731
14528TIP3   OH265074   6.177   0.930   3.155  0.6188  0.0391 -0.3634
14528TIP3    H165075   6.203   0.936   3.247 -1.8301 -0.3448  0.4335
14528TIP3    H265076   6.258   0.941   3.106  1.9538  0.5291  1.8297
14529TIP3   OH265077   2.300   2.685   3.793 -0.5240 -0.2884  0.6486
14529TIP3    H165078   2.347   2.641   3.723 -0.1496  1.4184 -0.2333
14529TIP3    H265079   2.208   2.678   3.767 -0.4537 -0.3921  0.4223
14530TIP3   OH265080   5.191   2.081  12.231  0.0913  0.7423 -0.6352
14530TIP3    H165081   5.275   2.083  12.276 -0.3412  0.7070  0.2115
14530TIP3    H265082   5.212   2.074  12.138  1.0071 -0.0804 -0.3738
14531TIP3   OH265083   5.475   6.390   2.224 -0.5106 -0.0620  0.5196
14531TIP3    H165084   5.417   6.349   2.288 -0.3957 -2.3137 -0.7106
14531TIP3    H265085   5.563   6.374   2.259 -0.4823 -0.5994  0.2223
14532TIP3   OH265086   2.484   1.562   3.990  0.2251 -0.1662 -0.0320
14532TIP3    H165087   2.474   1.657   3.992 -1.3319 -0.3079  0.3050
14532TIP3    H265088   2.478   1.536   4.082  0.0441 -0.6381 -0.1744
14533TIP3   OH265089   0.014   6.475   2.521  0.1525 -0.3465 -0.3247
14533TIP3    H165090   0.017   6.473   2.616  0.8546 -0.1981 -0.3426
14533TIP3    H265091   0.058   6.395   2.493 -0.8544 -0.8545 -0.5216
14534TIP3   OH265092   0.995   1.643   2.184  0.2548  0.0584 -0.0005
14534TIP3    H165093   0.920   1.584   2.190  0.4010 -0.0608  0.8617
14534TIP3    H265094   0.958   1.728   2.164 -0.3843  0.4768  2.5225
14535TIP3   OH265095   2.008   4.752  14.888  0.2501  0.1309  0.2311
14535TIP3    H165096   2.020   4.657  14.898  2.2139  0.4201  1.0619
14535TIP3    H265097   1.915   4.767  14.907  0.1238 -1.5029  1.0235
14536TIP3   OH265098   3.423   4.123   2.530  0.1969 -0.1455  0.0449
14536TIP3    H165099   3.504   4.145   2.577 -1.1148  1.6990  1.6392
14536TIP3    H265100   3.452   4.096   2.443  2.5065  0.8957  0.4077
14537TIP3   OH265101   4.356   1.753   4.077  0.1238  0.1338  0.1202
14537TIP3    H165102   4.291   1.822   4.080 -2.6969 -2.3164 -0.4533
14537TIP3    H265103   4.388   1.746   4.167 -2.0156  0.0014  0.9083
14538TIP3   OH265104   0.546   0.177  16.511  0.2092 -0.2794 -0.6061
14538TIP3    H165105   0.588   0.210  16.591  0.3882 -0.9149 -0.4299
14538TIP3    H265106   0.565   0.083  16.512 -0.3667 -0.4005 -1.0464
14539TIP3   OH265107   6.399   5.511   5.554  0.1024  0.5066  0.0525
14539TIP3    H165108   6.375   5.570   5.625 -0.5834  0.4627 -0.1293
14539TIP3    H265109   6.338   5.533   5.483  0.1181 -0.1299 -0.1665
14540TIP3   OH265110   4.987   4.176  16.440 -0.4372  0.1327  0.0864
14540TIP3    H165111   5.061   4.153  16.384 -0.7569 -1.0520  0.1285
14540TIP3    H265112   4.977   4.271  16.429  0.3900  0.1338 -0.7572
14541TIP3   OH265113   4.991   3.178  11.878 -0.2632 -0.4424 -0.0921
14541TIP3    H165114   4.934   3.250  11.903 -0.3770 -0.6092  0.1349
14541TIP3    H265115   4.994   3.181  11.783 -0.7411 -0.4982 -0.1124
14542TIP3   OH265116   0.276   0.967  13.361  0.7751 -0.4976 -0.4737
14542TIP3    H165117   0.283   0.930  13.449 -1.2009  1.6413  0.6784
14542TIP3    H265118   0.230   0.900  13.310  0.7183 -1.1939  0.4771
14543TIP3   OH265119   4.069   0.841   3.772  0.5494  0.5137  0.1973
14543TIP3    H165120   3.976   0.847   3.753  0.7380  1.7194 -0.4465
14543TIP3    H265121   4.079   0.758   3.818 -0.9362  0.6633  0.8398
14544TIP3   OH265122   0.436   2.096   0.210 -0.4593 -0.8515 -0.1643
14544TIP3    H165123   0.447   2.006   0.244 -1.4390 -1.0145 -0.2636
14544TIP3    H265124   0.474   2.093   0.122 -1.1042 -1.3539 -0.4321
14545TIP3   OH265125   6.305   4.830   5.084  0.2024 -0.9680 -0.0094
14545TIP3    H165126   6.243   4.758   5.094 -0.9503 -0.2171 -1.3871
14545TIP3    H265127   6.334   4.850   5.173 -0.0513 -2.6035  0.4674
14546TIP3   OH265128   6.298   3.285   2.850 -0.1297 -0.1508 -0.6890
14546TIP3    H165129   6.269   3.210   2.798  0.6870 -0.0104 -1.3783
14546TIP3    H265130   6.265   3.361   2.802  1.1204  0.0031 -1.3618
14547TIP3   OH265131   0.993   5.351   1.632 -0.1495 -0.4127  0.3294
14547TIP3    H165132   1.026   5.288   1.568 -1.1418  1.2476 -1.9881
14547TIP3    H265133   1.066   5.411   1.647 -0.8578  1.1849 -2.0311
14548TIP3   OH265134   3.322   3.721   1.770 -0.3562  0.6310 -0.1830
14548TIP3    H165135   3.239   3.675   1.782 -0.8505  1.2396 -1.1950
14548TIP3    H265136   3.379   3.686   1.839 -0.8609 -1.1331 -0.6313
14549TIP3   OH265137   4.544   5.493  14.383 -0.3157 -0.1837  0.3409
14549TIP3    H165138   4.620   5.439  14.360  0.1606 -0.0559  1.5297
14549TIP3    H265139   4.575   5.547  14.456 -1.2206  0.6753  0.1097
14550TIP3   OH265140   1.828   4.339   4.554 -0.4723 -0.4509 -0.3757
14550TIP3    H165141   1.906   4.325   4.607 -0.3278 -0.6641 -0.6464
14550TIP3    H265142   1.849   4.300   4.469 -0.9799 -0.7704 -0.3584
14551TIP3   OH265143   0.376   5.144  14.092  0.3507 -0.0440  0.2779
14551TIP3    H165144   0.330   5.082  14.035  0.3328  1.0385 -0.9090
14551TIP3    H265145   0.317   5.218  14.101  0.8615  0.3205  0.7273
14552TIP3   OH265146   0.703   0.432   0.978 -0.5737  0.0143 -0.3240
14552TIP3    H165147   0.793   0.447   1.007 -0.9022  0.0545  0.7204
14552TIP3    H265148   0.709   0.363   0.912  0.1022 -0.7669  0.5448
14553TIP3   OH265149   4.898   1.661   6.783 -0.2994  0.2370  0.1590
14553TIP3    H165150   4.979   1.698   6.818  0.0209  0.9038 -1.2083
14553TIP3    H265151   4.837   1.662   6.857  1.0091 -0.5622  1.2871
14554TIP3   OH265152   3.060   5.813  12.636 -0.3159  0.4812  0.0458
14554TIP3    H165153   3.121   5.858  12.694 -0.8514 -0.5518  1.4406
14554TIP3    H265154   3.115   5.757  12.582  0.0423  0.0367  0.8543
14555TIP3   OH265155   1.149   3.756  13.330  0.2790  0.4348 -0.1257
14555TIP3    H165156   1.237   3.722  13.316  0.0695 -0.7782  1.3344
14555TIP3    H265157   1.159   3.822  13.398 -0.2765 -1.7022  2.1549
14556TIP3   OH265158   6.291   1.693  15.427  0.2821 -0.0654 -0.3090
14556TIP3    H165159   6.215   1.742  15.460  0.3820 -1.3207  1.9881
14556TIP3    H265160   6.361   1.714  15.488  1.3497 -0.2373 -1.4463
14557TIP3   OH265161   5.871   5.360  16.099  0.2771  0.0461 -0.2451
14557TIP3    H165162   5.897   5.378  16.190 -0.6822 -1.8693  0.4743
14557TIP3    H265163   5.785   5.402  16.091  0.1936 -0.1059 -0.1474
14558TIP3   OH265164   2.892   3.435  15.181  1.0182 -0.1360 -0.3765
14558TIP3    H165165   2.987   3.434  15.178  1.1305 -1.2221  1.4617
14558TIP3    H265166   2.868   3.348  15.214 -0.5904  0.1985 -0.5463
14559TIP3   OH265167   1.710   0.418  14.096 -0.0817  0.2689 -0.1696
14559TIP3    H165168   1.788   0.422  14.040  0.1314 -0.6457  0.0481
14559TIP3    H265169   1.649   0.362  14.049 -0.1181 -0.0446  0.2397
14560TIP3   OH265170   0.936   5.372  11.193  0.4031 -0.4432  0.2605
14560TIP3    H165171   0.859   5.417  11.157  0.9148  0.1493 -0.1073
14560TIP3    H265172   1.011   5.420  11.158  0.9452 -0.9374  0.7198
14561TIP3   OH265173   4.131   2.538   3.168  0.4111  0.0181 -0.3369
14561TIP3    H165174   4.079   2.551   3.089 -1.0959  0.0297  0.6079
14561TIP3    H265175   4.142   2.626   3.204 -0.8339 -0.1905  0.6112
14562TIP3   OH265176   2.937   4.483   3.822 -0.5585 -0.2228  0.1553
14562TIP3    H165177   2.918   4.560   3.875  1.3787 -0.2895  1.0466
14562TIP3    H265178   3.027   4.460   3.845  0.1478 -0.6780 -2.6634
14563TIP3   OH265179   6.289   6.581   5.701 -0.8140  0.7678  0.5578
14563TIP3    H165180   6.240   6.647   5.652  0.5907  1.5155  0.0984
14563TIP3    H265181   6.296   6.617   5.790 -0.3484  1.0816  0.3966
14564TIP3   OH265182   5.356   6.092   3.545  0.2176 -0.7377  1.3794
14564TIP3    H165183   5.411   6.023   3.509 -0.1324  0.0645 -0.8366
14564TIP3    H265184   5.378   6.094   3.639  4.0235 -0.4177  0.6211
14565TIP3   OH265185   5.302   3.655  14.627 -0.1636 -0.7896 -0.4447
14565TIP3    H165186   5.303   3.730  14.568 -0.4613  1.6755  2.4292
14565TIP3    H265187   5.394   3.643  14.651 -0.2748 -0.2275  0.3172
14566TIP3   OH265188   1.943   4.476   4.952 -0.2632  0.3135  0.9798
14566TIP3    H165189   1.879   4.423   4.999 -0.0840  0.1390  1.0304
14566TIP3    H265190   2.017   4.484   5.013  0.5472 -1.0801  0.2204
14567TIP3   OH265191   4.288   6.807   1.885 -0.1762  0.3225 -0.1350
14567TIP3    H165192   4.329   6.722   1.898  0.9324  0.8105 -0.2573
14567TIP3    H265193   4.277   6.814   1.790  2.0596  1.2949 -0.3996
14568TIP3   OH265194   2.448   4.790   0.747  1.0225  0.0294 -0.0315
14568TIP3    H165195   2.356   4.806   0.765  0.6912  0.4410 -1.8271
14568TIP3    H265196   2.494   4.822   0.824 -0.3466 -0.6198  1.1005
14569TIP3   OH265197   2.637   0.858   1.745  0.3537  0.5664 -0.4513
14569TIP3    H165198   2.561   0.854   1.803  0.9894  0.5008  0.3882
14569TIP3    H265199   2.683   0.937   1.771  0.0448  1.1732 -1.6539
14570TIP3   OH265200   5.249   3.814  12.903  0.0323  0.5199 -0.2223
14570TIP3    H165201   5.344   3.807  12.895 -0.1903 -3.4985 -1.6368
14570TIP3    H265202   5.230   3.777  12.989 -0.2788 -1.9051 -1.2244
14571TIP3   OH265203   1.184   2.405   5.350 -0.3004  0.4111  0.1098
14571TIP3    H165204   1.168   2.331   5.292  0.4065  0.9875 -0.8620
14571TIP3    H265205   1.173   2.369   5.438  0.2757 -0.9184 -0.3248
14572TIP3   OH265206   1.371   6.544   2.220  0.0715 -0.3035  0.0226
14572TIP3    H165207   1.347   6.637   2.219 -1.0793 -0.5905 -0.2538
14572TIP3    H265208   1.445   6.538   2.159  1.3150  0.7053  1.3554
14573TIP3   OH265209   4.835   2.700  13.933  0.4323 -0.4450  0.2519
14573TIP3    H165210   4.758   2.740  13.973  0.2833 -0.1502 -0.3160
14573TIP3    H265211   4.869   2.641  14.000 -0.4127 -0.7412  0.4290
14574TIP3   OH265212   1.235   2.870  13.761  0.6125  0.1494 -0.1563
14574TIP3    H165213   1.205   2.815  13.688 -0.8425  0.2938  0.3086
14574TIP3    H265214   1.177   2.848  13.833  1.7426  0.3516  0.8424
14575TIP3   OH265215   4.725   0.096   6.096 -0.2472  0.5173 -0.3719
14575TIP3    H165216   4.659   0.062   6.157  0.6442 -2.6475 -1.0257
14575TIP3    H265217   4.798   0.121   6.151 -0.8583  1.2823  0.1163
14576TIP3   OH265218   0.362   0.240  11.687 -0.1104 -0.0622 -0.0019
14576TIP3    H165219   0.380   0.149  11.664  0.0670 -0.0118 -0.0651
14576TIP3    H265220   0.311   0.274  11.613  0.6427  0.1599 -0.4278
14577TIP3   OH265221   3.102   6.757   4.141 -0.3367  0.1262  0.1230
14577TIP3    H165222   3.082   6.827   4.079  1.2324  0.1081 -0.4520
14577TIP3    H265223   3.185   6.782   4.181 -0.4344 -0.7394  0.9084
14578TIP3   OH265224   6.073   0.864   2.773  0.1520 -0.6415  0.9319
14578TIP3    H165225   6.083   0.922   2.698  0.0583 -0.8877  0.7280
14578TIP3    H265226   6.148   0.805   2.768 -0.0811 -0.9276  0.7920
14579TIP3   OH265227   2.842   6.448  13.423  0.2453 -0.0025  0.5407
14579TIP3    H165228   2.774   6.393  13.385  0.4852 -0.2250  0.4273
14579TIP3    H265229   2.841   6.428  13.516  0.3739 -0.2447  0.4897
14580TIP3   OH265230   1.191   4.472   2.249  0.0812 -0.1976 -0.3075
14580TIP3    H165231   1.263   4.425   2.209 -0.5563 -0.1565 -1.5709
14580TIP3    H265232   1.126   4.481   2.179 -0.0947  1.9772  0.0403
14581TIP3   OH265233   3.709   2.306  11.764 -0.5057  0.1377  0.1663
14581TIP3    H165234   3.716   2.347  11.678  2.2340 -1.4910 -0.5183
14581TIP3    H265235   3.795   2.319  11.804 -1.4515  0.1240  2.3719
14582TIP3   OH265236   1.871   1.968   6.016 -0.0549  0.1025 -0.3779
14582TIP3    H165237   1.930   2.041   6.037 -2.5738  3.0098 -2.3875
14582TIP3    H265238   1.802   1.973   6.082  0.3367 -1.2955  0.1657
14583TIP3   OH265239   3.817   0.954  11.197  0.0825 -0.5355  0.3784
14583TIP3    H165240   3.809   0.908  11.113 -2.5679  0.0578  0.2331
14583TIP3    H265241   3.808   0.885  11.263 -1.2064 -0.5823  0.1621
14584TIP3   OH265242   1.009   4.126  11.292 -0.4349 -0.3374 -0.7283
14584TIP3    H165243   1.011   4.154  11.200  2.0424 -0.1261 -0.6701
14584TIP3    H265244   0.984   4.205  11.340 -0.4610 -0.1027 -1.1177
14585TIP3   OH265245   3.493   3.094   1.518 -0.1159 -0.4191  0.3483
14585TIP3    H165246   3.465   3.158   1.452 -1.1673 -0.3402  0.8455
14585TIP3    H265247   3.524   3.148   1.591 -0.1734 -0.4853  0.4220
14586TIP3   OH265248   5.497   3.218   2.794  0.3417 -0.0025  0.4067
14586TIP3    H165249   5.426   3.162   2.825  0.5656  0.0629  1.0509
14586TIP3    H265250   5.466   3.307   2.805 -0.5929  0.0505 -1.9579
14587TIP3   OH265251   1.087   0.121   5.521  0.7786 -0.4363 -0.1044
14587TIP3    H165252   1.066   0.052   5.458 -1.9931  0.6790 -0.5804
14587TIP3    H265253   1.047   0.200   5.483  2.8107  1.2245  0.9765
14588TIP3   OH265254   0.082   1.001   2.395  0.1330  0.0908  0.0669
14588TIP3    H165255   0.038   1.087   2.397 -0.5547 -0.2376 -0.4487
14588TIP3    H265256   0.175   1.022   2.385 -0.2959  0.7845 -4.3795
14589TIP3   OH265257   6.758   0.004  16.736 -0.0846  0.7885 -0.6013
14589TIP3    H165258   6.686  -0.045  16.698  0.8824 -1.2961  0.1209
14589TIP3    H265259   6.831  -0.058  16.737  1.4994  2.5664 -0.5655
14590TIP3   OH265260   5.150   1.625  15.078 -0.1803 -0.1288 -0.1709
14590TIP3    H165261   5.214   1.689  15.047  0.6784 -0.9908 -0.2433
14590TIP3    H265262   5.077   1.633  15.017 -0.2904  1.0792  0.0887
14591TIP3   OH265263   1.774   3.352   5.158 -0.9584  0.3484  0.0637
14591TIP3    H165264   1.829   3.430   5.145  1.7248 -1.4216 -0.1676
14591TIP3    H265265   1.684   3.384   5.149 -0.3767  4.2508  4.2170
14592TIP3   OH265266   3.524   3.641   3.232  0.2417 -0.3164  0.3161
14592TIP3    H165267   3.599   3.661   3.290 -0.6562 -0.1753  1.4635
14592TIP3    H265268   3.467   3.587   3.285 -0.5166 -0.3627 -0.5300
14593TIP3   OH265269   0.663   2.384   4.091  0.2432 -0.1953  0.4549
14593TIP3    H165270   0.596   2.420   4.033  0.7454 -0.0915 -0.0780
14593TIP3    H265271   0.745   2.398   4.044  0.8485  1.2143  1.8214
14594TIP3   OH265272   2.973   0.407  12.639 -0.0496  0.0359  0.8935
14594TIP3    H165273   2.883   0.426  12.611 -0.2954 -1.2136  0.7918
14594TIP3    H265274   2.996   0.481  12.695  0.1350  2.1725 -1.7832
14595TIP3   OH265275   4.398   5.923   2.291 -0.2084 -0.2576 -0.1366
14595TIP3    H165276   4.415   5.851   2.352  2.6332  0.9747  0.7233
14595TIP3    H265277   4.334   5.978   2.336 -0.7234 -1.1117  0.1917
14596TIP3   OH265278   1.399   5.105   3.565 -0.2217  0.1238 -0.5649
14596TIP3    H165279   1.451   5.184   3.552  0.3336 -0.0057  0.7673
14596TIP3    H265280   1.331   5.131   3.627  1.7714 -1.1102  2.3889
14597TIP3   OH265281   3.893   3.772  10.195  0.3769 -0.4475 -0.3653
14597TIP3    H165282   3.970   3.802  10.148 -1.2535  2.5658 -1.3675
14597TIP3    H265283   3.905   3.803  10.285 -0.3213  1.5001 -0.8989
14598TIP3   OH265284   2.490   3.398   0.455  0.3182  0.0072 -0.2303
14598TIP3    H165285   2.507   3.305   0.440  0.5498 -0.1266  0.7634
14598TIP3    H265286   2.395   3.407   0.448  0.1233 -0.6234  1.1807
14599TIP3   OH265287   6.533   1.839   5.996 -0.2546 -0.0378  0.2753
14599TIP3    H165288   6.598   1.843   6.065  0.1646 -0.6894 -0.0732
14599TIP3    H265289   6.449   1.828   6.042  0.0199 -0.4637  0.6784
14600TIP3   OH265290   6.191   0.558  15.700 -0.1254 -0.2261  0.3257
14600TIP3    H165291   6.096   0.548  15.693 -0.0177 -0.2905 -1.7136
14600TIP3    H265292   6.226   0.471  15.679  0.4046  0.5012 -2.2163
14601TIP3   OH265293   0.182   5.890   3.220  0.8422 -0.4818  0.6883
14601TIP3    H165294   0.222   5.876   3.305  0.0195 -0.7900  1.0321
14601TIP3    H265295   0.177   5.802   3.181  2.3770 -0.2047 -0.2292
14602TIP3   OH265296   2.829   2.492  11.279 -0.3053 -0.0995  0.2108
14602TIP3    H165297   2.749   2.545  11.273  0.2005  0.6530 -0.1066
14602TIP3    H265298   2.815   2.420  11.218 -0.5169  0.3410 -0.2701
14603TIP3   OH265299   3.028   1.032   3.056  0.3462 -0.0573  0.1308
14603TIP3    H165300   3.039   1.093   2.983 -0.5716 -0.1533 -0.0861
14603TIP3    H265301   3.061   0.949   3.023 -2.7261 -0.8494 -1.2269
14604TIP3   OH265302   6.524   1.923   1.322 -0.1743 -0.0038 -0.0888
14604TIP3    H165303   6.429   1.922   1.313 -0.4296 -2.8833  1.7081
14604TIP3    H265304   6.542   1.994   1.384 -1.1103  0.6098 -0.5039
14605TIP3   OH265305   4.340   2.173   3.158 -0.6718  0.3284  0.2647
14605TIP3    H165306   4.394   2.248   3.131 -1.3555  1.1190  1.0279
14605TIP3    H265307   4.402   2.102   3.170 -0.0070  0.7507 -0.5146
14606TIP3   OH265308   2.171   4.955  12.800 -0.2880  0.2038 -0.3268
14606TIP3    H165309   2.196   5.031  12.747  2.2160 -1.5018 -1.8124
14606TIP3    H265310   2.116   4.902  12.741 -0.2785 -0.1152 -0.0521
14607TIP3   OH265311   6.688   0.256  10.680 -0.1864 -0.2132  0.0938
14607TIP3    H165312   6.750   0.309  10.629 -1.2177  1.4312  0.4493
14607TIP3    H265313   6.738   0.179  10.707  1.2700  0.3705 -0.8219
14608TIP3   OH265314   6.662   1.786  17.052  0.2808 -0.2643  0.7670
14608TIP3    H165315   6.631   1.848  16.986  0.8672  0.0783  0.8046
14608TIP3    H265316   6.724   1.836  17.105  1.6196 -1.1716  0.1125
14609TIP3   OH265317   2.634   4.661   1.137 -0.4095 -0.1994 -0.3309
14609TIP3    H165318   2.545   4.629   1.154 -0.6241  1.4095  2.0056
14609TIP3    H265319   2.622   4.753   1.112  0.5542 -0.1120 -0.5021
14610TIP3   OH265320   5.563   4.575  15.804 -0.3947  0.4801 -0.0698
14610TIP3    H165321   5.490   4.609  15.855  0.2437  2.8838 -0.6486
14610TIP3    H265322   5.597   4.650  15.756  1.3306 -0.9370 -1.2289
14611TIP3   OH265323   1.059   0.160   5.130 -0.4207  0.3946  0.2969
14611TIP3    H165324   1.019   0.176   5.045  3.1058  0.2787 -1.5455
14611TIP3    H265325   1.101   0.243   5.152  0.4385 -0.1979  0.9211
14612TIP3   OH265326   2.517   0.090   4.900  0.4522  0.1126  0.0111
14612TIP3    H165327   2.474   0.173   4.884 -1.1492 -1.0366 -2.1104
14612TIP3    H265328   2.465   0.048   4.968  0.1879  0.1175 -0.1870
14613TIP3   OH265329   5.628   0.392   1.474  0.5231  0.5353 -0.3294
14613TIP3    H165330   5.613   0.297   1.478  2.4321  0.1823 -0.5611
14613TIP3    H265331   5.618   0.422   1.564 -0.4200  0.1996 -0.3045
14614TIP3   OH265332   2.183   4.827   4.974 -0.1569  0.1326  0.2922
14614TIP3    H165333   2.231   4.790   4.900 -0.7054 -1.2672  0.6025
14614TIP3    H265334   2.093   4.794   4.963 -0.7461  1.6094  0.4540
14615TIP3   OH265335   6.211   3.048   0.988  0.2942 -0.4488  0.1869
14615TIP3    H165336   6.153   3.124   0.994  0.8144 -0.0387 -0.0030
14615TIP3    H265337   6.293   3.076   1.028  0.1072 -1.3010  1.2386
14616TIP3   OH265338   2.945   0.662   3.254 -0.5345  0.4050  0.6744
14616TIP3    H165339   2.969   0.574   3.227  2.0470  0.3625  2.7442
14616TIP3    H265340   2.972   0.718   3.182 -1.5499 -0.3764 -0.3544
14617TIP3   OH265341   1.038   1.441  16.541 -0.0507 -0.0210 -0.4186
14617TIP3    H165342   1.104   1.495  16.498 -0.0839 -0.3724 -0.9243
14617TIP3    H265343   1.085   1.399  16.613 -0.2526  1.4226  0.6087
14618TIP3   OH265344   0.078   3.870  14.835  0.0534  0.1092  0.2686
14618TIP3    H165345   0.099   3.963  14.845 -0.3010  0.5310 -2.2363
14618TIP3    H265346   0.026   3.866  14.755  0.2689 -2.2985  0.1874
14619TIP3   OH265347   1.030   0.571  13.718  0.2493 -0.2669 -0.3391
14619TIP3    H165348   1.013   0.477  13.730  0.6640  0.0042  3.2199
14619TIP3    H265349   0.945   0.613  13.725  0.1760 -0.2873 -1.0442
14620TIP3   OH265350   6.648   0.710   3.748  0.3171 -0.5855 -0.0130
14620TIP3    H165351   6.666   0.794   3.789  1.1638 -0.2217 -1.0894
14620TIP3    H265352   6.602   0.660   3.815 -0.9806  1.0303  0.3668
14621TIP3   OH265353   2.338   4.737   4.773 -0.8562 -0.2657 -0.0900
14621TIP3    H165354   2.344   4.808   4.708 -0.4888 -0.2870 -0.0816
14621TIP3    H265355   2.299   4.664   4.725 -1.2398 -0.0561 -0.0981
14622TIP3   OH265356   4.935   4.329   4.689  0.3535  0.4133  0.0222
14622TIP3    H165357   5.013   4.383   4.699  0.0645  1.0440 -0.9685
14622TIP3    H265358   4.956   4.269   4.618  0.4143 -0.3178  0.6491
14623TIP3   OH265359   2.405   0.982   1.284  0.1695 -0.3470  0.3884
14623TIP3    H165360   2.459   0.926   1.339 -0.9844 -1.7232  0.1801
14623TIP3    H265361   2.351   0.921   1.233 -0.6766  0.9419 -0.3255
14624TIP3   OH265362   4.248   5.737   2.097 -0.0872 -0.4020 -0.2046
14624TIP3    H165363   4.292   5.795   2.159  1.8689  0.6695 -2.4637
14624TIP3    H265364   4.317   5.677   2.068 -1.2966 -1.7537 -0.3907
14625TIP3   OH265365   4.816   5.260  11.047 -0.2300  0.0852 -0.2768
14625TIP3    H165366   4.735   5.237  11.092  0.0449 -1.2898 -0.4221
14625TIP3    H265367   4.800   5.235  10.956 -0.6995  2.6182 -0.9690
14626TIP3   OH265368   0.796   6.033  16.827  0.2387  0.1352  0.5971
14626TIP3    H165369   0.864   6.028  16.759  1.1970  0.1867  1.5244
14626TIP3    H265370   0.730   6.091  16.790  0.0170 -1.0078 -0.8969
14627TIP3   OH265371   3.731   3.996  13.109  0.3463 -0.5491  0.7109
14627TIP3    H165372   3.783   3.924  13.074  0.0908 -0.5043  0.2277
14627TIP3    H265373   3.666   4.014  13.041 -0.2325 -0.5335  1.2627
14628TIP3   OH265374   2.254   0.771  13.951 -0.4482  0.1345 -0.2297
14628TIP3    H165375   2.170   0.760  13.997 -0.3895 -1.5286 -0.4450
14628TIP3    H265376   2.250   0.707  13.880  1.5925 -1.0338  0.6389
14629TIP3   OH265377   5.355   1.267  10.780  0.5318 -0.0853 -0.0178
14629TIP3    H165378   5.283   1.236  10.727  0.9878  1.2158 -1.4830
14629TIP3    H265379   5.398   1.188  10.812 -1.6465 -0.8840  1.1109
14630TIP3   OH265380   3.589   1.093  13.192  0.9863  0.0997  0.4165
14630TIP3    H165381   3.664   1.127  13.144 -0.7951  1.3223 -1.7126
14630TIP3    H265382   3.592   1.138  13.277  3.2707 -0.8392  0.9001
14631TIP3   OH265383   2.050   0.520  14.070  0.1841  0.5618  0.0925
14631TIP3    H165384   2.016   0.477  13.991  0.9733  3.0500 -1.7579
14631TIP3    H265385   1.973   0.556  14.113 -0.1747 -0.0679 -0.0112
14632TIP3   OH265386   1.079   0.318  14.023 -0.0769 -0.4723 -0.0166
14632TIP3    H165387   1.026   0.301  13.944  0.2998 -1.6800 -0.0216
14632TIP3    H265388   1.035   0.270  14.092  1.0896 -1.6316 -0.0517
14633TIP3   OH265389   1.673   5.856   1.280  0.1127  0.7011 -0.3817
14633TIP3    H165390   1.757   5.878   1.238  0.4523  2.5535  1.1141
14633TIP3    H265391   1.607   5.900   1.227 -0.2474 -2.2419 -2.6601
14634TIP3   OH265392   2.450   6.278   2.950 -0.5573  0.2924  0.0116
14634TIP3    H165393   2.411   6.321   2.874  1.5311  1.6191 -0.4135
14634TIP3    H265394   2.528   6.234   2.915 -0.8024 -1.0154  1.0375
14635TIP3   OH265395   4.199   5.687   4.873 -0.3392 -0.5133  0.0516
14635TIP3    H165396   4.114   5.662   4.836 -0.7669 -0.0687  0.7223
14635TIP3    H265397   4.198   5.650   4.961 -0.2893  0.4289  0.4529
14636TIP3   OH265398   6.560   0.028   3.656  0.3632 -0.5486  0.3528
14636TIP3    H165399   6.532   0.115   3.626  1.7069 -0.0539  0.4630
14636TIP3    H265400   6.567   0.037   3.751 -3.7803 -2.0865  1.0290
14637TIP3   OH265401   0.629   2.479   3.177  0.5989  0.2770 -0.2759
14637TIP3    H165402   0.614   2.488   3.083  0.4756  0.1637 -0.2664
14637TIP3    H265403   0.555   2.523   3.218 -0.0508 -0.8249 -0.2284
14638TIP3   OH265404   4.748   5.623  16.032 -0.3802 -0.0898 -0.2704
14638TIP3    H165405   4.830   5.588  15.997 -0.9388  0.4808 -2.3078
14638TIP3    H265406   4.694   5.546  16.049 -0.5389 -0.4007 -1.9673
14639TIP3   OH265407   3.803   6.640  10.642 -0.7545 -0.2352 -0.1037
14639TIP3    H165408   3.754   6.577  10.695 -1.8769 -0.4866 -1.3840
14639TIP3    H265409   3.740   6.672  10.578  0.1885  1.1210 -0.3998
14640TIP3   OH265410   6.518   3.612   6.696  0.3873  0.3002 -0.3791
14640TIP3    H165411   6.572   3.536   6.675 -1.8200 -1.5404  0.2513
14640TIP3    H265412   6.499   3.652   6.611  1.2054 -0.0932 -0.7531
14641TIP3   OH265413   6.720   1.053  15.755  0.1292 -0.3196 -0.5891
14641TIP3    H165414   6.626   1.060  15.739  0.0898 -1.6382 -1.0471
14641TIP3    H265415   6.748   1.143  15.771 -1.2812  0.0590 -0.0046
14642TIP3   OH265416   5.878   4.674   5.604  0.2511 -0.0005 -0.5604
14642TIP3    H165417   5.852   4.583   5.618 -1.3832  0.5342  0.0769
14642TIP3    H265418   5.913   4.703   5.688 -0.7299  0.4071 -0.2729
14643TIP3   OH265419   2.672   2.613   6.112 -0.0403 -0.8691  0.3168
14643TIP3    H165420   2.666   2.704   6.083 -0.2139 -0.9986 -0.0678
14643TIP3    H265421   2.764   2.590   6.100 -0.0393 -0.8087  0.2031
14644TIP3   OH265422   6.512   5.747  13.661 -0.2688 -0.5024  0.0664
14644TIP3    H165423   6.458   5.720  13.586 -0.8620 -0.0208  0.3169
14644TIP3    H265424   6.592   5.781  13.621 -0.6929  0.0006 -0.3738
14645TIP3   OH265425   2.599   2.974  16.838  0.0438  0.5406  0.0656
14645TIP3    H165426   2.522   2.969  16.781 -0.5897  0.8619  0.8816
14645TIP3    H265427   2.584   3.051  16.892  0.7518  0.3784  0.5080
14646TIP3   OH265428   4.468   4.549  16.038  0.7347 -0.3679  0.2285
14646TIP3    H165429   4.502   4.594  15.960  1.8478 -1.5412  0.0052
14646TIP3    H265430   4.373   4.552  16.027  0.8504  0.1342 -0.7975
14647TIP3   OH265431   2.526   1.444   4.598 -0.2902  0.4006  0.3806
14647TIP3    H165432   2.450   1.483   4.554 -2.0581 -0.8355  2.1215
14647TIP3    H265433   2.593   1.437   4.530 -2.3872 -0.2342 -1.7743
14648TIP3   OH265434   6.311   5.095   2.796  0.3288 -0.1187 -0.2533
14648TIP3    H165435   6.284   5.153   2.867  1.3113  2.5992 -1.9209
14648TIP3    H265436   6.229   5.062   2.760 -0.3827  1.3563 -0.0899
14649TIP3   OH265437   0.204   0.253  13.032 -0.3040 -0.4703 -0.2309
14649TIP3    H165438   0.226   0.341  12.999 -0.5999 -1.1664 -2.4200
14649TIP3    H265439   0.110   0.245  13.019 -0.2781 -1.1182 -0.0504
14650TIP3   OH265440   5.381   6.148  13.760 -0.2431 -0.2236  0.5210
14650TIP3    H165441   5.454   6.193  13.803  0.1915  0.4329 -0.8180
14650TIP3    H265442   5.399   6.055  13.772  1.7632 -0.1384 -1.1672
14651TIP3   OH265443   5.725   5.648   3.520  0.1525 -0.4452 -0.5049
14651TIP3    H165444   5.811   5.668   3.558 -0.4928  1.4460  0.1023
14651TIP3    H265445   5.712   5.716   3.454 -1.5354  0.3045  0.5379
14652TIP3   OH265446   4.501   3.343   3.238 -0.7134 -0.1475  0.0597
14652TIP3    H165447   4.408   3.367   3.238 -0.7258 -0.1968  0.2085
14652TIP3    H265448   4.509   3.276   3.306 -0.6802 -0.5765 -0.3583
14653TIP3   OH265449   3.221   4.852   2.149  0.5203  0.6289 -0.0499
14653TIP3    H165450   3.245   4.944   2.152  0.6684  0.5664  1.1450
14653TIP3    H265451   3.163   4.839   2.224 -1.0121  0.1508 -1.2756
14654TIP3   OH265452   1.467   0.868  14.392 -0.1412  0.3352 -0.4154
14654TIP3    H165453   1.498   0.952  14.360  0.7807 -0.4766 -1.7084
14654TIP3    H265454   1.510   0.803  14.337  1.9970 -1.2047  2.7986
14655TIP3   OH265455   0.104   3.739  15.613  0.8061  0.6362 -0.7531
14655TIP3    H165456   0.047   3.768  15.542  2.0776 -0.6181 -2.3518
14655TIP3    H265457   0.063   3.660  15.647  0.0522  1.3858  0.1542
14656TIP3   OH265458   4.721   2.004  16.808 -0.4554  0.4667 -0.6823
14656TIP3    H165459   4.673   1.922  16.801 -1.4798  1.0820 -1.2195
14656TIP3    H265460   4.664   2.069  16.766  0.5358  1.3656 -0.6976
14657TIP3   OH265461   0.233   2.030   1.757 -0.0172  0.9662 -0.1881
14657TIP3    H165462   0.212   1.937   1.753  1.1908  0.6931 -0.4020
14657TIP3    H265463   0.328   2.034   1.759 -0.0554  2.1412  1.5381
14658TIP3   OH265464   2.149   5.243   1.697 -0.0153 -0.1061 -0.5481
14658TIP3    H165465   2.121   5.220   1.786 -1.0074  2.1750 -0.1964
14658TIP3    H265466   2.222   5.304   1.710 -0.4095  0.5422 -1.2660
14659TIP3   OH265467   3.404   1.046  11.939 -0.1135  0.1097 -0.0365
14659TIP3    H165468   3.386   1.094  12.020  0.7034 -0.7831  0.7059
14659TIP3    H265469   3.321   1.002  11.919 -1.1603  2.4867 -1.2496
14660TIP3   OH265470   6.620   0.312   3.353 -0.5874  0.3421 -0.3538
14660TIP3    H165471   6.541   0.275   3.392 -0.3684  1.4450  1.2312
14660TIP3    H265472   6.588   0.375   3.289 -0.9748  0.3584 -0.1439
14661TIP3   OH265473   2.116   0.069  14.352  0.1207 -0.0606  0.8943
14661TIP3    H165474   2.043   0.124  14.326  0.6566 -0.9888 -3.1630
14661TIP3    H265475   2.078  -0.017  14.367  0.2423 -0.3573 -0.4361
14662TIP3   OH265476   2.623   4.575   0.687 -0.3643  0.4723 -0.7326
14662TIP3    H165477   2.695   4.615   0.734 -0.5699  0.7799 -0.6715
14662TIP3    H265478   2.562   4.647   0.671 -0.2391  0.3985 -1.5758
14663TIP3   OH265479   2.480   3.555   4.319 -0.4478  0.2421  0.1885
14663TIP3    H165480   2.532   3.542   4.398 -1.6658 -0.2168  0.9286
14663TIP3    H265481   2.389   3.555   4.349 -0.8807  1.2146 -1.0583
14664TIP3   OH265482   4.823   3.241   4.782 -0.1068 -0.5877  0.3606
14664TIP3    H165483   4.795   3.255   4.691 -0.2729 -1.6371  0.2430
14664TIP3    H265484   4.848   3.149   4.786  0.2361 -0.4651  1.2940
14665TIP3   OH265485   1.559   1.292   4.375 -0.9461  0.0986 -0.6959
14665TIP3    H165486   1.573   1.201   4.401  1.2768  0.5350 -0.1590
14665TIP3    H265487   1.517   1.333   4.451 -0.2694 -0.0791 -0.2159
14666TIP3   OH265488   3.069   2.306  14.886 -0.2737  0.0197 -0.0601
14666TIP3    H165489   3.026   2.379  14.929  0.5546  1.2155 -1.1947
14666TIP3    H265490   3.142   2.345  14.837  1.0659 -1.7158  0.4205
14667TIP3   OH265491   2.440   6.512   0.233 -0.2348 -0.2212 -0.6423
14667TIP3    H165492   2.351   6.541   0.214  0.5737  2.2470 -0.9938
14667TIP3    H265493   2.447   6.518   0.329 -1.2993 -3.3153 -0.2770
14668TIP3   OH265494   1.197   6.120  11.964  0.4082 -0.1986 -0.4301
14668TIP3    H165495   1.252   6.066  12.021  1.3926  1.0534 -0.1570
14668TIP3    H265496   1.251   6.196  11.943 -0.2020 -0.2750 -2.4741
14669TIP3   OH265497   5.260   1.118  11.123  0.2445  0.2493  0.0150
14669TIP3    H165498   5.217   1.081  11.200 -0.1154  0.8742  0.1250
14669TIP3    H265499   5.227   1.067  11.049  1.7572 -1.3736  0.3979
14670TIP3   OH265500   1.614   3.991   5.565 -0.1701 -0.1524  0.0257
14670TIP3    H165501   1.672   3.997   5.640 -0.4044  0.4169  0.1684
14670TIP3    H265502   1.669   3.955   5.495 -0.3716 -2.2466  0.8795
14671TIP3   OH265503   4.735   2.741  14.983 -0.4087  0.4934  0.2437
14671TIP3    H165504   4.752   2.825  15.025  1.0202 -0.2214  1.1665
14671TIP3    H265505   4.657   2.707  15.027 -0.1117  0.6660  0.9066
14672TIP3   OH265506   2.319   5.087   1.055  0.2122  0.4313 -0.3246
14672TIP3    H165507   2.324   5.126   1.142 -0.6677 -0.3705  0.1047
14672TIP3    H265508   2.404   5.044   1.043 -0.0431 -0.3648  0.5979
14673TIP3   OH265509   4.378   6.774  17.076 -0.3615 -0.2015  0.4428
14673TIP3    H165510   4.471   6.791  17.090 -0.3449 -1.1120  1.6163
14673TIP3    H265511   4.335   6.811  17.154 -0.9079 -0.3154  0.1977
14674TIP3   OH265512   4.946   3.516   4.407 -0.7571  0.3343 -0.1479
14674TIP3    H165513   5.013   3.493   4.470 -0.3948  0.7683 -0.3659
14674TIP3    H265514   4.872   3.548   4.460 -1.1185 -0.9319  0.1278
14675TIP3   OH265515   0.715   2.542   0.349  0.3042 -0.0851 -0.2515
14675TIP3    H165516   0.744   2.569   0.262  0.4572 -1.9092 -0.7980
14675TIP3    H265517   0.676   2.456   0.336 -1.0066  0.2445  1.2716
14676TIP3   OH265518   4.802   3.362  16.886  0.5001  0.4383  0.1430
14676TIP3    H165519   4.759   3.311  16.818 -1.9122  2.0967  0.2850
14676TIP3    H265520   4.816   3.300  16.958 -0.8495 -0.4011 -0.2819
14677TIP3   OH265521   3.029   3.733   4.583 -0.7933 -0.5216 -0.1237
14677TIP3    H165522   3.061   3.818   4.552 -0.5089 -0.8685 -0.7993
14677TIP3    H265523   3.044   3.735   4.677  0.4989 -0.3551 -0.3115
14678TIP3   OH265524   1.549   3.551  12.530  0.2856  0.1349 -0.0054
14678TIP3    H165525   1.533   3.457  12.524 -0.9324  0.2637  0.8917
14678TIP3    H265526   1.502   3.588  12.455  1.1905  0.0166 -0.6627
14679TIP3   OH265527   1.175   4.642   5.565  0.0834 -0.9319 -0.0956
14679TIP3    H165528   1.121   4.701   5.512 -0.3386  0.2028  1.5020
14679TIP3    H265529   1.191   4.567   5.508  0.4049  0.5709 -2.1262
14680TIP3   OH265530   4.487   3.217   6.831 -0.0546 -0.0058  0.3903
14680TIP3    H165531   4.540   3.181   6.902  1.9666  1.2426 -0.4100
14680TIP3    H265532   4.412   3.158   6.824 -0.0637 -0.4524  3.1955
14681TIP3   OH265533   3.717   1.785  10.664  0.4896 -0.1972  0.4973
14681TIP3    H165534   3.667   1.842  10.723  1.6525  0.1446  1.1982
14681TIP3    H265535   3.805   1.825  10.661  0.4041 -0.0461 -1.7095
14682TIP3   OH265536   3.992   4.935   0.712  0.0472  0.0777  0.1252
14682TIP3    H165537   3.897   4.946   0.702 -0.0117 -1.0148 -0.7591
14682TIP3    H265538   4.021   4.898   0.629  0.6395 -3.1824  1.5854
14683TIP3   OH265539   2.603   4.286   3.084 -0.2442 -0.0590 -0.2165
14683TIP3    H165540   2.532   4.332   3.131  0.2975 -0.0179  0.5903
14683TIP3    H265541   2.557   4.226   3.025 -0.9631  1.1793 -0.9620
14684TIP3   OH265542   5.543   1.659  15.795 -0.2222 -0.0999  0.3925
14684TIP3    H165543   5.557   1.745  15.834 -1.2924 -0.0975  0.8146
14684TIP3    H265544   5.460   1.629  15.832  0.0401 -1.2396  0.1139
14685TIP3   OH265545   4.089   1.123   0.198  0.0028 -0.1305  0.0209
14685TIP3    H165546   4.166   1.168   0.165  0.0108  0.5233  0.9238
14685TIP3    H265547   4.031   1.192   0.229  0.5254 -0.7198  2.5674
14686TIP3   OH265548   2.224   6.740   0.251  0.2455  0.5000 -0.4834
14686TIP3    H165549   2.199   6.823   0.293 -0.6016  0.1520 -0.2696
14686TIP3    H265550   2.222   6.676   0.323  0.1317  0.1519 -0.7952
14687TIP3   OH265551   4.914   3.817   2.168 -0.0159 -0.3076 -0.3283
14687TIP3    H165552   4.852   3.769   2.113 -0.8629  1.4138 -0.9665
14687TIP3    H265553   4.994   3.821   2.116  0.2795 -1.5799  0.0178
14688TIP3   OH265554   2.847   5.222  12.469  0.0516 -0.1962  0.0293
14688TIP3    H165555   2.775   5.284  12.469 -0.5653 -0.8985 -0.0677
14688TIP3    H265556   2.905   5.252  12.399  0.1398  0.6814  0.4612
14689TIP3   OH265557   2.805   5.186  12.823  0.2182  0.0333  0.1057
14689TIP3    H165558   2.827   5.222  12.909  0.0485  0.1943  0.0834
14689TIP3    H265559   2.735   5.123  12.840 -1.0662  1.3300 -0.1017
14690TIP3   OH265560   1.457   3.865   3.943 -0.5416  0.2476  0.0672
14690TIP3    H165561   1.479   3.797   3.878 -0.0508  0.2129  0.2620
14690TIP3    H265562   1.444   3.817   4.024 -0.0853  0.3888  0.2308
14691TIP3   OH265563   4.242   4.873   2.834 -1.1160  0.2197 -0.2676
14691TIP3    H165564   4.310   4.877   2.901 -0.5923  1.7499 -0.8458
14691TIP3    H265565   4.211   4.783   2.836 -0.3937 -0.0190  1.3099
14692TIP3   OH265566   3.762   5.873   0.571 -0.0693 -0.1415 -0.1419
14692TIP3    H165567   3.781   5.945   0.630  0.1550 -0.3652  0.0605
14692TIP3    H265568   3.814   5.891   0.493  1.6642 -1.1795  0.7208
14693TIP3   OH265569   2.845   4.782   5.591 -0.5652 -0.0722 -0.2658
14693TIP3    H165570   2.806   4.865   5.562 -0.5698 -0.3112 -0.9368
14693TIP3    H265571   2.899   4.753   5.518  1.8182  0.8148  1.0133
14694TIP3   OH265572   1.979   2.830   3.330 -0.0263  0.4625 -0.2211
14694TIP3    H165573   2.008   2.866   3.246 -0.0561  0.7620 -0.1029
14694TIP3    H265574   1.918   2.760   3.306  0.0009  0.5169 -0.4512
14695TIP3   OH265575   6.328   1.006  15.273  0.4185  0.2428  0.1198
14695TIP3    H165576   6.410   1.018  15.225 -0.4176  0.9580 -1.2015
14695TIP3    H265577   6.333   1.070  15.344  0.2778  1.5449 -1.0016
14696TIP3   OH265578   0.343   5.585  16.907  0.7899 -0.2068 -0.0843
14696TIP3    H165579   0.313   5.507  16.862  1.7461 -0.1246 -0.9204
14696TIP3    H265580   0.270   5.612  16.962  0.2013 -1.2800 -0.3248
14697TIP3   OH265581   2.183   1.173  16.044 -0.1189 -0.2891  0.2731
14697TIP3    H165582   2.274   1.167  16.017 -0.3228 -1.3335 -0.2734
14697TIP3    H265583   2.166   1.266  16.054  1.2866 -0.1278  1.4004
14698TIP3   OH265584   2.823   1.127   1.634 -0.1010  0.3947  0.0424
14698TIP3    H165585   2.859   1.142   1.546 -0.6275  0.3158 -0.1941
14698TIP3    H265586   2.878   1.178   1.692 -0.4609  1.3962 -0.4698
14699TIP3   OH265587   6.000   5.691   3.222 -0.1758 -0.2468  0.5942
14699TIP3    H165588   6.063   5.679   3.152 -1.1426  0.7255 -0.4926
14699TIP3    H265589   6.019   5.779   3.257 -0.5058 -0.2100  0.6890
14700TIP3   OH265590   4.240   1.384  11.239  0.3918  0.3828 -0.5680
14700TIP3    H165591   4.253   1.421  11.151 -0.4283  0.2042 -0.7704
14700TIP3    H265592   4.246   1.460  11.297  0.1532  0.6260 -0.8553
14701TIP3   OH265593   6.753   3.259  16.227  0.0191  0.3369 -0.1083
14701TIP3    H165594   6.763   3.173  16.185  0.2945 -0.1489  0.9175
14701TIP3    H265595   6.659   3.276  16.225 -0.3880 -1.2064  1.9449
14702TIP3   OH265596   1.706   1.479   2.985 -0.1416 -0.2755  0.2036
14702TIP3    H165597   1.780   1.418   2.991 -0.3660 -0.7016 -1.0579
14702TIP3    H265598   1.745   1.561   2.956  0.0517 -0.0439  1.1112
14703TIP3   OH265599   6.681   1.117   4.675 -0.1694 -0.6930  0.1884
14703TIP3    H165600   6.589   1.141   4.661  0.2514  1.6127  0.9643
14703TIP3    H265601   6.679   1.023   4.692 -2.1329 -1.1188 -1.8484
14704TIP3   OH265602   1.007   5.118  15.250  0.0344 -0.4004  0.2715
14704TIP3    H165603   1.046   5.204  15.235  0.2827  0.0507  2.9485
14704TIP3    H265604   0.928   5.117  15.197  1.5869  0.2095 -2.2213
14705TIP3   OH265605   3.186   0.229  13.211 -0.0290  0.3439  0.4046
14705TIP3    H165606   3.108   0.238  13.156  0.3336 -0.0752 -0.1941
14705TIP3    H265607   3.187   0.309  13.264 -0.3165  0.8369 -0.3001
14706TIP3   OH265608   6.227   2.991   3.882  0.4906  0.1741  0.0655
14706TIP3    H165609   6.164   3.063   3.890  0.1014 -0.2332  0.7557
14706TIP3    H265610   6.173   2.912   3.876  0.9214 -0.0985 -0.2732
14707TIP3   OH265611   3.749   6.260   5.239  0.4596 -0.2755  0.0917
14707TIP3    H165612   3.735   6.352   5.261  0.6003 -0.1508 -0.3234
14707TIP3    H265613   3.726   6.212   5.318  4.0822  0.3367  1.7036
14708TIP3   OH265614   5.322   3.645   2.271  0.0289 -0.6255 -0.3580
14708TIP3    H165615   5.265   3.571   2.294 -2.0384  0.7890 -0.6746
14708TIP3    H265616   5.405   3.624   2.313 -1.3180 -1.7862  1.9601
14709TIP3   OH265617   1.506   3.793   0.549  0.0535 -0.7184  0.3863
14709TIP3    H165618   1.419   3.830   0.563  0.4157  0.1536  0.3802
14709TIP3    H265619   1.567   3.861   0.579  0.7858 -0.2663 -1.9187
14710TIP3   OH265620   3.740   0.515   4.802  0.1553 -0.5463  0.1302
14710TIP3    H165621   3.778   0.429   4.786  0.4718 -0.5277  0.7384
14710TIP3    H265622   3.790   0.550   4.876  0.5188  0.4603 -0.5718
14711TIP3   OH265623   0.484   4.289   5.173  0.4589  0.5584 -0.3203
14711TIP3    H165624   0.403   4.325   5.137  0.2855  1.6488  1.0759
14711TIP3    H265625   0.462   4.263   5.262  1.0820 -1.3456 -0.6690
14712TIP3   OH265626   2.305   0.858  12.390 -0.0520  0.1369  0.1421
14712TIP3    H165627   2.374   0.915  12.356  0.9276 -0.7074  0.6246
14712TIP3    H265628   2.343   0.820  12.470 -1.1457 -0.2301  0.5138
14713TIP3   OH265629   3.024   3.324   1.753  0.0111  0.3172  0.4516
14713TIP3    H165630   3.024   3.338   1.659  0.1504  1.6936  0.6412
14713TIP3    H265631   3.066   3.239   1.764  1.0318  0.6480 -0.6636
14714TIP3   OH265632   0.911   3.255  15.060  0.9313 -0.3970 -0.1396
14714TIP3    H165633   0.878   3.166  15.046  1.7772 -1.5595  3.8249
14714TIP3    H265634   0.989   3.243  15.115  1.2627  2.7973  0.2738
14715TIP3   OH265635   6.564   2.673   0.741 -0.3656 -0.1555  0.6335
14715TIP3    H165636   6.587   2.584   0.766 -0.6150 -0.1651  0.8234
14715TIP3    H265637   6.511   2.707   0.813  3.0067  1.5630  2.5664
14716TIP3   OH265638   5.913   6.793   5.213  0.1935 -0.3803 -0.0917
14716TIP3    H165639   5.985   6.852   5.233  0.4835 -0.8687  0.3279
14716TIP3    H265640   5.938   6.752   5.130  0.2047 -0.2423 -0.1559
14717TIP3   OH265641   1.334   4.032   6.853 -0.3766  0.2833 -0.2605
14717TIP3    H165642   1.417   3.986   6.841 -0.5520  0.0393 -0.5502
14717TIP3    H265643   1.301   4.046   6.765 -0.8468  0.0078 -0.1316
14718TIP3   OH265644   1.637   5.963  14.766 -0.3441  0.5835 -0.0701
14718TIP3    H165645   1.714   5.921  14.726 -0.1926  0.1664  0.6541
14718TIP3    H265646   1.585   5.890  14.800 -0.7472  0.9077  0.0122
14719TIP3   OH265647   2.392   6.602   4.926  0.0025 -0.0396 -0.4391
14719TIP3    H165648   2.322   6.664   4.944  1.3801  1.3756  0.2889
14719TIP3    H265649   2.397   6.548   5.005 -1.5224 -1.4742 -1.2656
14720TIP3   OH265650   3.458   0.068  14.320 -0.2139  0.6421 -0.3487
14720TIP3    H165651   3.370   0.083  14.286  0.9252  2.1400 -3.0073
14720TIP3    H265652   3.499   0.155  14.320  1.8880 -0.2613 -1.3046
14721TIP3   OH265653   5.581   0.670   0.349  0.0214  0.6801 -0.2687
14721TIP3    H165654   5.611   0.735   0.286  1.0729  1.0992  0.6402
14721TIP3    H265655   5.656   0.611   0.360 -0.5210 -0.0094 -0.2079
14722TIP3   OH265656   5.424   4.547   1.459  1.0719  0.4535  0.8898
14722TIP3    H165657   5.413   4.597   1.539  0.1825 -0.5542  1.4238
14722TIP3    H265658   5.507   4.577   1.422  1.1466  1.4151  1.8239
14723TIP3   OH265659   6.179   1.418  12.125 -0.1491  0.5841  0.2294
14723TIP3    H165660   6.198   1.353  12.057  0.3806  0.3771  0.5670
14723TIP3    H265661   6.253   1.412  12.185 -0.6347  0.7280  0.8544
14724TIP3   OH265662   5.679   4.082   1.269 -0.2711  0.6165  0.5968
14724TIP3    H165663   5.704   4.076   1.177  0.7900  0.1596  0.9030
14724TIP3    H265664   5.589   4.052   1.272 -0.1391  0.1301 -0.2173
14725TIP3   OH265665   6.798   5.669  12.223  0.1797  0.3626  0.0046
14725TIP3    H165666   6.710   5.706  12.217 -0.3787 -0.8540  0.3842
14725TIP3    H265667   6.821   5.647  12.132 -0.2184  0.0029 -0.0134
14726TIP3   OH265668   1.573   3.493  13.889  0.2423 -0.3811  0.7830
14726TIP3    H165669   1.579   3.589  13.890 -0.1849 -0.3518  1.3397
14726TIP3    H265670   1.516   3.473  13.963 -0.4587 -1.0125  0.0860
14727TIP3   OH265671   5.978   1.030   4.772 -0.8519  0.1270 -0.3894
14727TIP3    H165672   5.982   1.072   4.858 -0.3035  2.4177 -1.4762
14727TIP3    H265673   6.057   0.976   4.768  1.0261  2.6965 -0.6942
14728TIP3   OH265674   2.213   4.850   0.830  0.2537  0.0873 -0.6895
14728TIP3    H165675   2.151   4.798   0.881  2.0339  1.9586  3.9068
14728TIP3    H265676   2.169   4.934   0.818  0.1706 -0.0801 -1.6380
14729TIP3   OH265677   1.663   2.124  13.678 -0.4453  0.8723  0.2222
14729TIP3    H165678   1.683   2.172  13.759 -1.0490  2.4675 -0.5214
14729TIP3    H265679   1.643   2.193  13.614  2.4052 -0.1724 -2.0083
14730TIP3   OH265680   5.306   6.325  15.261 -0.0495  0.0925  0.1241
14730TIP3    H165681   5.380   6.279  15.222 -0.7074 -0.2472 -0.7611
14730TIP3    H265682   5.235   6.313  15.198 -0.4236  1.7727  0.2029
14731TIP3   OH265683   4.748   5.318  15.916 -0.3007 -0.4325 -0.2805
14731TIP3    H165684   4.727   5.231  15.880  0.8410 -2.0807  2.6752
14731TIP3    H265685   4.677   5.337  15.977 -0.4540  0.6656 -0.7798
14732TIP3   OH265686   0.185   1.073  15.241 -0.4562  0.4368 -0.3021
14732TIP3    H165687   0.200   0.987  15.203 -1.8694  0.9984 -2.3136
14732TIP3    H265688   0.200   1.061  15.335 -0.7103 -2.0217 -0.5134
14733TIP3   OH265689   2.561   3.218  15.881 -0.6851 -0.7861  0.0062
14733TIP3    H165690   2.617   3.180  15.813  0.5350  0.5838  0.1851
14733TIP3    H265691   2.499   3.272  15.832 -0.7435 -0.9537 -0.1052
14734TIP3   OH265692   0.791   3.403   4.009  0.4109  0.5557 -0.2803
14734TIP3    H165693   0.709   3.382   3.963  0.2116  1.8854 -0.5648
14734TIP3    H265694   0.823   3.482   3.965  1.4135  0.5253  0.3862
14735TIP3   OH265695   1.640   6.200  15.488  0.1939  0.2158 -0.3959
14735TIP3    H165696   1.581   6.267  15.453 -0.6107  0.2561  0.9544
14735TIP3    H265697   1.632   6.208  15.583  2.9363  0.6761 -0.1427
14736TIP3   OH265698   1.002   1.699  14.369  0.2922  0.2270 -0.1300
14736TIP3    H165699   1.038   1.647  14.297  0.2774  0.3682 -0.2398
14736TIP3    H265700   0.948   1.638  14.418 -0.0931  0.2483 -0.5240
14737TIP3   OH265701   0.874   3.448  15.875 -0.0899  0.3678 -0.0931
14737TIP3    H165702   0.867   3.494  15.791 -1.2252  1.0238  0.3488
14737TIP3    H265703   0.824   3.501  15.936  1.1122  0.1457  1.1317
14738TIP3   OH265704   5.173   1.418  14.367 -0.3552 -0.5630  0.3712
14738TIP3    H165705   5.090   1.442  14.408 -0.1111 -1.1790  1.2445
14738TIP3    H265706   5.210   1.501  14.338 -1.6642 -0.3475 -0.8152
14739TIP3   OH265707   2.791   0.724  16.001  0.6394  0.1763  0.8616
14739TIP3    H165708   2.882   0.696  15.991  0.8853  1.1643  0.1762
14739TIP3    H265709   2.767   0.759  15.916 -0.9771 -1.6826  0.4921
14740TIP3   OH265710   5.549   2.290   2.022 -0.2864 -0.0615 -0.3405
14740TIP3    H165711   5.514   2.371   1.985  0.6191  0.4135 -0.1897
14740TIP3    H265712   5.644   2.298   2.012 -0.1905 -1.1941 -0.5061
14741TIP3   OH265713   4.387   4.006  14.929 -0.4319  0.0420 -0.3717
14741TIP3    H165714   4.344   4.082  14.967 -0.2566  1.0373 -2.0336
14741TIP3    H265715   4.322   3.968  14.870 -1.0030 -1.9849  1.4320
14742TIP3   OH265716   1.269   0.141  13.861 -0.3272 -0.0498 -0.2977
14742TIP3    H165717   1.263   0.047  13.843  1.0977 -0.4167  0.8971
14742TIP3    H265718   1.203   0.156  13.929  1.3728 -0.8424  1.6319
14743TIP3   OH265719   2.701   1.271   0.038  0.2115  0.5037  0.6216
14743TIP3    H165720   2.695   1.363   0.012  0.0921  0.2944 -0.1154
14743TIP3    H265721   2.618   1.233   0.011  0.7268 -0.0828 -0.1910
14744TIP3   OH265722   3.233   0.442   4.940  0.1113  0.2252  0.1162
14744TIP3    H165723   3.210   0.521   4.889  0.8715  1.0085  0.9620
14744TIP3    H265724   3.325   0.428   4.921 -0.4539 -1.6409 -1.5559
14745TIP3   OH265725   5.167   0.451  15.769 -0.2240  0.0376 -0.2621
14745TIP3    H165726   5.234   0.509  15.733 -0.5203  0.8437  0.4423
14745TIP3    H265727   5.196   0.433  15.859  0.0730 -1.2590 -0.5927
14746TIP3   OH265728   0.185   2.535  14.871 -0.0775  0.8470 -0.3953
14746TIP3    H165729   0.177   2.585  14.790  1.2240 -0.3512 -1.3052
14746TIP3    H265730   0.262   2.574  14.914 -0.0486  0.6973 -0.3130
14747TIP3   OH265731   4.173   1.699   2.246  0.3753 -0.1280 -0.3910
14747TIP3    H165732   4.123   1.734   2.320  2.2523 -0.8177  1.2952
14747TIP3    H265733   4.174   1.770   2.182 -0.6185  0.7932  0.5635
14748TIP3   OH265734   1.236   0.026  10.857 -0.2493  0.6760 -0.7363
14748TIP3    H165735   1.232   0.012  10.952  1.0584  0.5336 -0.6895
14748TIP3    H265736   1.147   0.007  10.827 -0.5402  0.1465  0.3822
14749TIP3   OH265737   4.919   4.988   2.671  0.0926  0.6293 -0.6537
14749TIP3    H165738   4.841   4.932   2.664 -0.4500  1.0560  1.4098
14749TIP3    H265739   4.976   4.958   2.600 -1.3950 -0.5849 -1.3894
14750TIP3   OH265740   2.067   6.322   0.399 -0.8220 -0.1725  0.1411
14750TIP3    H165741   2.055   6.276   0.316  2.3632  1.3544 -1.3463
14750TIP3    H265742   2.153   6.293   0.429 -1.9306 -0.7355  3.0472
14751TIP3   OH265743   4.172   6.357   2.897  0.1591 -0.2536  0.2096
14751TIP3    H165744   4.184   6.422   2.828  0.2462 -2.6157 -2.1327
14751TIP3    H265745   4.260   6.340   2.930  0.2314  0.2215  0.2649
14752TIP3   OH265746   2.442   2.051   2.492  0.5440 -0.0580  0.6987
14752TIP3    H165747   2.496   1.982   2.454 -0.9051 -1.4888  1.0805
14752TIP3    H265748   2.504   2.111   2.533  1.8399 -2.1128  1.9296
14753TIP3   OH265749   2.292   2.838   3.333  0.2461 -0.9118  0.0540
14753TIP3    H165750   2.249   2.756   3.308 -0.4602 -0.8989  1.1349
14753TIP3    H265751   2.342   2.815   3.412  1.0439 -0.5744 -0.3399
14754TIP3   OH265752   6.278   3.043  13.314  0.2844  0.4444 -0.3362
14754TIP3    H165753   6.317   2.992  13.243 -0.0743  0.6882 -0.7155
14754TIP3    H265754   6.184   3.027  13.306  0.1309  1.4561 -0.7029
14755TIP3   OH265755   0.888   1.787   4.525  0.0220 -0.2272 -0.3190
14755TIP3    H165756   0.935   1.870   4.519 -0.9355  0.1909 -3.1953
14755TIP3    H265757   0.949   1.723   4.489 -0.4986 -0.1689 -1.3290
14756TIP3   OH265758   5.346   2.882  16.721  0.3727  0.4703  0.2272
14756TIP3    H165759   5.399   2.879  16.800  0.5507  1.8834  0.1962
14756TIP3    H265760   5.351   2.794  16.685  1.5435  0.2051  0.9765
14757TIP3   OH265761   4.217   3.278  16.831 -0.5654 -0.1433  0.2649
14757TIP3    H165762   4.299   3.291  16.783  0.3618 -0.3298  1.7167
14757TIP3    H265763   4.197   3.185  16.820 -1.0866  0.0810 -0.8214
14758TIP3   OH265764   6.837   6.681  15.541 -0.0628 -0.3244 -0.2204
14758TIP3    H165765   6.919   6.648  15.577 -0.7190 -1.4298  0.3046
14758TIP3    H265766   6.773   6.665  15.610 -0.7071  0.6477 -0.5697
14759TIP3   OH265767   6.121   1.009  13.287 -0.2158  0.8134 -0.3694
14759TIP3    H165768   6.049   0.990  13.227 -0.4226 -0.5924  0.2832
14759TIP3    H265769   6.194   0.955  13.255 -0.3503  0.0030  0.6693
14760TIP3   OH265770   5.744   0.930   5.105  0.1224 -0.3722  0.3811
14760TIP3    H165771   5.691   1.007   5.084 -0.2989 -0.7773 -0.0576
14760TIP3    H265772   5.826   0.944   5.057 -1.2335 -1.8084 -2.5492
14761TIP3   OH265773   2.606   3.590   6.585  0.2212  0.2889 -0.0738
14761TIP3    H165774   2.647   3.665   6.542  0.8174  0.2200  0.3717
14761TIP3    H265775   2.622   3.516   6.526 -0.3191  0.4964 -0.4861
14762TIP3   OH265776   5.504   1.828  16.858 -0.1403 -0.1740 -0.6231
14762TIP3    H165777   5.465   1.823  16.946  0.8393 -0.1034 -0.1671
14762TIP3    H265778   5.566   1.901  16.864 -0.8335  0.5236 -1.6947
14763TIP3   OH265779   1.836   4.176   5.743 -0.2169  0.0631  0.3454
14763TIP3    H165780   1.925   4.207   5.764  0.6962 -1.2871 -1.2834
14763TIP3    H265781   1.799   4.152   5.828  2.5506 -3.2388  0.8450
14764TIP3   OH265782   6.417   0.186   4.880 -0.5403  0.2692  0.0392
14764TIP3    H165783   6.450   0.245   4.948  0.4254  0.6628 -0.7524
14764TIP3    H265784   6.440   0.098   4.912 -0.0155  0.4549  0.1766
14765TIP3   OH265785   6.308   3.805   6.547 -0.2960 -0.0144 -0.4247
14765TIP3    H165786   6.278   3.758   6.469  2.8383 -2.4667 -0.3638
14765TIP3    H265787   6.288   3.746   6.619 -1.6154  1.4817  0.4973
14766TIP3   OH265788   2.373   5.670   5.570 -0.1492 -0.8195 -0.2222
14766TIP3    H165789   2.409   5.728   5.637  0.8976 -0.9196 -0.6742
14766TIP3    H265790   2.371   5.724   5.491 -0.4267 -0.9980 -0.3380
14767TIP3   OH265791   1.586   4.970   2.567 -0.2814  0.3179  0.7387
14767TIP3    H165792   1.606   5.007   2.481 -2.9236 -0.7513 -0.4352
14767TIP3    H265793   1.607   4.877   2.560 -1.0073  0.1226  1.0701
14768TIP3   OH265794   2.182   4.577  13.297  0.3370 -0.8001  0.2071
14768TIP3    H165795   2.111   4.631  13.262  1.3560  0.2328 -0.3439
14768TIP3    H265796   2.153   4.487  13.284 -1.0528 -0.4134  0.3969
14769TIP3   OH265797   2.322   3.740   4.800  0.2015  0.1417  0.0762
14769TIP3    H165798   2.285   3.659   4.766  1.7682 -0.9472  0.8668
14769TIP3    H265799   2.262   3.808   4.769 -2.5323 -1.4910  1.4181
14770TIP3   OH265800   6.417   2.305   1.463  0.0067 -0.0087 -0.4159
14770TIP3    H165801   6.476   2.379   1.475 -1.8210  1.6024 -0.8727
14770TIP3    H265802   6.331   2.345   1.450 -1.2803 -2.2635  0.6065
14771TIP3   OH265803   6.112   0.553   1.646 -0.5371  0.0416  0.2408
14771TIP3    H165804   6.029   0.511   1.671 -0.7023 -0.4638 -1.1115
14771TIP3    H265805   6.148   0.498   1.578  1.6297 -0.5006  1.7145
14772TIP3   OH265806   5.014   0.333   5.886 -0.2043  0.3748  0.2045
14772TIP3    H165807   4.999   0.370   5.973  0.8251  2.0141 -0.2851
14772TIP3    H265808   5.020   0.409   5.828 -0.5574 -0.6757 -1.2644
14773TIP3   OH265809   1.023   3.345  14.617 -0.3521  0.1501 -0.1612
14773TIP3    H165810   1.010   3.250  14.613 -0.0634  0.1385 -1.0587
14773TIP3    H265811   0.938   3.379  14.644  0.0446 -0.4796  2.0985
14774TIP3   OH265812   3.908   2.845  15.847 -0.1007  0.0160 -0.1120
14774TIP3    H165813   3.863   2.883  15.771 -0.4871 -1.4434 -0.6551
14774TIP3    H265814   3.992   2.816  15.812 -0.2483 -0.5869  0.0268
14775TIP3   OH265815   1.060   4.619  15.642 -0.1094 -0.2768  0.2805
14775TIP3    H165816   1.120   4.657  15.577 -0.8381  2.1135  0.9055
14775TIP3    H265817   0.999   4.566  15.591  0.1032  0.5311 -0.8355
14776TIP3   OH265818   5.158   1.368   1.348 -0.3054  0.7672  0.2415
14776TIP3    H165819   5.220   1.363   1.420 -0.8748  1.7444  0.8335
14776TIP3    H265820   5.139   1.277   1.325 -0.3739  0.4293  1.5644
14777TIP3   OH265821   6.534   4.725   5.698 -0.1013 -0.8629  0.1433
14777TIP3    H165822   6.509   4.715   5.790 -0.1579 -1.0291  0.1097
14777TIP3    H265823   6.620   4.767   5.701 -0.0178 -1.0399  0.2761
14778TIP3   OH265824   4.050   0.545   3.691 -0.0362 -0.0713  0.3199
14778TIP3    H165825   3.969   0.499   3.710  0.6804 -1.0149  1.1981
14778TIP3    H265826   4.117   0.500   3.744  1.0172  0.8170 -0.2043
14779TIP3   OH265827   0.919   3.137   4.782  0.8265  0.0407  0.3696
14779TIP3    H165828   0.831   3.100   4.768  0.0610  1.5925  0.8606
14779TIP3    H265829   0.976   3.085   4.725 -0.2232 -1.6696  0.8094
14780TIP3   OH265830   2.455   1.271   2.940 -0.2777 -0.3394 -0.6925
14780TIP3    H165831   2.471   1.336   2.872  1.1709  0.9670  0.8010
14780TIP3    H265832   2.538   1.223   2.947 -0.6657 -0.9780 -0.3496
14781TIP3   OH265833   4.400   1.494  12.383  0.7224  0.0885  0.6105
14781TIP3    H165834   4.386   1.410  12.427  1.9727 -0.0077  0.8513
14781TIP3    H265835   4.481   1.528  12.421 -0.0858  1.7056  0.9592
14782TIP3   OH265836   3.130   3.319   2.929  0.3815  0.2969  1.1710
14782TIP3    H165837   3.191   3.289   2.997 -0.3956 -0.8146  1.4182
14782TIP3    H265838   3.116   3.242   2.874 -0.3612  0.6873  0.7918
14783TIP3   OH265839   0.355   0.499  11.780  0.3485  0.1158  0.3438
14783TIP3    H165840   0.360   0.406  11.759 -0.2284  0.4133 -1.3007
14783TIP3    H265841   0.305   0.537  11.708 -1.0877  1.4217  1.9423
14784TIP3   OH265842   5.702   5.182   5.219 -0.2947  0.3530  0.3057
14784TIP3    H165843   5.733   5.265   5.183  0.8461 -0.8592 -1.7264
14784TIP3    H265844   5.606   5.190   5.219 -0.1853  1.9615  1.0075
14785TIP3   OH265845   0.294   3.549  14.989 -0.2948  0.0613 -0.7071
14785TIP3    H165846   0.368   3.527  15.046 -1.5365  0.5928  1.2265
14785TIP3    H265847   0.243   3.468  14.985 -1.2018  0.5365  0.5801
14786TIP3   OH265848   2.913   5.080  16.552 -0.0099 -0.7316  0.0811
14786TIP3    H165849   2.902   5.043  16.465  0.4236  1.2845 -0.8716
14786TIP3    H265850   2.883   5.170  16.545  2.4405  0.2731  1.3242
14787TIP3   OH265851   5.240   1.597  11.291  0.0825  0.1190 -0.2795
14787TIP3    H165852   5.246   1.594  11.387 -2.4824  0.4024 -0.0406
14787TIP3    H265853   5.284   1.678  11.267 -0.3157  0.6741  0.7837
14788TIP3   OH265854   2.184   6.502   5.843 -0.0870  0.3712  0.0226
14788TIP3    H165855   2.195   6.410   5.821  0.3788  0.5179 -0.3622
14788TIP3    H265856   2.090   6.512   5.857 -0.1982 -0.0611 -0.3931
14789TIP3   OH265857   0.174   3.585   2.660 -0.2248 -0.4012 -0.1631
14789TIP3    H165858   0.180   3.491   2.644 -0.9989 -0.6619  0.9648
14789TIP3    H265859   0.191   3.595   2.754 -0.2051  0.5825 -0.2595
14790TIP3   OH265860   5.221   0.600   0.175 -0.2796 -0.6580  0.0565
14790TIP3    H165861   5.144   0.655   0.159  1.2013  2.0079  1.3849
14790TIP3    H265862   5.259   0.586   0.089 -0.3618  0.9938 -0.2692
14791TIP3   OH265863   5.510   4.147   3.977  0.5262 -0.5303  0.5323
14791TIP3    H165864   5.565   4.071   3.956 -0.0576 -0.3684 -1.9039
14791TIP3    H265865   5.543   4.216   3.920 -0.3510  0.4083  1.1516
14792TIP3   OH265866   2.563   0.857   1.460  0.1310 -0.2666 -0.6851
14792TIP3    H165867   2.589   0.829   1.548  1.0774 -1.3127 -1.2753
14792TIP3    H265868   2.643   0.849   1.408 -0.6031 -0.3948 -1.8126
14793TIP3   OH265869   3.926   0.112  14.034  0.0897 -0.3780 -0.0811
14793TIP3    H165870   3.908   0.115  14.128  0.8339 -0.5132  0.0688
14793TIP3    H265871   3.946   0.202  14.009  0.8931 -0.5031  0.0952
14794TIP3   OH265872   0.495   2.662  16.373  0.5970  0.4685  0.1024
14794TIP3    H165873   0.430   2.689  16.438 -0.9927 -1.7629 -0.4515
14794TIP3    H265874   0.555   2.605  16.422 -0.9284 -1.6818 -0.3733
14795TIP3   OH265875   6.636   4.400   4.309  1.1382 -0.2139  0.3017
14795TIP3    H165876   6.587   4.344   4.370 -0.9410  0.1673 -0.9590
14795TIP3    H265877   6.586   4.481   4.306  3.0281  1.0182  0.5522
14796TIP3   OH265878   5.804   4.018   4.999  0.0487 -0.2419 -0.2168
14796TIP3    H165879   5.845   3.935   4.975  0.5249 -0.6323  1.7755
14796TIP3    H265880   5.711   3.998   5.005  0.3139 -1.1186  1.8621
14797TIP3   OH265881   1.502   5.961  16.514  0.2569 -0.6515  0.3545
14797TIP3    H165882   1.431   5.904  16.544 -1.0463  0.4319 -0.5265
14797TIP3    H265883   1.567   5.958  16.584 -0.8060 -1.4198  1.3450
14798TIP3   OH265884   0.076   3.498   2.243 -0.0661 -0.1436 -0.6951
14798TIP3    H165885   0.107   3.586   2.262 -0.6330 -0.1632  0.3898
14798TIP3    H265886   0.155   3.444   2.239  0.1614  0.0471  0.7054
14799TIP3   OH265887   5.523   1.485  16.587 -0.0636 -0.6235  0.3399
14799TIP3    H165888   5.611   1.447  16.593 -0.7461 -2.3471 -0.1469
14799TIP3    H265889   5.503   1.511  16.677  2.2073  2.9509  0.0137
14800TIP3   OH265890   3.021   2.518  13.403  0.4494  0.6647 -0.1995
14800TIP3    H165891   3.104   2.501  13.358  0.3284  0.7166 -0.4497
14800TIP3    H265892   2.955   2.508  13.334  0.0066 -1.8400  0.5170
14801TIP3   OH265893   3.696   3.507   6.759 -0.0680 -0.2849 -0.4448
14801TIP3    H165894   3.605   3.512   6.789  0.8084 -1.2603  2.7154
14801TIP3    H265895   3.689   3.483   6.666 -3.0162 -1.8298  0.0627
14802TIP3   OH265896   0.996   4.284  12.801 -0.0006 -0.5392  0.1736
14802TIP3    H165897   0.971   4.249  12.716  0.9814  0.5432 -0.6068
14802TIP3    H265898   0.935   4.355  12.817  0.1300 -0.4101  0.1101
14803TIP3   OH265899   0.177   5.387  16.440 -0.1691 -0.1522  0.0649
14803TIP3    H165900   0.246   5.367  16.378  0.0046  0.1391  0.1602
14803TIP3    H265901   0.124   5.307  16.445 -1.0544  0.3016 -1.5665
14804TIP3   OH265902   2.191   2.114  15.343 -0.3125  0.0942  0.1754
14804TIP3    H165903   2.105   2.100  15.384  0.2561 -0.4851  1.2020
14804TIP3    H265904   2.233   2.180  15.399 -0.2870  0.7861 -0.6384
14805TIP3   OH265905   0.852   1.634  11.197 -0.0658 -0.3186 -0.2800
14805TIP3    H165906   0.775   1.584  11.222 -0.0226 -0.9240 -1.2775
14805TIP3    H265907   0.869   1.692  11.271 -1.4161 -0.2398 -0.0079
14806TIP3   OH265908   5.130   3.526  13.242  0.3599 -0.3437  0.2943
14806TIP3    H165909   5.072   3.494  13.173 -1.4431  1.1861  1.0058
14806TIP3    H265910   5.108   3.471  13.318 -0.2911  0.3245  0.6003
14807TIP3   OH265911   5.967   3.965  16.278 -0.5240  0.8035  0.0919
14807TIP3    H165912   6.007   4.048  16.253 -0.9917  0.2593 -2.8806
14807TIP3    H265913   5.874   3.986  16.289 -0.4224  0.9080  0.8465
14808TIP3   OH265914   2.293   6.223   4.926 -0.2010  0.1427  0.3854
14808TIP3    H165915   2.370   6.166   4.925  0.1631  0.6226  1.0036
14808TIP3    H265916   2.305   6.279   5.002 -0.7589  0.7812  0.0132
14809TIP3   OH265917   0.187   2.752   0.583 -0.4469 -0.1051 -0.0329
14809TIP3    H165918   0.185   2.703   0.501 -2.0121  1.1987 -0.8120
14809TIP3    H265919   0.103   2.798   0.586 -0.4172 -0.0849  2.2947
14810TIP3   OH265920   6.032   6.447  15.200 -0.1323  0.4227 -0.2422
14810TIP3    H165921   6.097   6.466  15.267  1.0602 -0.5451 -1.0950
14810TIP3    H265922   5.959   6.506  15.220  1.6101  2.6655 -0.1768
14811TIP3   OH265923   5.041   5.751   4.510 -0.5419  0.2584 -0.1458
14811TIP3    H165924   4.990   5.766   4.589  1.4234  0.5688  1.1332
14811TIP3    H265925   5.122   5.801   4.523  0.4281 -0.7859 -1.7280
14812TIP3   OH265926   4.773   2.487  16.056  0.1122  0.0474  0.0346
14812TIP3    H165927   4.833   2.415  16.073  0.0458  0.0465  0.2614
14812TIP3    H265928   4.749   2.520  16.142 -0.3850 -0.0893 -0.0464
14813TIP3   OH265929   3.908   5.415  16.265 -0.8587  0.1033  0.0988
14813TIP3    H165930   3.871   5.503  16.252 -1.1766  0.8341  4.4083
14813TIP3    H265931   3.931   5.413  16.358  1.3157 -3.6353 -0.3508
14814TIP3   OH265932   1.502   1.863   5.600  0.3452 -0.0897 -0.0455
14814TIP3    H165933   1.563   1.936   5.604  0.3635 -0.1654  1.8005
14814TIP3    H265934   1.488   1.848   5.507  1.8311  1.0155 -0.4733
14815TIP3   OH265935   0.503   3.405   2.203  0.2508 -0.5658  0.4796
14815TIP3    H165936   0.428   3.409   2.143 -0.5121 -1.3422  1.3424
14815TIP3    H265937   0.578   3.429   2.149 -0.7618  1.5566 -0.1048
14816TIP3   OH265938   4.462   6.202   0.939  0.1933 -0.2852 -0.3907
14816TIP3    H165939   4.539   6.228   0.889 -0.2675 -0.9722 -1.4929
14816TIP3    H265940   4.485   6.118   0.979  0.8526  0.6386  1.2734
14817TIP3   OH265941   4.937   0.425   5.225 -0.1704 -0.4509  0.0881
14817TIP3    H165942   4.922   0.502   5.279  1.6634  0.3271 -0.4373
14817TIP3    H265943   5.004   0.374   5.271  0.9167 -0.1202 -1.0503
14818TIP3   OH265944   6.627   0.884  11.592 -0.0220  0.0145 -0.3467
14818TIP3    H165945   6.544   0.899  11.636  0.6716  0.3728  0.8916
14818TIP3    H265946   6.688   0.945  11.634  0.8207 -0.1020 -1.3580
14819TIP3   OH265947   2.808   0.996  12.997  0.3317 -0.2157  0.3742
14819TIP3    H165948   2.787   1.080  12.956  0.3107 -0.3278  0.1562
14819TIP3    H265949   2.890   1.012  13.044  0.1743  0.0082  0.5787
14820TIP3   OH265950   1.378   1.658  15.918 -0.3686  0.1753  0.2801
14820TIP3    H165951   1.424   1.576  15.904 -1.0741 -0.3850  1.1569
14820TIP3    H265952   1.426   1.722  15.865 -0.9747 -1.1522 -1.9927
14821TIP3   OH265953   0.991   5.942   4.794  0.6277 -0.7177 -0.1386
14821TIP3    H165954   0.911   5.980   4.759 -0.0541  0.7384  2.7100
14821TIP3    H265955   0.967   5.911   4.881  2.9082 -1.2884  0.3590
14822TIP3   OH265956   0.638   4.017   4.574  0.2109  0.1594  0.2858
14822TIP3    H165957   0.571   4.075   4.609 -1.6862 -1.7135 -0.0879
14822TIP3    H265958   0.707   4.017   4.640 -1.2856  0.1760  1.9212
14823TIP3   OH265959   6.308   1.179  15.924 -0.1384  0.7089 -0.1309
14823TIP3    H165960   6.347   1.258  15.962  1.5480 -1.2118  2.4407
14823TIP3    H265961   6.222   1.208  15.894  0.7531  3.7007 -0.1320
14824TIP3   OH265962   1.150   3.414   3.722 -0.1437  0.0617  0.0661
14824TIP3    H165963   1.070   3.401   3.671 -0.9788  0.4696  1.2314
14824TIP3    H265964   1.148   3.345   3.788 -1.1740  1.9157  2.0761
14825TIP3   OH265965   2.904   3.596   3.869 -0.1329  0.6156  0.2993
14825TIP3    H165966   2.888   3.533   3.800  0.3756  0.1257  0.6228
14825TIP3    H265967   2.989   3.572   3.906 -0.3711  0.8899  1.0661
14826TIP3   OH265968   6.264   0.854  14.604 -0.0488  0.0990  0.7486
14826TIP3    H165969   6.190   0.799  14.578 -0.5202  1.3699 -0.7457
14826TIP3    H265970   6.340   0.813  14.563 -0.4476  0.7004 -0.6602
14827TIP3   OH265971   0.412   4.370   5.721  0.1303  0.0430 -0.2029
14827TIP3    H165972   0.470   4.446   5.711  2.7963 -1.7289  0.6823
14827TIP3    H265973   0.450   4.303   5.665 -0.6308 -1.4175  0.9620
14828TIP3   OH265974   3.094   0.719  16.372  0.0771  0.4621  0.3204
14828TIP3    H165975   3.162   0.686  16.313 -0.1264  0.8818 -0.1577
14828TIP3    H265976   3.037   0.643  16.387 -0.6041  0.6656 -1.0731
14829TIP3   OH265977   3.446   4.858  14.355 -0.4112  0.2615 -0.0053
14829TIP3    H165978   3.520   4.798  14.352 -1.8495 -1.6230  0.2561
14829TIP3    H265979   3.451   4.906  14.272  0.4545 -0.6279 -0.4903
14830TIP3   OH265980   0.008   2.737   1.833 -0.3991 -0.0840 -0.2756
14830TIP3    H165981   0.087   2.761   1.784 -1.0606 -0.2300 -1.4329
14830TIP3    H265982   0.032   2.656   1.878  0.1391 -0.0853 -0.5514
14831TIP3   OH265983   3.896   2.799  16.261 -0.3948 -0.0576  0.0246
14831TIP3    H165984   3.956   2.731  16.291  0.2970  0.4135 -0.2771
14831TIP3    H265985   3.812   2.754  16.250 -0.1877 -0.6485  0.7735
14832TIP3   OH265986   5.601   6.803  12.599  0.5150  0.2837 -0.5322
14832TIP3    H165987   5.546   6.837  12.528 -3.9375 -2.5806  1.0865
14832TIP3    H265988   5.545   6.807  12.677  3.6903 -0.4237  2.0187
14833TIP3   OH265989   4.002   5.273  12.989 -0.1378 -0.1918  0.2094
14833TIP3    H165990   4.046   5.299  12.908 -1.3255  0.7446 -0.1620
14833TIP3    H265991   4.060   5.303  13.059  0.7932 -0.8195 -0.2706
14834TIP3   OH265992   6.605   0.629   0.083 -0.7654 -0.6257 -0.0114
14834TIP3    H165993   6.543   0.561   0.055 -0.5150 -0.9269  0.1515
14834TIP3    H265994   6.677   0.622   0.020  0.3544 -2.1029  1.3600
14835TIP3   OH265995   3.325   5.926  14.928 -0.2805 -0.3600 -0.1943
14835TIP3    H165996   3.407   5.908  14.975 -1.3935 -0.8883  1.6583
14835TIP3    H265997   3.341   5.895  14.839  1.4486 -0.6643  0.1834
14836TIP3   OH265998   0.323   2.151  10.726  0.3160 -0.1158 -0.4231
14836TIP3    H165999   0.361   2.144  10.638  1.1608 -1.9079  0.0307
14836TIP3    H266000   0.329   2.062  10.761 -1.0675  0.3248  1.0310
14837TIP3   OH266001   4.052   0.862  16.028 -0.4790 -0.0141 -0.3932
14837TIP3    H166002   4.026   0.838  16.117  1.9583  0.0979  0.4438
14837TIP3    H266003   4.042   0.782  15.977  1.0104 -0.9839  0.7520
14838TIP3   OH266004   6.611   3.252  16.642 -0.0967  0.3037 -0.2090
14838TIP3    H166005   6.541   3.234  16.580  0.2415  0.3895 -0.6193
14838TIP3    H266006   6.571   3.240  16.728 -0.3620 -0.5783 -0.4468
14839TIP3   OH266007   5.296   4.702  11.676 -0.1003 -0.2467 -0.4388
14839TIP3    H166008   5.332   4.703  11.587 -0.5723 -0.2690 -0.6307
14839TIP3    H266009   5.318   4.788  11.712  2.6400 -1.1985  0.4627
14840TIP3   OH266010   1.908   3.563   5.799 -0.7017 -0.8892 -0.3895
14840TIP3    H166011   1.815   3.559   5.820 -0.6724 -1.6072 -0.3856
14840TIP3    H266012   1.952   3.550   5.883 -0.5736  1.5090 -0.0122
14841TIP3   OH266013   2.236   0.940  17.027  0.1506  0.2925  0.1855
14841TIP3    H166014   2.277   1.023  17.051 -1.1147  0.9686  0.1420
14841TIP3    H266015   2.307   0.876  17.028  1.5770  1.7408 -1.7858
14842TIP3   OH266016   6.352   5.606  10.927  0.5406  0.6453  0.1861
14842TIP3    H166017   6.419   5.617  10.860  0.3521 -1.4949 -0.4239
14842TIP3    H266018   6.269   5.616  10.880  0.4122 -0.5436  0.1191
14843TIP3   OH266019   1.969   5.367  15.963  0.0569  0.2917  0.4609
14843TIP3    H166020   1.925   5.408  16.038 -0.0591 -0.0354  0.5746
14843TIP3    H266021   1.922   5.399  15.887 -1.0199 -0.8240  0.6336
14844TIP3   OH266022   0.350   5.791  16.695  0.0812  0.1848  0.6002
14844TIP3    H166023   0.354   5.746  16.610  1.3698 -0.9997  1.2412
14844TIP3    H266024   0.333   5.721  16.758  3.2503  0.3160  1.7615
14845TIP3   OH266025   5.401   1.272  12.762  0.0747  0.6411 -0.1806
14845TIP3    H166026   5.343   1.196  12.761 -0.9544  1.4048 -0.8967
14845TIP3    H266027   5.447   1.269  12.678  0.9420  0.1507  0.3000
14846TIP3   OH266028   5.620   2.511  11.400 -0.0416  0.4383  0.3396
14846TIP3    H166029   5.621   2.416  11.386 -1.1181  0.2962  1.1215
14846TIP3    H266030   5.541   2.527  11.450 -1.8678  2.1591 -2.7505
14847TIP3   OH266031   1.133   4.508   2.790  0.3031  0.5271 -0.7254
14847TIP3    H166032   1.042   4.485   2.812 -0.1389  1.3523 -1.5999
14847TIP3    H266033   1.127   4.598   2.758  1.4326  0.5757 -0.8211
14848TIP3   OH266034   4.785   0.741  13.768 -0.5421 -0.4302 -0.1200
14848TIP3    H166035   4.765   0.797  13.843  0.8749 -0.2751  0.1649
14848TIP3    H266036   4.788   0.800  13.693  0.7739 -0.1329  0.1527
14849TIP3   OH266037   2.245   0.921  16.173 -0.3914  0.0223  0.2371
14849TIP3    H166038   2.162   0.879  16.149 -0.3227  0.0999 -0.1330
14849TIP3    H266039   2.223   1.013  16.182 -0.1410  0.1868 -0.8129
14850TIP3   OH266040   4.116   1.000  14.466  0.4888  0.4127  0.5021
14850TIP3    H166041   4.022   1.017  14.476  0.3729  0.2143 -0.1945
14850TIP3    H266042   4.152   1.016  14.553 -0.0397  1.4257  0.5493
14851TIP3   OH266043   2.884   6.045  16.348  0.2916  0.3094 -0.1722
14851TIP3    H166044   2.859   5.963  16.306 -1.2109  0.3738  0.5198
14851TIP3    H266045   2.871   6.029  16.441 -2.6642  2.0872 -0.1452
14852TIP3   OH266046   1.766   5.568   3.025 -0.3571 -0.1037  0.3649
14852TIP3    H166047   1.862   5.568   3.026 -0.3473 -1.1503  0.6391
14852TIP3    H266048   1.743   5.661   3.016  0.6751  0.2679  1.1885
14853TIP3   OH266049   0.417   0.116  14.245  0.2137  0.2257  0.2958
14853TIP3    H166050   0.365   0.050  14.199  0.0527 -0.2704  1.1688
14853TIP3    H266051   0.444   0.073  14.327 -0.1439  1.3297  1.0182
14854TIP3   OH266052   6.521   5.059   4.262  0.4360  0.0123 -0.6364
14854TIP3    H166053   6.579   5.112   4.316  0.0060  0.4210 -0.5705
14854TIP3    H266054   6.559   4.971   4.265  0.0904 -0.1126  0.8254
14855TIP3   OH266055   4.836   4.191  11.265  0.1496 -0.8539  0.5388
14855TIP3    H166056   4.907   4.149  11.215 -0.2194 -2.6710  1.4619
14855TIP3    H266057   4.782   4.118  11.295 -1.1443  0.3880  1.3253
14856TIP3   OH266058   4.508   0.361  16.091  0.5227  0.0150 -0.5908
14856TIP3    H166059   4.594   0.319  16.086 -0.1349 -1.4186 -0.5065
14856TIP3    H266060   4.516   0.426  16.161  1.7068  0.3497 -1.0249
14857TIP3   OH266061   0.165   0.115  17.145  0.0800 -0.0221 -0.5734
14857TIP3    H166062   0.187   0.128  17.052  1.2915 -0.5976 -0.3812
14857TIP3    H266063   0.069   0.118  17.147 -0.0285 -1.2485 -2.0322
14858TIP3   OH266064   6.030   0.995   1.334 -0.4059 -0.5067  0.1741
14858TIP3    H166065   6.097   1.017   1.270 -0.0040  0.3209  0.8666
14858TIP3    H266066   6.049   0.904   1.358 -1.4143 -1.3270 -1.8838
14859TIP3   OH266067   3.771   4.464   1.133 -0.1979 -0.2905 -0.3009
14859TIP3    H166068   3.794   4.404   1.063  0.8781 -0.0238 -0.1881
14859TIP3    H266069   3.739   4.542   1.088 -0.5847 -0.5382 -0.4647
14860TIP3   OH266070   0.912   5.920  13.543  0.1193 -0.0324 -0.0712
14860TIP3    H166071   0.913   5.825  13.533  2.0233 -0.0067 -0.5457
14860TIP3    H266072   0.898   5.953  13.455 -1.4479  0.1458  0.2262
14861TIP3   OH266073   6.136   4.705   0.542 -0.8891 -0.6265 -0.3549
14861TIP3    H166074   6.090   4.633   0.499 -1.0758 -0.9855  0.4129
14861TIP3    H266075   6.140   4.774   0.476 -2.0720 -0.7814 -0.6188
14862TIP3   OH266076   6.290   3.336   6.036  0.2550  0.2121  0.5594
14862TIP3    H166077   6.268   3.265   5.975 -2.0421  1.7651 -0.5581
14862TIP3    H266078   6.373   3.370   6.004  0.8095 -1.1975  0.4216
14863TIP3   OH266079   3.023   6.449   3.437 -0.2591  0.8236  0.2997
14863TIP3    H166080   3.018   6.536   3.478  1.5222  0.2357  1.8933
14863TIP3    H266081   3.068   6.395   3.502 -4.4168 -2.3041  0.9648
14864TIP3   OH266082   0.637   1.557   1.019 -0.0411  0.5893 -0.2696
14864TIP3    H166083   0.699   1.503   0.971 -0.6013 -1.2507  0.9815
14864TIP3    H266084   0.567   1.497   1.045 -1.4624  2.2306 -0.0867
14865TIP3   OH266085   6.228   1.337   5.547  0.4681  0.1494  0.7969
14865TIP3    H166086   6.253   1.328   5.639  0.8114  0.5337  0.7452
14865TIP3    H266087   6.237   1.249   5.511  1.5531  0.2286  0.8395
14866TIP3   OH266088   6.735   4.475  14.115 -0.0146  0.2981 -0.5154
14866TIP3    H166089   6.827   4.501  14.110 -0.2443  1.1655 -0.5483
14866TIP3    H266090   6.688   4.551  14.079 -0.6665 -0.6541 -1.7544
14867TIP3   OH266091   6.003   6.540   2.393  0.4897 -0.6554  0.4835
14867TIP3    H166092   5.979   6.524   2.484 -0.8903 -0.2934  0.2012
14867TIP3    H266093   6.046   6.626   2.395 -1.7846  0.5484  0.4796
14868TIP3   OH266094   3.073   6.484   5.326 -0.0842 -0.1742  0.2962
14868TIP3    H166095   2.997   6.480   5.384 -0.6111 -0.0380 -0.3800
14868TIP3    H266096   3.037   6.497   5.239  0.5065 -3.2274 -0.5184
14869TIP3   OH266097   4.687   4.672  10.340  0.1335 -0.5422  0.0475
14869TIP3    H166098   4.687   4.632  10.427  0.2861  1.7432  1.1463
14869TIP3    H266099   4.598   4.656  10.307 -0.5912  0.3214  1.4970
14870TIP3   OH266100   3.951   4.521   0.919  0.1080  0.3448  0.1245
14870TIP3    H166101   3.909   4.504   0.835  0.2262 -0.7794  0.2803
14870TIP3    H266102   3.900   4.593   0.957 -1.1663 -0.4263 -0.0657
14871TIP3   OH266103   0.268   2.837  17.147  0.7272 -0.2205 -0.8460
14871TIP3    H166104   0.260   2.906  17.213 -0.6227 -0.3571 -0.8376
14871TIP3    H266105   0.254   2.755  17.195 -0.4092 -0.3138 -1.2852
14872TIP3   OH266106   5.501   3.465  15.890  0.4265 -0.4159  0.1674
14872TIP3    H166107   5.409   3.448  15.910  0.8317 -2.5684  0.4327
14872TIP3    H266108   5.498   3.535  15.825 -1.3590 -0.0489  0.5751
14873TIP3   OH266109   5.944   0.313   1.507 -0.0661  0.5343  0.1619
14873TIP3    H166110   5.976   0.240   1.562 -0.7674  0.8946  1.0723
14873TIP3    H266111   5.858   0.284   1.477 -1.1779  1.6939  2.0324
14874TIP3   OH266112   4.482   0.346   4.604 -0.1260  0.3433  0.4216
14874TIP3    H166113   4.417   0.407   4.639  2.2168  2.2688  1.7164
14874TIP3    H266114   4.513   0.298   4.682  1.6068  1.1159  0.2467
14875TIP3   OH266115   2.510   5.711   4.499 -0.4475  0.6498 -0.0197
14875TIP3    H166116   2.594   5.683   4.534 -0.3129  2.0173  0.8236
14875TIP3    H266117   2.445   5.661   4.548 -0.1660  0.5386  0.2436
14876TIP3   OH266118   5.923   4.926  16.181  0.3444  0.2744  0.2920
14876TIP3    H166119   5.845   4.973  16.210  0.3134 -0.5792  1.7195
14876TIP3    H266120   5.993   4.991  16.183 -0.1499  0.8235 -0.0799
14877TIP3   OH266121   5.966   0.694  16.233  0.6489 -0.2306 -0.0764
14877TIP3    H166122   5.911   0.674  16.158  0.7090 -2.3802  0.3881
14877TIP3    H266123   5.906   0.733  16.297  0.2355 -0.0437 -0.5756
14878TIP3   OH266124   5.650   1.680  12.826 -0.1124  0.3386  0.8488
14878TIP3    H166125   5.554   1.678  12.824 -0.0975 -0.3956 -0.0617
14878TIP3    H266126   5.672   1.766  12.790 -0.4314  0.0126 -0.1753
14879TIP3   OH266127   2.288   5.243   3.169  0.1636 -0.4616  0.1919
14879TIP3    H166128   2.203   5.205   3.190  0.0275  0.5418  1.5867
14879TIP3    H266129   2.276   5.337   3.181  0.7529 -0.0117 -2.2591
14880TIP3   OH266130   6.676   3.156   4.575 -0.2098 -0.1819 -0.0124
14880TIP3    H166131   6.691   3.184   4.485 -2.9572  1.1235 -0.1815
14880TIP3    H266132   6.582   3.168   4.588 -0.2745 -2.4279  2.3688
14881TIP3   OH266133   6.068   0.712  14.224 -0.0590  0.1777  0.1337
14881TIP3    H166134   6.083   0.693  14.316  0.8967 -1.4547 -0.3036
14881TIP3    H266135   6.019   0.636  14.192  0.7221  0.1155 -0.9596
14882TIP3   OH266136   2.301   6.679   1.943  0.3150 -0.2887 -0.2154
14882TIP3    H166137   2.267   6.716   1.861 -1.4156 -1.2501  0.0187
14882TIP3    H266138   2.276   6.587   1.940  1.7837 -0.7472  0.6258
14883TIP3   OH266139   3.995   5.892   0.406 -0.1136  0.7496  0.0407
14883TIP3    H166140   4.039   5.926   0.328  0.2494 -0.9175 -0.5301
14883TIP3    H266141   3.987   5.798   0.389 -2.1266  0.7039  1.0043
14884TIP3   OH266142   1.728   6.528  14.101 -0.0357  0.4636 -0.1045
14884TIP3    H166143   1.710   6.578  14.021 -0.1496  1.8461  0.7577
14884TIP3    H266144   1.666   6.562  14.165 -1.5724 -2.2543 -0.0014
14885TIP3   OH266145   0.546   5.024   0.278 -0.2157  0.9742  0.0411
14885TIP3    H166146   0.622   4.977   0.312 -0.2068  0.0123 -1.2051
14885TIP3    H266147   0.503   4.961   0.220 -1.5226  1.7667  0.0987
14886TIP3   OH266148   4.095   5.007   1.643 -0.5271 -0.3318 -0.6906
14886TIP3    H166149   4.039   5.004   1.720 -0.8265 -3.2275 -0.8990
14886TIP3    H266150   4.181   5.032   1.676 -0.8074 -0.8580  0.4579
14887TIP3   OH266151   2.630   0.697  12.577  0.3121 -0.5304  0.1662
14887TIP3    H166152   2.709   0.750  12.587 -0.1424  0.4388 -1.1575
14887TIP3    H266153   2.568   0.734  12.640  0.0862  0.3434 -0.5632
14888TIP3   OH266154   5.859   1.900  16.371  0.0015  0.4692  0.3876
14888TIP3    H166155   5.902   1.983  16.349 -0.9253  0.9903  0.5249
14888TIP3    H266156   5.766   1.916  16.358 -0.2161 -0.4751  0.6708
14889TIP3   OH266157   0.872   4.986  12.853  0.1999  0.6566 -0.3913
14889TIP3    H166158   0.872   5.081  12.854 -0.8074  0.6730 -0.4958
14889TIP3    H266159   0.843   4.960  12.940 -2.0395  0.5187 -1.1135
14890TIP3   OH266160   5.529   3.290  15.626 -0.4415  0.0816 -0.4372
14890TIP3    H166161   5.611   3.312  15.669 -0.5724 -0.7788  0.2800
14890TIP3    H266162   5.535   3.196  15.609 -2.2506 -0.5387  1.8430
14891TIP3   OH266163   6.660   2.959  16.006  0.1749  0.1148 -0.0434
14891TIP3    H166164   6.645   3.033  15.946  0.8222 -0.6914 -1.2489
14891TIP3    H266165   6.755   2.957  16.016  0.0683  0.3094  1.1461
14892TIP3   OH266166   3.844   0.215  14.272 -0.2073 -0.4543 -0.0131
14892TIP3    H166167   3.887   0.291  14.310 -0.6994 -0.3044  0.2434
14892TIP3    H266168   3.756   0.245  14.250 -0.4581 -0.9897  0.2338
14893TIP3   OH266169   0.377   6.234   1.848 -0.8085 -0.1589 -0.6108
14893TIP3    H166170   0.310   6.293   1.815  0.1376  0.0340 -2.2812
14893TIP3    H266171   0.387   6.258   1.940 -2.6328  0.1518 -0.4564
14894TIP3   OH266172   0.447   4.854   0.904  0.0763  0.3784 -0.2760
14894TIP3    H166173   0.398   4.855   0.822 -0.0269  0.4571 -0.2131
14894TIP3    H266174   0.528   4.808   0.882 -0.8056 -1.4636  0.0648
14895TIP3   OH266175   3.361   6.744   3.731 -0.6307 -0.1404 -0.2283
14895TIP3    H166176   3.403   6.794   3.661  1.8559 -1.6498  0.0682
14895TIP3    H266177   3.368   6.802   3.808  2.1580 -0.7338  0.0973
14896TIP3   OH266178   2.744   6.069  15.659  0.2295 -0.5550  0.5393
14896TIP3    H166179   2.753   5.987  15.610  0.1682 -0.5032  0.4403
14896TIP3    H266180   2.699   6.044  15.740 -2.1095 -0.2293 -0.5874
14897TIP3   OH266181   1.782   4.853  13.717 -0.3438 -0.2495 -0.6248
14897TIP3    H166182   1.802   4.896  13.634  0.4774  2.0381  0.6811
14897TIP3    H266183   1.688   4.865  13.728 -0.3349  0.0785 -0.8801
14898TIP3   OH266184   0.382   0.810   2.945 -0.3745  0.1203 -0.2205
14898TIP3    H166185   0.475   0.787   2.950 -0.2973  0.6711  1.3891
14898TIP3    H266186   0.374   0.859   2.863  1.4781  2.9873  1.1534
14899TIP3   OH266187   1.443   1.000  11.980  0.5561 -0.6573 -0.1249
14899TIP3    H166188   1.449   0.923  11.923  0.3456 -0.1148 -0.8890
14899TIP3    H266189   1.532   1.036  11.981  0.4960 -0.5005 -0.3491
14900TIP3   OH266190   3.758   3.451  11.969  0.1890  0.1208  0.0585
14900TIP3    H166191   3.726   3.489  12.051  0.9234  0.9798 -0.0364
14900TIP3    H266192   3.839   3.407  11.993 -0.5012 -1.1718  0.1086
14901TIP3   OH266193   3.978   5.156  16.619 -0.1776  0.0903  0.8445
14901TIP3    H166194   4.066   5.157  16.655 -0.5536 -1.7064  1.9174
14901TIP3    H266195   3.990   5.137  16.526  0.6808  2.7662  0.3351
14902TIP3   OH266196   4.693   3.065   5.125  0.0640  0.1611 -0.4165
14902TIP3    H166197   4.630   3.078   5.053  0.2455 -1.2327 -0.8534
14902TIP3    H266198   4.683   3.143   5.179 -0.5338  0.9575 -1.6152
14903TIP3   OH266199   2.656   0.294  17.216  0.1354  0.6858  0.7150
14903TIP3    H166200   2.586   0.359  17.215  0.9963  1.6228 -0.0433
14903TIP3    H266201   2.721   0.326  17.153  1.3195 -0.0912  1.4925
14904TIP3   OH266202   3.732   0.532  15.976 -0.1869 -0.3469  0.4940
14904TIP3    H166203   3.797   0.599  15.998 -0.3752  0.1854 -0.5029
14904TIP3    H266204   3.657   0.552  16.033 -0.8132  1.2400 -0.8137
14905TIP3   OH266205   0.670   3.614  11.327  0.3359  0.2277 -0.6089
14905TIP3    H166206   0.588   3.663  11.337  1.0841  1.4871 -0.4184
14905TIP3    H266207   0.664   3.574  11.240 -0.2835  0.6898 -0.7867
14906TIP3   OH266208   1.509   3.363  12.844  0.1362 -0.0754 -0.1574
14906TIP3    H166209   1.431   3.359  12.900 -0.8913 -1.2982 -1.5970
14906TIP3    H266210   1.579   3.389  12.903 -0.9683 -0.8890  1.6041
14907TIP3   OH266211   1.217   5.843   1.535 -0.2400  0.1016  0.3845
14907TIP3    H166212   1.277   5.768   1.530 -1.1580 -0.5752 -1.3658
14907TIP3    H266213   1.134   5.805   1.563 -0.7600  0.4087 -0.6938
14908TIP3   OH266214   6.456   0.932  11.936 -0.3368  0.3493 -0.3037
14908TIP3    H166215   6.376   0.961  11.891 -2.2925 -1.2986  1.8453
14908TIP3    H266216   6.444   0.837  11.945  0.8905  0.3477  1.8531
14909TIP3   OH266217   4.842   4.716  15.802  0.9656 -0.3211  0.5955
14909TIP3    H166218   4.904   4.782  15.833  2.3757 -0.9564 -0.6936
14909TIP3    H266219   4.834   4.654  15.875  0.9655  0.3560  1.1805
14910TIP3   OH266220   5.263   1.286   3.610  0.2635  0.7914 -0.1978
14910TIP3    H166221   5.284   1.378   3.591  1.1807  0.4026 -1.1927
14910TIP3    H266222   5.343   1.250   3.647 -0.4263  0.6396  1.1777
14911TIP3   OH266223   1.515   2.924  10.951  0.2408 -0.0571  0.1441
14911TIP3    H166224   1.515   2.992  11.018 -0.1487  0.8273 -0.7147
14911TIP3    H266225   1.423   2.901  10.939  0.4990 -2.6761  2.2491
14912TIP3   OH266226   1.751   4.775   3.423  0.1508  0.8367 -0.1706
14912TIP3    H166227   1.842   4.795   3.444 -0.0329  1.8131 -0.2441
14912TIP3    H266228   1.701   4.842   3.470 -0.5353  0.2742 -0.0820
14913TIP3   OH266229   3.230   3.373   0.586 -0.5280 -0.2578 -0.0199
14913TIP3    H166230   3.140   3.374   0.618  0.4925  1.1531  3.2791
14913TIP3    H266231   3.279   3.329   0.655  1.4764  0.0063 -1.2009
14914TIP3   OH266232   0.820   5.117   0.458 -0.0077  0.8325  0.4220
14914TIP3    H166233   0.890   5.133   0.522  1.9358  1.0713 -1.6387
14914TIP3    H266234   0.846   5.037   0.413 -0.6220  1.3639 -0.9345
14915TIP3   OH266235   3.329   6.152  12.200 -1.0353  0.8362 -0.3005
14915TIP3    H166236   3.245   6.198  12.210 -1.4775 -0.2105  1.0589
14915TIP3    H266237   3.306   6.064  12.172 -0.1114  1.7301 -4.5553
14916TIP3   OH266238   2.287   1.397   0.046 -0.2668 -0.1023  0.3030
14916TIP3    H166239   2.329   1.326  -0.001  1.7818  2.1151 -1.4773
14916TIP3    H266240   2.341   1.409   0.124 -0.6374 -0.4890  0.6254
14917TIP3   OH266241   4.502   0.633  15.013 -0.0997  0.2995  0.0169
14917TIP3    H166242   4.512   0.551  15.061  3.4583  1.4035  1.4764
14917TIP3    H266243   4.525   0.611  14.923 -1.1250 -0.6261 -0.0452
14918TIP3   OH266244   0.124   6.727  11.399  0.3006 -0.0409  0.4904
14918TIP3    H166245   0.094   6.815  11.420 -3.0194 -1.1393  1.0134
14918TIP3    H266246   0.170   6.698  11.478 -1.8746 -0.0135  1.8576
14919TIP3   OH266247   4.792   5.022  16.058 -0.3840  0.1916 -0.6126
14919TIP3    H166248   4.739   5.047  15.981 -0.4929 -0.3664 -0.7242
14919TIP3    H266249   4.876   4.995  16.021 -0.6026 -0.5451 -0.5793
14920TIP3   OH266250   0.290   0.128  15.149 -0.3375 -0.0292 -0.1353
14920TIP3    H166251   0.245   0.210  15.127  1.1952  1.0354  0.5421
14920TIP3    H266252   0.226   0.079  15.200 -0.8343  1.3583  0.6336
14921TIP3   OH266253   4.558   6.082   0.227  0.2511 -0.4259  0.1619
14921TIP3    H166254   4.565   6.173   0.257 -1.5536  0.2076 -1.1739
14921TIP3    H266255   4.506   6.039   0.295 -0.0317 -0.1135  0.1475
14922TIP3   OH266256   3.045   0.167  13.666 -0.1203 -0.8120 -0.3523
14922TIP3    H166257   2.981   0.197  13.730 -1.4929 -0.1529 -1.9543
14922TIP3    H266258   3.012   0.199  13.582  2.2148 -0.6207 -1.2795
14923TIP3   OH266259   4.717   4.930  11.890 -0.2481  0.0618 -0.1736
14923TIP3    H166260   4.733   5.002  11.951 -0.2656  0.1161 -0.2335
14923TIP3    H266261   4.749   4.853  11.936  0.0057  0.1431 -0.2135
14924TIP3   OH266262   6.425   5.867  14.655  0.1430 -0.3550 -0.5511
14924TIP3    H166263   6.463   5.952  14.632 -1.0923  0.0189 -1.3205
14924TIP3    H266264   6.494   5.804  14.636  0.4795  0.3200 -1.6342
14925TIP3   OH266265   3.158   6.558   5.773 -0.0906  0.1947 -0.1610
14925TIP3    H166266   3.243   6.577   5.734 -0.2792  0.1779 -0.5836
14925TIP3    H266267   3.133   6.640   5.815  0.0674  0.2447 -0.1616
14926TIP3   OH266268   1.327   5.116  12.535 -0.2322  0.3630 -0.2451
14926TIP3    H166269   1.243   5.089  12.572 -1.1697  1.4510 -1.4865
14926TIP3    H266270   1.342   5.055  12.463 -0.2076  0.4816 -0.3403
14927TIP3   OH266271   3.157   5.997   4.986 -0.2651 -0.7747 -0.0163
14927TIP3    H166272   3.150   6.049   4.906  0.9100 -2.4053 -1.2569
14927TIP3    H266273   3.250   5.973   4.990 -0.5240 -1.6105  1.2572
14928TIP3   OH266274   0.813   4.315   2.989  0.6160  0.2802  0.5168
14928TIP3    H166275   0.846   4.277   3.070 -0.1763 -0.0849  0.6729
14928TIP3    H266276   0.813   4.242   2.927 -1.1797 -0.0800  0.8950
14929TIP3   OH266277   5.527   0.237  14.469 -0.0703  0.1171 -0.2179
14929TIP3    H166278   5.502   0.160  14.418 -0.2059  0.0667 -0.0739
14929TIP3    H266279   5.548   0.303  14.403 -0.2043  0.0388 -0.3392
14930TIP3   OH266280   4.022   5.803   1.184 -0.2213  0.3628  0.1659
14930TIP3    H166281   4.110   5.806   1.146 -0.9116  0.3903 -1.5003
14930TIP3    H266282   4.007   5.711   1.203 -1.1395 -0.2391 -2.9121
14931TIP3   OH266283   0.510   2.170  13.347 -0.2014 -0.3114  0.2555
14931TIP3    H166284   0.517   2.264  13.361 -0.6457 -0.2275 -0.0726
14931TIP3    H266285   0.499   2.134  13.435  2.0636 -0.2747  0.6164
14932TIP3   OH266286   3.567   4.781  13.353 -0.1674  0.8184  0.0643
14932TIP3    H166287   3.641   4.821  13.308  0.1950  3.3476  2.6696
14932TIP3    H266288   3.492   4.837  13.330 -0.5402  0.4557  0.3799
14933TIP3   OH266289   4.546   6.441   5.950 -0.5276 -0.9207 -0.2277
14933TIP3    H166290   4.586   6.434   6.037 -1.8987  1.0997  0.6445
14933TIP3    H266291   4.616   6.478   5.895 -0.6708  1.2529  0.9365
14934TIP3   OH266292   3.023   1.316   4.981 -0.0458  0.4958 -0.4055
14934TIP3    H166293   3.098   1.258   4.970  0.3328  1.1840 -1.6241
14934TIP3    H266294   2.947   1.259   4.964  0.1649 -0.2150  0.8991
14935TIP3   OH266295   3.482   2.218   3.432 -0.1360  0.3410 -0.0958
14935TIP3    H166296   3.404   2.197   3.483 -0.5062  1.1833 -0.3042
14935TIP3    H266297   3.536   2.271   3.490 -0.2639  0.7583 -0.3564
14936TIP3   OH266298   3.047   5.221  13.487 -0.1361  0.9430 -0.0456
14936TIP3    H166299   3.052   5.132  13.453 -2.1521 -0.2377  2.3779
14936TIP3    H266300   2.961   5.252  13.458  0.9279  2.5788 -1.6981
14937TIP3   OH266301   4.206   6.211   3.586  0.5786  0.1516 -0.4009
14937TIP3    H166302   4.300   6.222   3.581  1.0580 -2.1062  1.5646
14937TIP3    H266303   4.191   6.118   3.570 -0.7598 -0.4598  3.2779
14938TIP3   OH266304   3.569   4.020  13.887  0.0538 -0.5130  0.1976
14938TIP3    H166305   3.512   4.007  13.963  0.6733  1.2873  1.0029
14938TIP3    H266306   3.549   3.945  13.830 -0.5971 -1.7808  2.0002
14939TIP3   OH266307   4.880   2.555  14.480 -0.0237  0.1802  0.3589
14939TIP3    H166308   4.925   2.504  14.547  0.6690  0.5177  0.1601
14939TIP3    H266309   4.796   2.511  14.468  1.0489 -1.6806 -0.7222
14940TIP3   OH266310   6.698   5.223   6.628 -0.1385 -0.1378 -0.3989
14940TIP3    H166311   6.777   5.250   6.581 -0.1461 -0.6822 -0.7355
14940TIP3    H266312   6.648   5.304   6.639  0.3526  0.1713 -0.3989
14941TIP3   OH266313   5.412   4.909  15.091 -0.6135  0.3411  0.4542
14941TIP3    H166314   5.478   4.977  15.103 -1.4006  1.2523 -0.2243
14941TIP3    H266315   5.384   4.918  15.000 -0.5661 -1.0529  0.2808
14942TIP3   OH266316   4.844   0.502  12.861 -0.1445 -0.3067  0.3593
14942TIP3    H166317   4.789   0.437  12.906 -0.1857 -0.5043  0.0286
14942TIP3    H266318   4.784   0.575  12.844 -1.5249 -2.0710 -3.6282
14943TIP3   OH266319   5.502   0.867  14.413 -0.2824  0.0225  0.1096
14943TIP3    H166320   5.530   0.887  14.324  1.6051  0.5226  0.7647
14943TIP3    H266321   5.476   0.775  14.411  1.2135 -0.4142 -0.6503
14944TIP3   OH266322   6.604   4.924   2.587 -0.1388 -0.0312  0.6187
14944TIP3    H166323   6.556   5.006   2.575  1.0419  0.5565 -0.2625
14944TIP3    H266324   6.651   4.935   2.670  0.9197  0.6771 -0.0495
14945TIP3   OH266325   1.237   1.298  10.938 -0.2903  0.0888  0.1733
14945TIP3    H166326   1.178   1.277  10.865  0.7366 -0.8235 -0.4377
14945TIP3    H266327   1.179   1.320  11.010 -1.3775 -0.5447 -0.4722
14946TIP3   OH266328   1.238   2.465  16.153 -0.2115  0.3619  0.5956
14946TIP3    H166329   1.192   2.485  16.235 -2.5587  0.1341 -0.5794
14946TIP3    H266330   1.175   2.414  16.102  1.1069  0.6601 -1.4425
14947TIP3   OH266331   3.773   4.560   0.658 -0.3228 -0.4762  0.0541
14947TIP3    H166332   3.785   4.646   0.618  0.0402 -0.3199  0.4832
14947TIP3    H266333   3.791   4.498   0.588 -0.5176 -0.2020 -0.2388
14948TIP3   OH266334   3.176   6.055  17.173  0.0151 -0.2319 -0.0684
14948TIP3    H166335   3.228   6.134  17.158  1.1697 -0.8487  0.5023
14948TIP3    H266336   3.162   6.019  17.086  0.6269 -0.0846 -0.2376
14949TIP3   OH266337   0.890   1.164   3.290  0.0316  0.1944 -0.1419
14949TIP3    H166338   0.940   1.232   3.244  1.3079 -0.5223  0.1336
14949TIP3    H266339   0.838   1.212   3.355 -0.0395  1.0061 -0.7756
14950TIP3   OH266340   4.808   0.263  15.339  0.1180  0.2145  0.1744
14950TIP3    H166341   4.719   0.280  15.370  0.1223 -0.4166  0.5682
14950TIP3    H266342   4.798   0.247  15.245 -0.1879  0.1401  0.2181
14951TIP3   OH266343   2.700   5.710  11.718 -0.2732  0.1746 -0.2885
14951TIP3    H166344   2.753   5.631  11.706  0.4435  0.5857  0.0980
14951TIP3    H266345   2.684   5.741  11.629  0.1921  0.0741 -0.4135
14952TIP3   OH266346   5.772   1.402   1.966 -0.5079  0.0691 -0.2152
14952TIP3    H166347   5.797   1.494   1.959 -1.0368  0.1989 -0.4703
14952TIP3    H266348   5.694   1.403   2.023 -1.3273 -0.0658 -1.3115
14953TIP3   OH266349   6.797   6.374   4.418  0.3822  0.3318 -0.3292
14953TIP3    H166350   6.752   6.433   4.479 -0.1667 -0.5076  0.0940
14953TIP3    H266351   6.815   6.296   4.470 -2.0063 -1.2915 -1.7491
14954TIP3   OH266352   5.857   1.765   2.815 -0.1684  0.2046  0.1149
14954TIP3    H166353   5.783   1.775   2.755  1.5800  0.4434 -2.1372
14954TIP3    H266354   5.907   1.691   2.779  0.5500 -0.1361  1.7409
14955TIP3   OH266355   2.877   4.384  13.848  0.3990 -0.1478  0.1189
14955TIP3    H166356   2.795   4.431  13.862  0.8443  0.5996  0.2553
14955TIP3    H266357   2.895   4.393  13.755  1.3663  1.4627  0.4256
14956TIP3   OH266358   0.688   2.647   3.689 -0.0107  0.1155  0.1905
14956TIP3    H166359   0.782   2.649   3.707  0.3188 -0.8467 -1.1864
14956TIP3    H266360   0.672   2.721   3.631  0.2040 -0.5300 -0.7259
14957TIP3   OH266361   3.508   3.658  15.035 -0.6055  0.4902  0.0964
14957TIP3    H166362   3.478   3.644  15.125 -0.5079 -2.0985 -0.1964
14957TIP3    H266363   3.579   3.721  15.042  0.6648 -1.0510  2.1270
14958TIP3   OH266364   6.392   4.115  11.543  0.5298  0.2191 -0.8502
14958TIP3    H166365   6.332   4.178  11.583  0.8993  0.7487 -1.1182
14958TIP3    H266366   6.374   4.033  11.588 -3.2090 -0.6815 -3.5415
14959TIP3   OH266367   3.713   0.787   3.277  0.4616  0.3004  0.3116
14959TIP3    H166368   3.697   0.882   3.271  0.6392  0.4810  2.2671
14959TIP3    H266369   3.633   0.747   3.242  0.7434  1.1250 -1.4298
14960TIP3   OH266370   3.563   3.530   2.982  0.0908  0.0275  0.1410
14960TIP3    H166371   3.533   3.579   3.059  0.3964 -0.1961  0.4085
14960TIP3    H266372   3.489   3.533   2.921  0.4170  1.5639 -0.2114
14961TIP3   OH266373   3.211   3.564   5.292 -0.2116  0.4784 -0.1535
14961TIP3    H166374   3.203   3.512   5.212 -0.2614  1.0788 -0.5421
14961TIP3    H266375   3.279   3.519   5.342 -3.2990 -2.6677  1.6603
14962TIP3   OH266376   3.878   1.191   5.758 -0.6295  0.0116  0.0519
14962TIP3    H166377   3.813   1.192   5.828 -1.5488  0.9123 -0.7943
14962TIP3    H266378   3.828   1.180   5.678  0.4082 -0.9548 -0.4931
14963TIP3   OH266379   1.405   3.391   3.529  0.7890  0.6796 -0.7159
14963TIP3    H166380   1.436   3.300   3.520 -0.8721  0.0666 -0.5374
14963TIP3    H266381   1.362   3.393   3.614  1.3219  1.8085 -0.4627
14964TIP3   OH266382   3.236   2.700   0.601  0.4125 -0.5018  0.0819
14964TIP3    H166383   3.180   2.627   0.629 -0.5365 -0.7171 -2.1623
14964TIP3    H266384   3.322   2.679   0.638 -0.0437 -2.3133  0.2393
14965TIP3   OH266385   1.088   5.318   1.096  0.1747 -0.0998 -0.7548
14965TIP3    H166386   1.025   5.377   1.055 -0.8104  0.3159  1.2391
14965TIP3    H266387   1.173   5.352   1.070 -0.3439  2.4252  0.5220
14966TIP3   OH266388   3.629   5.721   4.873 -0.0606  0.0898  0.0258
14966TIP3    H166389   3.603   5.629   4.866 -1.2265  0.3992  0.0924
14966TIP3    H266390   3.608   5.746   4.963  0.8782  0.2510  0.2138
14967TIP3   OH266391   5.584   1.730  16.221  0.4535 -0.2217 -0.2084
14967TIP3    H166392   5.676   1.713  16.201  0.4711 -0.6362  0.2091
14967TIP3    H266393   5.534   1.686  16.152  0.5949  1.4156 -1.4213
14968TIP3   OH266394   5.875   6.012   2.088  0.4892 -0.6067  0.2374
14968TIP3    H166395   5.926   5.993   2.010 -0.0684  0.3663 -0.3793
14968TIP3    H266396   5.838   6.099   2.072 -2.0450 -1.6093  0.2920
14969TIP3   OH266397   4.739   6.238  15.535 -0.2798  0.0010  0.3635
14969TIP3    H166398   4.705   6.262  15.621 -0.4474  1.3193 -0.0523
14969TIP3    H266399   4.816   6.293  15.523 -0.4536  0.0693 -0.4753
14970TIP3   OH266400   6.231   0.549  12.984 -0.1552 -0.0360 -0.3422
14970TIP3    H166401   6.164   0.542  12.916 -2.0661 -0.8791  1.5112
14970TIP3    H266402   6.238   0.643  13.002 -2.5153 -0.0268  0.9175
14971TIP3   OH266403   3.263   4.506   1.851  0.1238  0.1245  0.0159
14971TIP3    H166404   3.306   4.446   1.911  1.9398  1.3669  0.0242
14971TIP3    H266405   3.285   4.473   1.764  1.0837  0.7273  0.0206
14972TIP3   OH266406   5.304   0.027  11.324 -0.1892  0.0516  0.3741
14972TIP3    H166407   5.390  -0.010  11.305 -1.1944 -2.6378  0.6630
14972TIP3    H266408   5.318   0.083  11.400  1.4077  0.1793  0.0286
14973TIP3   OH266409   2.181   2.228   2.618  0.0969 -0.1619 -0.4532
14973TIP3    H166410   2.174   2.189   2.705  1.1000  1.0256  0.1854
14973TIP3    H266411   2.245   2.173   2.573 -0.1890 -0.5946 -0.3378
14974TIP3   OH266412   0.277   0.595  10.792  0.6927 -0.2572 -0.1334
14974TIP3    H166413   0.293   0.565  10.702  3.0689 -0.0009  0.1262
14974TIP3    H266414   0.230   0.678  10.781  0.6844 -0.3719 -1.1299
14975TIP3   OH266415   0.336   3.819  15.491  0.5129  0.2766  0.4995
14975TIP3    H166416   0.248   3.800  15.524  0.3215 -0.8533 -0.6165
14975TIP3    H266417   0.346   3.913  15.506 -0.6835  0.3353  1.0990
14976TIP3   OH266418   1.190   2.438   1.811  0.1584 -0.6112 -0.0176
14976TIP3    H166419   1.107   2.419   1.767 -0.2750  0.8680  0.0816
14976TIP3    H266420   1.164   2.487   1.889  1.1651  0.7013 -0.4746
14977TIP3   OH266421   6.229   2.011  14.965 -0.3838 -0.4285 -0.0763
14977TIP3    H166422   6.175   2.031  15.041 -0.9334 -0.9236 -0.3322
14977TIP3    H266423   6.177   2.038  14.890  0.3339  0.4659 -0.2752
14978TIP3   OH266424   4.321   1.213   1.068  0.3621 -0.3354 -0.3046
14978TIP3    H166425   4.335   1.227   0.974  1.6106 -0.8336 -0.2125
14978TIP3    H266426   4.260   1.139   1.072 -0.2254  0.1197 -0.7200
14979TIP3   OH266427   1.741   0.463  14.552 -0.7364 -0.1470 -0.0657
14979TIP3    H166428   1.747   0.372  14.521 -2.4378 -0.4244  0.3234
14979TIP3    H266429   1.771   0.459  14.643  0.5145 -0.0468 -0.4580
14980TIP3   OH266430   5.780   1.432  16.642 -0.8337  0.5247  0.7257
14980TIP3    H166431   5.858   1.378  16.642 -1.2035 -0.0143  0.7396
14980TIP3    H266432   5.751   1.434  16.733 -1.0625  0.3978  0.6553
14981TIP3   OH266433   1.874   1.558   1.329  0.0838 -0.0977 -0.4209
14981TIP3    H166434   1.921   1.504   1.392  0.8873  1.1435  0.0941
14981TIP3    H266435   1.899   1.522   1.244 -0.2845 -1.2149 -0.0708
14982TIP3   OH266436   3.594   0.104  14.589 -0.0299 -0.2645  0.2283
14982TIP3    H166437   3.526   0.051  14.547 -0.2590 -0.0958  0.3800
14982TIP3    H266438   3.675   0.080  14.544 -0.1827 -0.5064  0.0810
14983TIP3   OH266439   6.215   1.545   3.288  0.6288  0.0686 -0.4543
14983TIP3    H166440   6.299   1.583   3.263  0.6074 -0.4099 -1.3090
14983TIP3    H266441   6.176   1.518   3.205 -0.6723  0.8941 -0.1335
14984TIP3   OH266442   4.669   0.453   5.058 -0.5218 -0.1985 -0.1302
14984TIP3    H166443   4.747   0.497   5.024 -0.8539  0.7159  0.2637
14984TIP3    H266444   4.702   0.380   5.109  0.1650  0.9888  1.2007
14985TIP3   OH266445   5.338   2.016   2.348 -0.3334 -0.5951  0.3825
14985TIP3    H166446   5.357   1.943   2.290 -0.9637  0.4504 -1.2191
14985TIP3    H266447   5.422   2.038   2.389  0.2722 -0.9393 -0.6529
14986TIP3   OH266448   3.060   3.960  10.824  0.3394 -0.6106  0.2489
14986TIP3    H166449   3.056   3.886  10.763  2.1073 -0.4023 -0.1637
14986TIP3    H266450   2.972   3.964  10.862 -0.6756 -1.0328 -1.9225
14987TIP3   OH266451   3.278   1.012   6.160 -1.0973 -0.1360 -0.1634
14987TIP3    H166452   3.230   1.051   6.233 -1.3931 -0.7144 -0.0366
14987TIP3    H266453   3.361   0.984   6.199 -0.7666  0.6210 -0.3207
14988TIP3   OH266454   1.093   3.053   5.809 -0.0943 -0.1021 -0.2858
14988TIP3    H166455   1.034   2.978   5.801 -2.0753  1.4018 -0.4226
14988TIP3    H266456   1.181   3.015   5.805 -1.0235 -2.3013 -1.2627
14989TIP3   OH266457   5.507   6.823   6.060  0.1459 -0.9353 -0.2271
14989TIP3    H166458   5.594   6.862   6.065 -0.6997  0.9407  2.8118
14989TIP3    H266459   5.457   6.883   6.006  0.3972 -1.3458 -0.9317
14990TIP3   OH266460   2.245   4.703   1.934  0.0977 -0.4166 -0.4896
14990TIP3    H166461   2.246   4.797   1.952  2.7423 -0.3435 -0.5403
14990TIP3    H266462   2.166   4.689   1.882 -0.2743  1.7979 -0.6265
14991TIP3   OH266463   2.129   0.933   4.872  0.0624  0.1685 -1.2837
14991TIP3    H166464   2.071   1.000   4.908  1.3497  1.9453 -2.3447
14991TIP3    H266465   2.079   0.852   4.880 -2.8064  1.6325 -2.5293
14992TIP3   OH266466   3.020   5.360  12.293 -0.0800 -0.1701  0.0698
14992TIP3    H166467   3.077   5.360  12.370  0.8296 -1.1322 -0.5779
14992TIP3    H266468   2.957   5.429  12.311  2.6123  2.5548 -0.1813
14993TIP3   OH266469   5.346   0.439  16.026 -0.4246 -0.1651 -0.2026
14993TIP3    H166470   5.349   0.424  16.120 -0.2564  0.3099 -0.1289
14993TIP3    H266471   5.437   0.430  15.997 -0.3476  0.4808 -0.1864
14994TIP3   OH266472   1.630   5.672  16.142 -0.2868 -0.0832  0.9322
14994TIP3    H166473   1.677   5.740  16.191  1.6026 -0.6537 -0.0090
14994TIP3    H266474   1.601   5.716  16.062 -0.0546 -0.1013  0.8379
14995TIP3   OH266475   5.552   4.909   4.262  0.9830  0.5529 -0.7456
14995TIP3    H166476   5.645   4.927   4.251  1.3767 -0.2838  0.9792
14995TIP3    H266477   5.535   4.836   4.202  2.0950 -1.0795  0.8213
14996TIP3   OH266478   3.110   5.388  11.660 -0.4984  0.1741 -0.1428
14996TIP3    H166479   3.152   5.306  11.685 -1.6556 -0.3540  0.1046
14996TIP3    H266480   3.181   5.453  11.662  0.0973 -0.4833  1.3007
14997TIP3   OH266481   3.964   4.248   3.409  0.0658 -0.1576 -0.0014
14997TIP3    H166482   4.057   4.270   3.400 -0.0122 -0.0585 -0.5898
14997TIP3    H266483   3.960   4.189   3.484  0.3215  1.6120  1.4685
14998TIP3   OH266484   2.077   1.361   2.264 -0.3539  0.1988 -0.2407
14998TIP3    H166485   2.023   1.412   2.203  0.7686  0.5482 -0.9845
14998TIP3    H266486   2.131   1.426   2.308 -0.7865 -0.1121  0.7586
14999TIP3   OH266487   0.184   0.631   1.839 -1.1588  0.0376  0.1413
14999TIP3    H166488   0.131   0.708   1.859  0.8152  1.3004  0.7059
14999TIP3    H266489   0.268   0.666   1.810 -0.3864 -1.9079 -0.1023
15000TIP3   OH266490   6.810   6.572  17.176 -0.2120 -0.4884  0.4023
15000TIP3    H166491   6.765   6.629  17.240 -1.9413 -2.1125  0.7288
15000TIP3    H266492   6.890   6.545  17.220 -0.3374  0.1202  1.0272
15001TIP3   OH266493   6.410   6.795  15.892  0.4063 -0.3319 -0.4048
15001TIP3    H166494   6.330   6.759  15.928  1.2915  0.4636  2.6116
15001TIP3    H266495   6.396   6.890  15.890  0.8325 -0.2712 -1.0667
15002TIP3   OH266496   5.362   2.109  13.007  0.4199  0.2516  0.0068
15002TIP3    H166497   5.457   2.109  13.018  0.4337 -1.0872  0.0252
15002TIP3    H266498   5.339   2.016  13.002 -0.9525  0.5542  0.5354
15003TIP3   OH266499   5.564   3.370   0.357  0.0134 -0.1542 -0.5522
15003TIP3    H166500   5.543   3.325   0.276  3.2858 -0.6076 -1.2985
15003TIP3    H266501   5.659   3.385   0.352  0.2456  0.3366  2.9252
15004TIP3   OH266502   2.135   0.944  12.026  0.6608  0.1168 -0.2195
15004TIP3    H166503   2.209   0.999  12.001  1.1868 -0.5210 -0.1151
15004TIP3    H266504   2.176   0.867  12.066 -0.1085  0.4346  1.2157
15005TIP3   OH266505   6.804   4.383  15.929  0.1590 -0.1414  0.5330
15005TIP3    H166506   6.878   4.383  15.990  0.2235  0.6420  0.4680
15005TIP3    H266507   6.844   4.383  15.842  0.0828 -0.0177  0.4974
15006TIP3   OH266508   5.803   4.481   0.606  0.1395 -0.3584  0.1144
15006TIP3    H166509   5.792   4.437   0.522 -0.0041  0.4835 -0.3155
15006TIP3    H266510   5.898   4.494   0.615  0.0490  1.2272 -0.8181
15007TIP3   OH266511   3.227   5.284  16.140  0.1640  0.1653 -0.1461
15007TIP3    H166512   3.190   5.206  16.180 -0.1267  0.4778  0.2024
15007TIP3    H266513   3.301   5.252  16.088 -1.4064 -0.6514 -2.0122
15008TIP3   OH266514   3.569   5.312  17.189 -0.7749  0.0540  0.4064
15008TIP3    H166515   3.595   5.249  17.256 -0.6807  0.0866  0.4018
15008TIP3    H266516   3.569   5.396  17.234 -2.2210 -0.1193  0.7528
15009TIP3   OH266517   2.522   1.614   3.077 -0.0048  0.2991  0.0904
15009TIP3    H166518   2.611   1.586   3.098 -0.1493 -0.1804  0.0802
15009TIP3    H266519   2.528   1.709   3.065  0.4949  0.2724  0.1317
15010TIP3   OH266520   5.069   3.120  11.052  0.1822  0.2568  0.3497
15010TIP3    H166521   4.984   3.096  11.015 -0.2878  2.0598  0.1434
15010TIP3    H266522   5.133   3.081  10.993 -0.5435  0.4738 -0.6132
15011TIP3   OH266523   0.390   3.651  16.271 -0.2629  0.0795 -0.2858
15011TIP3    H166524   0.433   3.730  16.237  0.2052 -0.9188 -2.1917
15011TIP3    H266525   0.307   3.647  16.224 -1.8919  1.1852  2.2802
15012TIP3   OH266526   1.704   5.158  11.686  0.0200  0.3059 -0.2553
15012TIP3    H166527   1.703   5.069  11.649 -1.2234  0.9021 -1.7700
15012TIP3    H266528   1.775   5.202  11.639 -0.2568  0.4888 -0.5090
15013TIP3   OH266529   2.145   4.073   4.296  0.0628 -0.3963  0.1371
15013TIP3    H166530   2.119   4.009   4.362  1.9410  0.7077  2.0826
15013TIP3    H266531   2.235   4.049   4.274  0.9252  1.6288  1.1440
15014TIP3   OH266532   2.279   2.459  13.494  0.1394 -0.3950 -0.4179
15014TIP3    H166533   2.265   2.437  13.586  0.1208  0.9254 -0.0793
15014TIP3    H266534   2.201   2.510  13.470  0.1869 -0.6575 -1.1409
15015TIP3   OH266535   3.540   0.571   1.174  0.0064 -0.4975  0.0519
15015TIP3    H166536   3.600   0.544   1.243  0.6723  0.1822 -0.2522
15015TIP3    H266537   3.459   0.593   1.220  0.4749  0.0344  0.6417
15016TIP3   OH266538   3.594   5.770   5.153  0.0681 -0.0324 -0.3606
15016TIP3    H166539   3.683   5.804   5.150  0.7308 -1.6846 -1.9654
15016TIP3    H266540   3.606   5.675   5.161 -1.5815 -0.1946  0.4605
15017TIP3   OH266541   6.621   4.685  14.001  0.2950 -0.0717 -0.5644
15017TIP3    H166542   6.588   4.658  13.915 -1.2007 -1.0428  0.2548
15017TIP3    H266543   6.581   4.771  14.016  0.5097  0.0718 -0.8165
15018TIP3   OH266544   3.885   0.046   1.023 -0.0284 -0.6092 -0.2474
15018TIP3    H166545   3.820   0.041   1.093 -0.5591 -1.2891 -0.7687
15018TIP3    H266546   3.954   0.102   1.058 -0.6428 -0.3129  0.5230
15019TIP3   OH266547   3.187   2.774   2.268  0.2716  0.5961 -0.3541
15019TIP3    H166548   3.265   2.795   2.216  1.0253 -0.1964  0.4248
15019TIP3    H266549   3.221   2.729   2.345 -1.0217 -0.5255 -0.4011
15020TIP3   OH266550   4.314   1.153  13.161 -0.3348  0.1040  0.4816
15020TIP3    H166551   4.335   1.221  13.098 -0.0238 -1.1557 -0.8212
15020TIP3    H266552   4.219   1.143  13.155 -0.6534  1.6673  2.0441
15021TIP3   OH266553   3.654   4.066   4.460  0.1022 -0.4010  0.2127
15021TIP3    H166554   3.722   4.037   4.398 -0.2061 -0.6314 -0.0169
15021TIP3    H266555   3.691   4.145   4.499  0.1003  0.0187 -0.6070
15022TIP3   OH266556   0.501   3.199   5.691 -0.5330  0.3414  0.4507
15022TIP3    H166557   0.431   3.165   5.746 -0.5790  0.8724  0.7174
15022TIP3    H266558   0.458   3.262   5.633 -0.7990 -1.3079 -1.2871
15023TIP3   OH266559   3.097   4.424  12.269  0.2199  0.2012  0.0229
15023TIP3    H166560   3.014   4.381  12.251 -0.3407  0.7941  1.0957
15023TIP3    H266561   3.114   4.406  12.362  0.8518  0.7997  0.0320
15024TIP3   OH266562   6.378   4.587   3.261 -0.0184  0.0431  0.0622
15024TIP3    H166563   6.363   4.493   3.247 -1.1996  0.0721  1.0363
15024TIP3    H266564   6.467   4.592   3.296 -0.1514 -0.7702  0.5472
15025TIP3   OH266565   1.301   0.337  15.053  0.4279 -0.6546  0.2829
15025TIP3    H166566   1.393   0.363  15.049  0.1809  0.1730 -0.4126
15025TIP3    H266567   1.272   0.338  14.961 -0.3860 -0.4638  0.5355
15026TIP3   OH266568   5.276   2.921  15.443  0.8482  0.2733  0.1300
15026TIP3    H166569   5.230   2.860  15.500  0.1933  0.8778  0.2609
15026TIP3    H266570   5.293   2.871  15.363  2.5175 -0.8454  1.1196
15027TIP3   OH266571   1.816   2.224  10.631  0.0107  0.4495 -0.7799
15027TIP3    H166572   1.797   2.179  10.549  0.3815 -0.8272 -0.1958
15027TIP3    H266573   1.875   2.164  10.678  0.0687  1.3034  0.2695
15028TIP3   OH266574   0.194   1.089  16.731 -0.1822  0.1863 -0.5066
15028TIP3    H166575   0.260   1.051  16.672 -0.0660 -0.1214 -0.1831
15028TIP3    H266576   0.241   1.159  16.777  0.7509 -1.7625  1.7165
15029TIP3   OH266577   2.380   3.499   2.866 -0.1818  0.0180 -0.0510
15029TIP3    H166578   2.290   3.515   2.893 -0.0953  0.5508 -0.0589
15029TIP3    H266579   2.381   3.518   2.772  0.1271  0.8875  0.1163
15030TIP3   OH266580   6.770   0.248  11.127  0.1709 -0.3999 -0.1104
15030TIP3    H166581   6.730   0.170  11.166  1.9628 -1.3697 -0.1017
15030TIP3    H266582   6.850   0.216  11.086 -1.1552  0.7072 -3.9850
15031TIP3   OH266583   1.878   1.011  14.844 -1.1493  0.0364  0.1376
15031TIP3    H166584   1.947   1.073  14.820 -1.5645  0.5284  0.1977
15031TIP3    H266585   1.905   0.979  14.931 -0.9785  0.2007  0.1461
15032TIP3   OH266586   2.809   2.403  16.157 -0.2281  0.5553  0.2316
15032TIP3    H166587   2.721   2.435  16.135 -0.4539  0.8118  1.4227
15032TIP3    H266588   2.808   2.395  16.252  0.7078 -0.4674  0.1724
15033TIP3   OH266589   3.301   4.033   1.815 -0.2474  0.2203  0.1720
15033TIP3    H166590   3.274   3.941   1.819 -0.6282  0.2621 -1.0055
15033TIP3    H266591   3.381   4.033   1.762  0.4396  0.4429  1.1819
15034TIP3   OH266592   4.996   6.303   5.790 -0.0879  0.1546 -0.4649
15034TIP3    H166593   5.056   6.260   5.729 -0.7718 -2.6379  0.6825
15034TIP3    H266594   4.914   6.255   5.781 -1.1177  1.6604  0.4977
15035TIP3   OH266595   2.317   5.953  14.563 -0.7125 -0.2460 -0.1393
15035TIP3    H166596   2.347   5.996  14.484 -0.8487 -2.2056 -1.3140
15035TIP3    H266597   2.222   5.965  14.562 -0.7733 -0.7181 -0.5797
15036TIP3   OH266598   4.403   6.722   3.772 -0.4730  0.4881 -0.0717
15036TIP3    H166599   4.421   6.654   3.707  0.8273  0.9834 -0.2531
15036TIP3    H266600   4.439   6.802   3.734  2.3277  0.4250  2.1150
15037TIP3   OH266601   4.943   3.425  13.022 -0.6783  0.4188  0.2611
15037TIP3    H166602   4.972   3.342  13.059 -0.6849 -0.3988 -1.4541
15037TIP3    H266603   4.848   3.414  13.010 -0.8757  1.1338  1.1250
15038TIP3   OH266604   2.084   1.960  16.082  0.7806 -0.4022  0.2942
15038TIP3    H166605   2.051   1.953  16.172  0.5371 -3.4108  0.0574
15038TIP3    H266606   2.142   2.037  16.084 -1.6234  1.5367  2.1746
15039TIP3   OH266607   1.273   1.812  15.145  0.0070 -0.5002  0.4517
15039TIP3    H166608   1.241   1.879  15.205  0.5930  1.0070 -0.8795
15039TIP3    H266609   1.368   1.812  15.157 -0.0173 -1.4688  0.7895
15040TIP3   OH266610   4.694   3.267   5.897  0.3908 -0.1842 -0.0263
15040TIP3    H166611   4.609   3.276   5.940 -0.5460 -1.4666 -1.5018
15040TIP3    H266612   4.748   3.337   5.935 -0.6846 -0.5445  2.3602
15041TIP3   OH266613   5.218   6.643   1.990  0.3977  0.5999  0.2747
15041TIP3    H166614   5.194   6.568   2.046  1.0056  1.2215  1.4001
15041TIP3    H266615   5.135   6.685   1.970 -0.2271 -1.4887 -2.1012
15042TIP3   OH266616   1.174   5.728  13.969  0.3753 -0.0172 -0.0788
15042TIP3    H166617   1.135   5.646  13.939 -0.6359  0.6142 -0.5656
15042TIP3    H266618   1.189   5.778  13.888 -3.0917  2.0305  0.3589
15043TIP3   OH266619   1.303   6.520  14.110 -0.4923  0.2686  0.5780
15043TIP3    H166620   1.320   6.440  14.059 -2.8432 -0.5960  1.0132
15043TIP3    H266621   1.208   6.532  14.105 -0.4340  1.9056  2.2176
15044TIP3   OH266622   0.908   6.224   0.464 -0.1246 -0.4709  0.4342
15044TIP3    H166623   0.991   6.215   0.510  1.0744 -0.2815 -1.5705
15044TIP3    H266624   0.909   6.154   0.399 -1.3626 -0.2133  0.1212
15045TIP3   OH266625   3.394   2.631  11.703 -0.3302  0.2861 -0.0270
15045TIP3    H166626   3.396   2.535  11.709  1.5671  0.2869  0.2777
15045TIP3    H266627   3.302   2.653  11.697 -0.8039 -1.5802 -0.3502
15046TIP3   OH266628   6.770   4.382  12.839 -0.3622 -0.3442  0.3498
15046TIP3    H166629   6.774   4.422  12.752  1.9763  0.2155  0.6427
15046TIP3    H266630   6.747   4.454  12.897  0.4298 -0.1658  0.4566
15047TIP3   OH266631   3.260   6.646  15.915 -0.2232 -0.1023 -0.1848
15047TIP3    H166632   3.211   6.565  15.901 -2.2167  0.9819  0.1212
15047TIP3    H266633   3.196   6.706  15.952  1.4158  1.3741  0.3694
15048TIP3   OH266634   5.248   3.580  15.959  0.0227  0.4084 -0.1653
15048TIP3    H166635   5.288   3.667  15.949  0.4721  0.2606  0.2930
15048TIP3    H266636   5.229   3.573  16.052  0.2328 -0.0971 -0.1592
15049TIP3   OH266637   4.182   5.219  12.529 -0.6081 -0.0478 -0.2719
15049TIP3    H166638   4.137   5.295  12.565 -0.3667  0.0919 -0.2659
15049TIP3    H266639   4.268   5.221  12.569 -1.3471 -1.6418  1.5753
15050TIP3   OH266640   0.767   2.559   2.523 -0.5797 -0.1348 -0.3618
15050TIP3    H166641   0.835   2.625   2.514  0.4805 -1.1133  0.2195
15050TIP3    H266642   0.758   2.546   2.617  0.5921 -2.1488 -0.4716
15051TIP3   OH266643   5.014   4.862  15.955  0.2068  0.2928 -0.2223
15051TIP3    H166644   5.102   4.887  15.925 -0.6963  3.2270 -0.7702
15051TIP3    H266645   5.021   4.864  16.051  0.4810  1.7153 -0.2502
15052TIP3   OH266646   4.708   3.256   1.306  0.4787 -0.1515  0.1561
15052TIP3    H166647   4.796   3.291   1.323  0.6296 -0.2038 -0.4924
15052TIP3    H266648   4.711   3.167   1.341  0.3755  0.1646  1.0021
15053TIP3   OH266649   4.947   1.906  13.825  0.4499  0.6405 -0.4728
15053TIP3    H166650   5.003   1.937  13.753  1.0014  0.3876 -0.1588
15053TIP3    H266651   5.005   1.904  13.901  0.6063 -1.7379 -0.5973
15054TIP3   OH266652   3.106   6.291  12.204  0.2520  0.3221  0.0164
15054TIP3    H166653   3.146   6.377  12.220  0.8668 -0.0972  0.8217
15054TIP3    H266654   3.019   6.311  12.169  1.0587  1.2558 -1.5519
15055TIP3   OH266655   6.666   5.537   5.575 -0.0704 -0.2274 -0.0357
15055TIP3    H166656   6.670   5.625   5.612 -0.4818 -0.9982  1.9776
15055TIP3    H266657   6.574   5.511   5.584 -0.0499 -0.7028 -1.0291
15056TIP3   OH266658   3.849   2.817  11.042  0.1449  0.6724  0.2752
15056TIP3    H166659   3.753   2.820  11.040  0.1109 -0.4187 -1.4074
15056TIP3    H266660   3.871   2.829  11.135 -1.4724  3.3452  0.4259
15057TIP3   OH266661   5.993   0.116  11.942 -1.0329 -0.1623 -0.3515
15057TIP3    H166662   5.949   0.145  12.022  1.8612 -0.7428  1.6517
15057TIP3    H266663   6.023   0.197  11.901 -0.5226  0.0948  0.4849
15058TIP3   OH266664   6.536   2.959  14.732 -0.1820  0.1002 -0.0564
15058TIP3    H166665   6.594   2.911  14.672  0.9756 -0.8644  1.7250
15058TIP3    H266666   6.595   3.001  14.794 -1.3274 -1.4201  2.2119
15059TIP3   OH266667   3.990   6.327   5.082 -0.0826 -0.2631  0.0395
15059TIP3    H166668   3.898   6.317   5.106  0.0009  3.5303  2.8529
15059TIP3    H266669   3.987   6.369   4.996 -0.9292 -0.5146 -0.0686
15060TIP3   OH266670   4.758   5.474   4.878  0.7974 -0.5410  0.0597
15060TIP3    H166671   4.792   5.414   4.811 -0.4348 -0.7153 -0.4372
15060TIP3    H266672   4.722   5.547   4.827 -0.4732 -0.8407  0.4920
15061TIP3   OH266673   4.873   4.076   0.930 -0.2536  0.6628 -0.0003
15061TIP3    H166674   4.817   4.018   0.981  0.1986 -0.0016 -0.2452
15061TIP3    H266675   4.826   4.091   0.849  0.1565 -0.3469 -0.4397
15062TIP3   OH266676   2.614   1.257  12.794  0.0727 -0.2348  0.1561
15062TIP3    H166677   2.607   1.204  12.714  1.0807 -0.0662 -0.0536
15062TIP3    H266678   2.676   1.326  12.772 -0.9085  0.8203  0.5571
15063TIP3   OH266679   3.551   5.667   2.093 -0.0340  0.5861  0.5996
15063TIP3    H166680   3.548   5.611   2.016  0.0590  0.0702  0.9644
15063TIP3    H266681   3.574   5.753   2.059 -1.4659  0.7006 -0.1181
15064TIP3   OH266682   1.760   1.485   4.824 -0.1983 -0.1940 -0.4068
15064TIP3    H166683   1.748   1.537   4.745  1.0877 -0.5494 -0.8579
15064TIP3    H266684   1.680   1.499   4.874  0.4476  2.9244 -0.0721
15065TIP3   OH266685   3.314   3.528  15.367  0.4425 -0.0593 -0.2835
15065TIP3    H166686   3.344   3.437  15.362 -0.5350 -0.6928  3.0578
15065TIP3    H266687   3.376   3.571  15.426 -0.3920  0.8357 -0.0288
15066TIP3   OH266688   0.703   1.782  11.974 -0.7206  0.2401 -0.4534
15066TIP3    H166689   0.686   1.759  12.065 -1.7515 -2.2202 -1.1873
15066TIP3    H266690   0.759   1.859  11.979  0.3974 -0.6403  2.2550
15067TIP3   OH266691   5.581   2.648   3.379 -0.1038  0.2521  0.4582
15067TIP3    H166692   5.563   2.554   3.385 -0.2136  0.2247 -0.2386
15067TIP3    H266693   5.561   2.671   3.288  0.4356  0.8442  0.4794
15068TIP3   OH266694   5.737   0.356  14.223  0.4000 -0.1492 -0.2179
15068TIP3    H166695   5.812   0.372  14.281 -0.0981 -0.9842  0.6717
15068TIP3    H266696   5.667   0.410  14.259 -0.2584 -1.5498  0.7117
15069TIP3   OH266697   1.313   4.341   3.970  0.4482 -1.0770 -0.3301
15069TIP3    H166698   1.317   4.419   4.025  1.3015 -1.3996  0.0773
15069TIP3    H266699   1.317   4.375   3.880 -1.1502 -0.5371 -0.2337
15070TIP3   OH266700   3.229   3.839   0.741  0.0623 -0.2335  0.1541
15070TIP3    H166701   3.137   3.823   0.761 -0.2254  0.9722 -0.0992
15070TIP3    H266702   3.229   3.920   0.690  1.2068 -0.5924 -0.4652
15071TIP3   OH266703   2.981   3.644   0.134 -0.1114 -0.1074 -0.1245
15071TIP3    H166704   2.990   3.580   0.064  1.4611  1.4117 -1.3875
15071TIP3    H266705   2.997   3.594   0.214  0.0797 -1.4646 -0.9823
15072TIP3   OH266706   6.029   6.813  16.592  0.2721 -0.4048 -0.8495
15072TIP3    H166707   6.083   6.749  16.546  1.8340  0.8445 -0.8255
15072TIP3    H266708   5.988   6.864  16.522 -0.5875 -1.0911 -0.8626
15073TIP3   OH266709   0.254   1.135   3.608  1.0166 -0.1728  0.5394
15073TIP3    H166710   0.298   1.197   3.549  0.1450 -1.1330 -1.2084
15073TIP3    H266711   0.167   1.172   3.621  0.6822 -0.7440 -0.0581
15074TIP3   OH266712   3.910   3.110   3.184  0.4773 -0.4272 -0.1726
15074TIP3    H166713   3.937   3.187   3.233  1.3559 -0.7434 -0.1380
15074TIP3    H266714   3.860   3.057   3.247 -0.9219  0.5088 -0.4460
15075TIP3   OH266715   0.591   2.667   6.854  0.2658  0.1194 -0.7424
15075TIP3    H166716   0.530   2.724   6.805 -1.2648 -0.2500  0.6557
15075TIP3    H266717   0.589   2.702   6.943  1.9214 -0.0970 -0.5986
15076TIP3   OH266718   3.812   2.559   3.545 -0.7755 -0.6162  0.4856
15076TIP3    H166719   3.871   2.618   3.591 -0.3317 -0.1374 -0.6567
15076TIP3    H266720   3.725   2.596   3.560 -0.4712  0.5619 -0.5154
15077TIP3   OH266721   2.397   6.242  13.195 -0.1926  0.8215  0.1331
15077TIP3    H166722   2.364   6.152  13.196  0.6420  0.3612 -2.9513
15077TIP3    H266723   2.325   6.295  13.230 -1.3489 -0.8649  0.3791
15078TIP3   OH266724   5.051   4.261  15.273 -0.2379 -0.8085  0.3645
15078TIP3    H166725   5.092   4.182  15.307 -1.0069 -0.6794  1.6602
15078TIP3    H266726   5.087   4.332  15.326  1.0036 -0.1581 -1.2659
15079TIP3   OH266727   3.036   3.991  14.367  0.1890  0.9371  0.0439
15079TIP3    H166728   2.963   3.989  14.306  0.2152  0.3886  0.0241
15079TIP3    H266729   3.063   4.083  14.370 -0.9338  1.2562  0.5840
15080TIP3   OH266730   1.681   4.017   3.876  0.3679 -0.2571 -0.0891
15080TIP3    H166731   1.635   4.089   3.833  1.3150  0.0386 -0.6540
15080TIP3    H266732   1.614   3.951   3.891 -0.3020  0.2942 -0.5788
15081TIP3   OH266733   4.540   1.179   2.344  0.0008  0.7037 -0.2889
15081TIP3    H166734   4.505   1.092   2.366 -0.8471  1.4735  1.6602
15081TIP3    H266735   4.482   1.240   2.388  1.9715  2.1733  0.4349
15082TIP3   OH266736   6.368   3.444   1.103 -0.1934 -0.3888  0.3446
15082TIP3    H166737   6.373   3.526   1.153  0.8228 -0.1912 -0.0579
15082TIP3    H266738   6.357   3.473   1.012  1.8280 -0.6390 -0.0081
15083TIP3   OH266739   3.384   3.389   5.436 -0.0902 -0.0221  0.0411
15083TIP3    H166740   3.348   3.422   5.519  2.7119 -0.0763  1.4067
15083TIP3    H266741   3.354   3.298   5.431  0.1517 -0.1924  1.3007
15084TIP3   OH266742   0.840   2.321   1.883 -0.3131 -0.1952 -0.2876
15084TIP3    H166743   0.750   2.325   1.915  0.0917  0.9920  0.8001
15084TIP3    H266744   0.838   2.367   1.799 -0.3090  2.0803  0.8807
15085TIP3   OH266745   2.740   0.062   0.569  0.2247  0.4078  0.3482
15085TIP3    H166746   2.815   0.048   0.510  0.3910 -0.7559  0.8079
15085TIP3    H266747   2.725   0.156   0.567  2.2876  0.7948  0.9502
15086TIP3   OH266748   6.742   3.573  14.855  0.3912 -0.5697 -0.1761
15086TIP3    H166749   6.791   3.609  14.929 -0.6221  0.4502  0.0338
15086TIP3    H266750   6.651   3.597  14.873  0.0414 -0.9094 -1.4114
15087TIP3   OH266751   5.136   4.121  12.662  0.2272  0.6059 -0.3972
15087TIP3    H166752   5.101   4.036  12.688  1.6995 -0.0111 -0.3250
15087TIP3    H266753   5.110   4.130  12.570 -1.3678  0.8542  0.0671
15088TIP3   OH266754   4.245   3.663   2.157  0.4036 -0.4360  0.8079
15088TIP3    H166755   4.273   3.580   2.119  1.7530 -0.6302  2.1545
15088TIP3    H266756   4.205   3.710   2.084  1.3175 -1.5043 -0.4247
15089TIP3   OH266757   0.197   0.619   0.605  0.2424 -0.0272  0.0680
15089TIP3    H166758   0.173   0.692   0.663  0.0953 -1.7945  2.4034
15089TIP3    H266759   0.114   0.584   0.575  0.1833 -0.6423  0.8926
15090TIP3   OH266760   4.600   0.246   1.074  0.6116 -0.5535  0.2442
15090TIP3    H166761   4.593   0.339   1.095 -0.0594 -0.5006 -0.1879
15090TIP3    H266762   4.684   0.219   1.111 -0.8914 -0.7434  3.9913
15091TIP3   OH266763   2.803   4.803   2.364 -0.1901  0.8130 -0.1644
15091TIP3    H166764   2.795   4.739   2.434  2.7103  0.8265  0.3131
15091TIP3    H266765   2.757   4.880   2.397 -2.4232 -0.4459 -0.1152
15092TIP3   OH266766   4.462   4.589   2.902  0.0806 -0.3885  0.1165
15092TIP3    H166767   4.414   4.519   2.857 -0.7181  1.1454 -1.5915
15092TIP3    H266768   4.410   4.608   2.980 -1.9695  0.9173 -1.4539
15093TIP3   OH266769   3.407   1.172  16.980  0.4737 -0.3306  0.5319
15093TIP3    H166770   3.456   1.169  17.063  3.3984 -1.0966 -1.0792
15093TIP3    H266771   3.369   1.084  16.972 -0.3391 -0.0667  1.2961
15094TIP3   OH266772   0.552   2.945   1.973  0.6855 -0.4621 -0.2983
15094TIP3    H166773   0.488   3.015   1.968  0.5560 -0.5220  0.4810
15094TIP3    H266774   0.608   2.959   1.896  1.9016  1.7206  0.8927
15095TIP3   OH266775   1.958   2.901  13.750 -0.3928 -0.1988 -0.0777
15095TIP3    H166776   2.053   2.901  13.744 -0.4634 -0.0081 -1.6041
15095TIP3    H266777   1.931   2.986  13.715 -1.1998 -1.2105 -2.1006
15096TIP3   OH266778   6.730   5.207  12.724 -0.0680  0.1157 -0.0709
15096TIP3    H166779   6.797   5.216  12.656  0.4029  0.8851  0.4755
15096TIP3    H266780   6.727   5.113  12.742  0.4783  0.0111 -0.4876
15097TIP3   OH266781   1.586   3.662   0.018 -0.2101  0.1792  0.1935
15097TIP3    H166782   1.539   3.727  -0.033 -0.9865 -1.4892 -1.3325
15097TIP3    H266783   1.638   3.613  -0.046  1.9151  0.5144  1.5530
15098TIP3   OH266784   5.728   2.212  16.690 -0.2963 -0.0281  0.0936
15098TIP3    H166785   5.693   2.289  16.734  0.0040 -1.3027  2.7919
15098TIP3    H266786   5.802   2.245  16.639 -0.1118  1.4673  1.2563
15099TIP3   OH266787   5.168   3.286   4.830  0.0399 -0.1168  0.0755
15099TIP3    H166788   5.150   3.193   4.840  0.4129 -0.1647  0.3194
15099TIP3    H266789   5.259   3.290   4.799  0.0971  0.1713  0.2757
15100TIP3   OH266790   1.292   6.759  11.802  0.7325 -0.6350 -0.0644
15100TIP3    H166791   1.290   6.664  11.785 -0.0992 -0.2149 -2.8580
15100TIP3    H266792   1.344   6.795  11.729 -1.0499  1.2494 -0.4989
15101TIP3   OH266793   2.369   5.930   4.132 -0.1706  0.8226  0.9200
15101TIP3    H166794   2.318   5.997   4.177 -1.4165  0.8650 -0.4940
15101TIP3    H266795   2.305   5.881   4.081  0.8736 -0.7368  1.0482
15102TIP3   OH266796   2.940   3.381   3.633 -0.3251  0.2861 -0.4622
15102TIP3    H166797   2.922   3.322   3.707 -0.3537 -0.9950 -1.4540
15102TIP3    H266798   3.031   3.363   3.610 -0.2127  0.9228 -0.5310
15103TIP3   OH266799   2.656   4.063   0.192 -0.1697 -0.0516 -0.1075
15103TIP3    H166800   2.712   4.119   0.139 -0.2248 -0.3600 -0.5045
15103TIP3    H266801   2.713   4.028   0.260 -0.0164  0.0798 -0.1685
15104TIP3   OH266802   4.953   6.756  16.726 -0.3128  0.2559  0.4262
15104TIP3    H166803   4.895   6.699  16.777 -0.0443 -1.0586 -0.6860
15104TIP3    H266804   4.922   6.746  16.636  1.1126  0.1750 -0.0742
15105TIP3   OH266805   5.867   5.389   4.633 -0.2386 -0.5034  0.6203
15105TIP3    H166806   5.884   5.332   4.558 -0.2952 -0.1386  0.3277
15105TIP3    H266807   5.910   5.346   4.706  0.7699 -0.2860  0.1617
15106TIP3   OH266808   3.970   2.617  14.753  0.0929 -0.0133  0.1680
15106TIP3    H166809   3.877   2.597  14.759  0.1412 -0.3152 -0.0498
15106TIP3    H266810   4.013   2.548  14.804  0.2057  0.0462  0.1545
15107TIP3   OH266811   2.817   2.342   5.498 -0.6804  0.1079  0.7305
15107TIP3    H166812   2.764   2.393   5.559 -0.4623  1.9019 -0.5051
15107TIP3    H266813   2.906   2.376   5.509 -0.6458  0.4967 -0.5951
15108TIP3   OH266814   1.127   0.313  13.224 -0.3178 -0.0184  0.2322
15108TIP3    H166815   1.137   0.267  13.141  0.4462  0.1027  0.2526
15108TIP3    H266816   1.121   0.405  13.200  1.4438  0.1727  0.3849
15109TIP3   OH266817   2.886   6.319  15.683 -0.4869  0.0672  0.1447
15109TIP3    H166818   2.887   6.227  15.655 -0.0201  0.8169 -2.5668
15109TIP3    H266819   2.803   6.329  15.728 -0.5122 -1.7030  0.5604
15110TIP3   OH266820   1.651   3.399   1.048  0.4350  0.9937  0.2871
15110TIP3    H166821   1.579   3.385   1.109 -0.8152  3.2099 -0.5784
15110TIP3    H266822   1.642   3.329   0.984 -1.4256  1.6349 -0.2062
15111TIP3   OH266823   0.514   4.853  13.662 -0.8334 -0.5125 -0.2986
15111TIP3    H166824   0.443   4.916  13.649  0.0279  0.2953 -1.1908
15111TIP3    H266825   0.516   4.802  13.582 -0.1581 -0.2685 -0.4433
15112TIP3   OH266826   1.866   0.920   5.884  0.3022 -0.1684  0.9150
15112TIP3    H166827   1.907   0.837   5.858  1.6593  0.8738 -0.4136
15112TIP3    H266828   1.928   0.987   5.858 -0.5774  1.2835  2.3656
15113TIP3   OH266829   2.191   5.397  13.661 -0.2089 -0.0134  0.4395
15113TIP3    H166830   2.216   5.415  13.570  1.0366 -2.4177  0.2292
15113TIP3    H266831   2.101   5.428  13.668  0.1617  1.5871 -1.1494
15114TIP3   OH266832   5.126   3.983  13.124 -0.1061 -0.5766  0.6585
15114TIP3    H166833   5.179   4.063  13.111 -0.4982 -0.2693  0.9283
15114TIP3    H266834   5.191   3.914  13.138  0.3211 -0.6500 -1.2902
15115TIP3   OH266835   3.680   6.467   1.519  0.3861  0.1356 -0.6958
15115TIP3    H166836   3.674   6.466   1.615  0.8240 -0.5452 -0.6691
15115TIP3    H266837   3.655   6.378   1.493 -0.1670  0.4477 -1.2451
15116TIP3   OH266838   5.211   1.869   4.962  0.0976  0.0013 -0.0830
15116TIP3    H166839   5.152   1.836   4.895  1.3334  2.4029 -2.5588
15116TIP3    H266840   5.294   1.824   4.946  0.1554 -0.0936  0.4633
15117TIP3   OH266841   5.623   2.937  12.514 -0.0140 -0.4271  0.1752
15117TIP3    H166842   5.710   2.905  12.488  0.8255  0.8385  1.2819
15117TIP3    H266843   5.612   2.903  12.603  0.8189  2.0826  1.3053
15118TIP3   OH266844   5.521   0.396   4.508 -0.1487  0.2890  0.6804
15118TIP3    H166845   5.554   0.347   4.583  0.1725 -1.2050 -0.3817
15118TIP3    H266846   5.478   0.472   4.546  1.1733  0.2991  2.3045
15119TIP3   OH266847   5.970   0.235   2.532  0.5602 -0.0986 -0.5268
15119TIP3    H166848   5.913   0.161   2.551  1.8300 -0.8213  0.6542
15119TIP3    H266849   6.003   0.263   2.618  0.9270  1.1615 -1.0512
15120TIP3   OH266850   0.493   3.761  13.710 -0.3759 -0.5208 -0.1130
15120TIP3    H166851   0.465   3.681  13.665 -1.4670 -0.4125  0.3374
15120TIP3    H266852   0.541   3.731  13.786  1.2623 -0.7087 -1.1592
15121TIP3   OH266853   6.753   2.154   2.910 -0.0731 -0.6277  0.0246
15121TIP3    H166854   6.719   2.240   2.883 -0.8153 -0.0024  2.6321
15121TIP3    H266855   6.684   2.092   2.886 -0.8256 -0.0610  0.6488
15122TIP3   OH266856   3.173   0.881   0.064 -0.5061  0.0243 -0.3956
15122TIP3    H166857   3.089   0.838   0.078 -0.5955 -0.8088 -3.0445
15122TIP3    H266858   3.163   0.929  -0.018  1.1912  1.0265 -0.0704
15123TIP3   OH266859   3.755   3.700   0.844 -0.6280  0.0166  0.0034
15123TIP3    H166860   3.733   3.793   0.844  1.7381  0.6756  1.1690
15123TIP3    H266861   3.678   3.656   0.879 -1.8431  1.5190 -0.7030
15124TIP3   OH266862   0.420   6.533  16.985 -0.0376  0.0093 -0.5897
15124TIP3    H166863   0.350   6.468  16.987 -0.2555  0.2541 -0.3637
15124TIP3    H266864   0.459   6.523  16.898 -1.1524  0.7292 -1.1977
15125TIP3   OH266865   4.665   6.529  12.991  0.1333  0.2887  0.5478
15125TIP3    H166866   4.627   6.611  12.960  0.6669  0.1198 -0.6138
15125TIP3    H266867   4.621   6.512  13.074 -1.5403  0.6350 -0.2283
15126TIP3   OH266868   0.487   3.969  12.983  0.1798 -0.2939  0.0016
15126TIP3    H166869   0.557   3.905  12.980  0.0270 -0.6095  2.0793
15126TIP3    H266870   0.527   4.047  13.022 -0.0678  0.3458 -0.9567
15127TIP3   OH266871   5.932   1.147   3.708 -0.7753 -0.0832  0.3459
15127TIP3    H166872   5.938   1.123   3.801 -1.8545  0.8005  0.6665
15127TIP3    H266873   5.846   1.115   3.680  0.0236 -1.4171 -0.7014
15128TIP3   OH266874   2.504   5.317  16.267  0.1356 -0.3061 -0.6556
15128TIP3    H166875   2.435   5.310  16.202  0.4495 -1.2602 -0.9064
15128TIP3    H266876   2.458   5.323  16.351 -0.2621 -0.2051 -0.8802
15129TIP3   OH266877   5.194   5.347   4.745  0.7199 -0.7795 -0.0768
15129TIP3    H166878   5.189   5.379   4.835  0.5195 -0.4782 -0.1954
15129TIP3    H266879   5.223   5.256   4.754 -2.2295 -1.7815  0.5198
15130TIP3   OH266880   6.799   3.288  16.950  0.7575 -0.8391 -0.0543
15130TIP3    H166881   6.708   3.318  16.944  1.2110  0.2439 -2.9901
15130TIP3    H266882   6.811   3.268  17.043 -1.7288  1.4029  0.8972
15131TIP3   OH266883   5.531   4.049  15.414  0.2024  0.0191 -0.1598
15131TIP3    H166884   5.624   4.073  15.407  0.2694 -0.4843 -1.1225
15131TIP3    H266885   5.530   3.954  15.406 -0.3995  0.0160 -0.0960
15132TIP3   OH266886   3.783   5.147   2.936 -0.2150  0.4225  0.8474
15132TIP3    H166887   3.718   5.080   2.955 -0.6905  1.0577  1.5361
15132TIP3    H266888   3.785   5.152   2.841  0.0572 -0.7831  0.7858
15133TIP3   OH266889   2.567   6.363   0.613  0.8274 -0.0300 -1.0157
15133TIP3    H166890   2.582   6.458   0.606 -2.0086  0.5443 -0.7521
15133TIP3    H266891   2.572   6.345   0.706 -1.0769  0.4358 -0.7715
15134TIP3   OH266892   1.370   6.378  17.105 -0.0276 -0.4583  0.3565
15134TIP3    H166893   1.351   6.472  17.097 -0.6571 -0.4743  1.3728
15134TIP3    H266894   1.461   6.374  17.134  0.0019 -0.1629  0.3106
15135TIP3   OH266895   1.561   0.126   0.996  0.2038  0.3214  0.5854
15135TIP3    H166896   1.656   0.135   0.983  0.5412 -1.3326  1.6744
15135TIP3    H266897   1.550   0.118   1.090 -0.8278 -1.3438  0.3604
15136TIP3   OH266898   0.995   0.486   3.878  0.1457  0.4262 -0.0937
15136TIP3    H166899   0.941   0.416   3.841 -0.4445  1.3193 -0.9549
15136TIP3    H266900   0.982   0.478   3.973  0.4160 -0.8809 -0.1444
15137TIP3   OH266901   0.971   2.070   1.471 -0.0897 -0.2613 -0.3946
15137TIP3    H166902   1.044   2.011   1.492 -0.2066 -0.6823 -1.1482
15137TIP3    H266903   0.912   2.063   1.546  0.5191 -0.1087  0.1049
15138TIP3   OH266904   2.991   3.520   5.449  0.0825  0.2286 -0.3838
15138TIP3    H166905   3.061   3.526   5.384 -0.1942  2.1798 -0.5721
15138TIP3    H266906   2.945   3.439   5.428  1.8438 -0.7488 -0.6764
15139TIP3   OH266907   6.374   1.901  12.925 -0.7143 -0.6151  0.2173
15139TIP3    H166908   6.465   1.885  12.948 -0.3030  1.6772  0.4775
15139TIP3    H266909   6.344   1.967  12.988 -2.8603 -1.9373  0.6948
15140TIP3   OH266910   4.094   4.194  14.133 -0.1742 -0.8143  0.4208
15140TIP3    H166911   4.060   4.245  14.059 -0.4610 -0.7767  0.5768
15140TIP3    H266912   4.094   4.256  14.206 -0.0237 -0.8916  0.4873
15141TIP3   OH266913   4.743   3.342  14.521 -0.1435 -0.2308 -0.6360
15141TIP3    H166914   4.665   3.342  14.465 -0.5902  2.2851 -0.1492
15141TIP3    H266915   4.787   3.425  14.501  2.0783 -1.2872 -0.3915
15142TIP3   OH266916   5.956   3.492  13.653 -0.1813  0.6092 -0.1448
15142TIP3    H166917   5.918   3.489  13.741 -1.5645  0.5739 -0.7151
15142TIP3    H266918   6.003   3.575  13.650  0.1705  0.4506  0.7403
15143TIP3   OH266919   5.244   5.505   3.114 -0.4532  0.1906  0.1115
15143TIP3    H166920   5.236   5.549   3.198 -0.1498 -2.6056  1.7333
15143TIP3    H266921   5.165   5.450   3.108 -0.5798  0.5085 -1.5420
15144TIP3   OH266922   0.354   0.072   2.330 -0.4463 -0.9003  0.0411
15144TIP3    H166923   0.294   0.072   2.405  1.9676 -1.4857  2.1287
15144TIP3    H266924   0.390   0.161   2.328 -0.0771 -1.0515 -0.0752
15145TIP3   OH266925   4.154   1.250  16.726  0.0428  0.3911  0.1177
15145TIP3    H166926   4.173   1.175  16.783  0.6139  0.6587  0.2829
15145TIP3    H266927   4.159   1.326  16.783 -0.8863  0.5397  0.0242
15146TIP3   OH266928   5.234   2.466  15.693 -0.3982 -0.0299 -0.1173
15146TIP3    H166929   5.193   2.380  15.686  0.5808 -0.6593  1.4550
15146TIP3    H266930   5.274   2.467  15.780  0.6100  1.5759 -0.5539
15147TIP3   OH266931   0.439   3.681   1.897 -0.1849  0.0009  0.0207
15147TIP3    H166932   0.521   3.671   1.849  1.4569 -0.3427  2.6367
15147TIP3    H266933   0.410   3.592   1.915 -1.3002  0.1205 -1.0952
15148TIP3   OH266934   0.317   6.639   5.876 -0.1170  0.1465 -0.0662
15148TIP3    H166935   0.407   6.607   5.882 -0.6525 -1.3752  0.2652
15148TIP3    H266936   0.270   6.592   5.944 -0.8275  2.2618  1.0105
15149TIP3   OH266937   0.043   3.511  11.929 -0.3136 -0.4237 -0.3692
15149TIP3    H166938  -0.051   3.529  11.939 -0.0847  0.0722  1.1952
15149TIP3    H266939   0.073   3.490  12.018  1.1136 -0.2622 -0.7916
15150TIP3   OH266940   1.164   5.458   4.314 -0.3876 -0.7072  0.2853
15150TIP3    H166941   1.171   5.409   4.233 -3.0051  1.1208 -1.1801
15150TIP3    H266942   1.132   5.395   4.378 -0.7566 -1.6085 -0.7612
15151TIP3   OH266943   1.930   2.999   1.101 -0.0497  0.1037 -0.1939
15151TIP3    H166944   1.965   2.996   1.012  0.6756  2.1259 -0.0083
15151TIP3    H266945   1.878   2.918   1.108  2.1141 -1.5112 -1.4766
15152TIP3   OH266946   5.294   2.900   6.639  0.7371 -0.7443  0.4991
15152TIP3    H166947   5.384   2.922   6.662  0.2642  1.0712  0.8105
15152TIP3    H266948   5.271   2.962   6.570 -0.4375 -0.8222  0.7986
15153TIP3   OH266949   1.294   3.038  12.918  0.6025  0.1930 -0.0944
15153TIP3    H166950   1.207   3.077  12.910 -0.7150 -2.0740  1.8704
15153TIP3    H266951   1.343   3.100  12.971 -0.7207  0.2838  1.0836
15154TIP3   OH266952   3.906   1.090  17.088  0.5465  0.4146  0.2042
15154TIP3    H166953   3.905   0.996  17.107  0.1244  0.1773 -0.9377
15154TIP3    H266954   3.845   1.128  17.151  0.5751 -0.0962  0.5423
15155TIP3   OH266955   1.359   0.070  15.521 -0.8439  0.1749  0.1824
15155TIP3    H166956   1.408   0.115  15.453 -2.0595 -0.3890 -1.1231
15155TIP3    H266957   1.422   0.056  15.591  0.8804 -0.5751 -1.4317
15156TIP3   OH266958   4.630   4.080  13.061 -0.0142  0.2786  0.4676
15156TIP3    H166959   4.536   4.063  13.048 -0.1906  1.2791  0.3558
15156TIP3    H266960   4.636   4.175  13.068  1.2653  0.4428 -1.7955
15157TIP3   OH266961   2.422   3.362  14.499  0.1274  0.6331  1.1750
15157TIP3    H166962   2.482   3.288  14.489 -2.2146 -1.0120 -3.7374
15157TIP3    H266963   2.368   3.339  14.575  1.1383 -1.3999  1.3401
15158TIP3   OH266964   4.740   4.219  11.571  0.3416  0.3761  0.3743
15158TIP3    H166965   4.721   4.154  11.503  0.8118 -0.4421  0.9986
15158TIP3    H266966   4.810   4.273  11.533  0.4602  0.0536  0.1202
15159TIP3   OH266967   0.765   0.134  11.445 -0.0846 -0.0183 -0.3331
15159TIP3    H166968   0.671   0.116  11.433  0.0339 -1.5088  0.7520
15159TIP3    H266969   0.803   0.050  11.467  1.0868  1.0105  1.8840
15160TIP3   OH266970   2.386   4.004   0.416 -0.7844 -0.2321 -0.4559
15160TIP3    H166971   2.378   3.943   0.489 -2.0074  0.6532  0.1946
15160TIP3    H266972   2.384   3.949   0.338 -5.1569 -0.9793 -0.0701
15161TIP3   OH266973   5.754   6.803   1.793  0.5967 -0.7613 -0.8073
15161TIP3    H166974   5.670   6.774   1.830  0.4564  1.2013  0.5434
15161TIP3    H266975   5.811   6.813   1.869  1.2541  0.4125 -1.4326
15162TIP3   OH266976   1.677   5.014   4.358  0.4707  0.1454  0.8651
15162TIP3    H166977   1.670   5.007   4.263  0.6960  3.3214  0.4948
15162TIP3    H266978   1.607   4.958   4.392 -0.8220  0.3777 -1.2446
15163TIP3   OH266979   2.548   6.450   2.565 -0.0391 -0.6314  0.0020
15163TIP3    H166980   2.623   6.407   2.524 -0.0662  0.4022 -1.1718
15163TIP3    H266981   2.558   6.542   2.544 -1.5965 -0.4586 -0.1174
15164TIP3   OH266982   0.291   2.155  13.191  0.2102 -0.1745  0.5443
15164TIP3    H166983   0.306   2.100  13.114  0.4078  0.3438  0.2074
15164TIP3    H266984   0.378   2.171  13.226  0.1864  0.2116  0.4351
15165TIP3   OH266985   0.795   1.886   1.761 -0.7616  0.7789  0.8128
15165TIP3    H166986   0.785   1.809   1.704  0.1066  1.0406  0.2961
15165TIP3    H266987   0.853   1.856   1.831 -1.1641  0.7003  1.1160
15166TIP3   OH266988   4.952   0.658   5.390  0.1454  0.0455 -0.3592
15166TIP3    H166989   4.934   0.715   5.315 -1.7616  0.8152  0.6073
15166TIP3    H266990   5.018   0.705   5.440  0.9583 -0.1673 -1.1996
15167TIP3   OH266991   4.326   6.827  14.682  0.7257  0.1311 -0.1133
15167TIP3    H166992   4.289   6.840  14.595  0.2066 -0.8455 -0.0453
15167TIP3    H266993   4.331   6.732  14.693  1.8170  0.2383  0.4934
15168TIP3   OH266994   5.608   4.223  11.877 -0.1539 -0.0363  0.1953
15168TIP3    H166995   5.556   4.264  11.945 -0.3477  0.2151 -0.1013
15168TIP3    H266996   5.567   4.139  11.862 -1.0339  0.5239 -0.6711
15169TIP3   OH266997   1.051   0.529  13.051 -0.5966  0.0473  0.0822
15169TIP3    H166998   1.014   0.555  12.967  1.0327  1.0911 -0.3456
15169TIP3    H266999   1.103   0.604  13.079  2.1065 -1.6979  0.0869
15170TIP3   OH267000   4.189   4.665   1.418  0.0264  0.0615  0.6289
15170TIP3    H167001   4.145   4.718   1.485 -0.3665 -1.6657  1.8085
15170TIP3    H267002   4.129   4.667   1.343 -0.1926  0.9171  0.8180
15171TIP3   OH267003   3.628   5.396   4.880 -0.4884 -0.6498  1.1865
15171TIP3    H167004   3.599   5.314   4.921 -1.4339 -0.2230  1.4063
15171TIP3    H267005   3.627   5.377   4.786  2.8014 -2.0012  1.2828
15172TIP3   OH267006   4.030   1.968   3.145  0.1481 -0.0273 -0.0417
15172TIP3    H167007   4.095   1.908   3.183  0.6083  1.1644  1.1286
15172TIP3    H267008   4.081   2.027   3.090 -0.1747 -0.1269 -0.4486
15173TIP3   OH267009   1.030   0.696  16.702 -0.1213  0.6363  0.4518
15173TIP3    H167010   0.945   0.690  16.747 -0.4678  1.8978  0.0117
15173TIP3    H267011   1.086   0.742  16.764  0.5350 -0.9825  1.1095
15174TIP3   OH267012   0.261   6.820  16.252  0.7993 -0.3129 -0.3360
15174TIP3    H167013   0.247   6.735  16.293  1.9801 -0.3328  0.0759
15174TIP3    H267014   0.310   6.801  16.172 -2.6364 -0.4157 -2.6155
15175TIP3   OH267015   4.999   2.320  16.718  0.3489  0.3183 -0.1514
15175TIP3    H167016   5.039   2.295  16.801  1.6762 -0.4214 -0.9901
15175TIP3    H267017   5.022   2.412  16.706  0.5240  0.3046  0.0922
15176TIP3   OH267018   5.519   0.378   2.232  0.4207 -0.0354 -0.5535
15176TIP3    H167019   5.542   0.356   2.323  1.4290 -2.3708 -1.3057
15176TIP3    H267020   5.601   0.411   2.194 -0.3569  2.4299 -0.2852
15177TIP3   OH267021   4.021   3.658  14.529  0.4826 -0.5008  0.3481
15177TIP3    H167022   3.926   3.667  14.520  0.5431  0.4201  0.5705
15177TIP3    H267023   4.045   3.593  14.464  0.1807  1.8705 -2.3203
15178TIP3   OH267024   6.774   3.357   6.092  0.2751  0.9627  0.1861
15178TIP3    H167025   6.807   3.419   6.026 -0.0538 -0.0980 -1.0115
15178TIP3    H267026   6.852   3.314   6.125  0.2962 -0.5834 -1.6740
15179TIP3   OH267027   1.561   0.288   4.668  0.3461 -0.3063 -0.4460
15179TIP3    H167028   1.566   0.309   4.761  1.5293 -0.7069 -0.4092
15179TIP3    H267029   1.478   0.240   4.659 -0.0485  0.2208  0.2952
15180TIP3   OH267030   1.045   0.841   0.832  0.4204 -0.5412 -0.0141
15180TIP3    H167031   0.980   0.909   0.814  2.2582  0.6642 -2.6743
15180TIP3    H267032   1.002   0.783   0.895 -1.9641  1.9598  0.8518
15181TIP3   OH267033   3.130   0.151   2.115  0.2742 -0.2525  0.1974
15181TIP3    H167034   3.163   0.098   2.187 -1.8273 -0.2648  1.2141
15181TIP3    H267035   3.075   0.091   2.064  0.6160  0.1105 -0.6183
15182TIP3   OH267036   4.894   6.305   2.872  0.0900 -0.4360  0.4284
15182TIP3    H167037   4.814   6.325   2.921 -0.0711  0.3327 -0.1360
15182TIP3    H267038   4.930   6.390   2.849  0.6510 -0.7858 -0.0054
15183TIP3   OH267039   3.666   1.954  14.948 -0.0975 -0.8863  0.1700
15183TIP3    H167040   3.701   1.981  14.864 -0.9439 -2.0212 -0.5808
15183TIP3    H267041   3.736   1.902  14.988  0.1814 -0.6255  0.0215
15184TIP3   OH267042   5.857   5.119   3.509 -0.0766 -0.2521  0.0350
15184TIP3    H167043   5.877   5.203   3.550 -0.5175  0.9213 -2.0308
15184TIP3    H267044   5.780   5.087   3.556  0.0893  0.4708  0.8280
15185TIP3   OH267045   0.301   0.121  12.043  0.9605  0.3234 -0.2140
15185TIP3    H167046   0.369   0.075  11.994  1.4419  0.8190 -0.0238
15185TIP3    H267047   0.227   0.061  12.043  1.6415 -0.5408  0.2220
15186TIP3   OH267048   6.104   6.346   3.943 -0.9283  0.3736  0.1889
15186TIP3    H167049   6.039   6.303   4.000 -0.0854  0.9347  1.6286
15186TIP3    H267050   6.178   6.364   4.001 -0.6918  2.4973 -0.6817
15187TIP3   OH267051   6.055   1.399   2.137 -0.0203 -0.1128  0.6829
15187TIP3    H167052   5.985   1.335   2.127 -0.5892  0.5299  0.4366
15187TIP3    H267053   6.134   1.354   2.106 -0.6321 -0.2723 -0.7364
15188TIP3   OH267054   1.808   4.524  13.213  0.4925  0.1941 -0.3168
15188TIP3    H167055   1.723   4.567  13.222  0.5888  0.5632 -1.1093
15188TIP3    H267056   1.860   4.557  13.286  0.1895  0.5213 -0.2469
15189TIP3   OH267057   5.197   3.638   5.617 -0.5115 -0.0514  0.0717
15189TIP3    H167058   5.263   3.699   5.584 -1.6994  0.3515 -1.6934
15189TIP3    H267059   5.212   3.558   5.568 -1.4644  0.1196 -0.5156
15190TIP3   OH267060   5.507   1.278  16.089  0.7820  0.3953 -0.5545
15190TIP3    H167061   5.603   1.281  16.096  0.9507 -0.7343 -1.8043
15190TIP3    H267062   5.491   1.253  15.998 -0.7773  2.5066 -0.9335
15191TIP3   OH267063   5.334   0.608   4.589 -0.3960  0.3825  0.0060
15191TIP3    H167064   5.305   0.697   4.566  1.2922  1.4519  1.7282
15191TIP3    H267065   5.274   0.580   4.657 -0.4227  0.5407  0.0490
15192TIP3   OH267066   5.614   3.112   5.922 -0.1107 -0.0380 -0.0842
15192TIP3    H167067   5.578   3.052   5.858  1.1426 -0.2926 -0.5850
15192TIP3    H267068   5.706   3.122   5.897  0.4259 -0.1608  1.6600
15193TIP3   OH267069   5.438   1.858  15.286 -0.6364 -0.0188  0.5008
15193TIP3    H167070   5.432   1.932  15.225  0.4315  1.4396  2.0728
15193TIP3    H267071   5.532   1.837  15.288 -0.4900  0.6853  2.4249
15194TIP3   OH267072   4.758   1.059   1.581  0.4334  0.7087 -0.6964
15194TIP3    H167073   4.827   1.115   1.546  1.7373 -0.1236  0.4746
15194TIP3    H267074   4.797   0.972   1.586 -0.8743  0.1056 -0.4671
15195TIP3   OH267075   5.999   3.266  11.550  0.1807 -0.1197 -0.9393
15195TIP3    H167076   5.914   3.225  11.565  0.2258 -0.1298 -0.6981
15195TIP3    H267077   5.991   3.308  11.465 -0.4397  0.7981 -0.4513
15196TIP3   OH267078   5.863   3.449   4.987  0.0626 -0.2757 -0.0769
15196TIP3    H167079   5.774   3.414   4.996 -0.5807  0.8982 -1.5384
15196TIP3    H267080   5.879   3.449   4.893  1.4273  0.0155  0.1407
15197TIP3   OH267081   5.825   6.450   1.191 -0.5743 -0.4723  0.4647
15197TIP3    H167082   5.901   6.412   1.146 -0.2890 -0.6237  1.0716
15197TIP3    H267083   5.762   6.379   1.194 -0.5616 -0.4880  0.3843
15198TIP3   OH267084   3.890   2.534  14.208 -0.9657  0.5550  0.0500
15198TIP3    H167085   3.939   2.487  14.141  0.1930  0.7317  0.7604
15198TIP3    H267086   3.886   2.624  14.177  1.5402  1.1458  1.2351
15199TIP3   OH267087   2.864   2.462   1.883  0.1393 -0.2899  0.3651
15199TIP3    H167088   2.863   2.552   1.916 -0.2124  0.8111 -2.3432
15199TIP3    H267089   2.772   2.437   1.878  0.1229 -0.0704 -0.6166
15200TIP3   OH267090   1.825   3.535   4.697 -0.3650 -0.2651 -0.1985
15200TIP3    H167091   1.866   3.577   4.621  0.2115 -1.8955 -0.8323
15200TIP3    H267092   1.755   3.481   4.659 -0.3630 -0.7459  0.4623
15201TIP3   OH267093   3.942   6.207   2.828  0.2911  0.0859 -0.1462
15201TIP3    H167094   4.015   6.253   2.868  1.2964 -2.0034  0.5581
15201TIP3    H267095   3.902   6.157   2.899  0.6658 -1.8784 -1.2398
15202TIP3   OH267096   0.137   6.075  11.645  0.4376 -0.0879 -0.4149
15202TIP3    H167097   0.069   6.104  11.585 -1.8837 -0.8690  1.6585
15202TIP3    H267098   0.200   6.029  11.590 -0.0329  1.7577 -2.5959
15203TIP3   OH267099   3.331   0.592   5.380 -0.2434  0.2215 -0.3219
15203TIP3    H167100   3.375   0.589   5.296 -1.7349  0.8326 -1.1641
15203TIP3    H267101   3.325   0.685   5.402  1.9068  0.0162  1.4845
15204TIP3   OH267102   5.204   3.415   5.088 -0.0831 -0.5859 -0.1623
15204TIP3    H167103   5.117   3.417   5.128  1.2947 -1.6415  3.2322
15204TIP3    H267104   5.193   3.365   5.007 -2.4635 -1.4393  0.6211
15205TIP3   OH267105   0.774   3.554   5.076  0.1894  0.4760  0.3286
15205TIP3    H167106   0.758   3.471   5.122 -0.1888  0.8524  0.8886
15205TIP3    H267107   0.786   3.618   5.146  1.9904  0.6273 -0.0772
15206TIP3   OH267108   6.721   3.447  12.611 -0.1822  0.4704  0.2705
15206TIP3    H167109   6.779   3.380  12.648  0.8575  1.0313 -0.2945
15206TIP3    H267110   6.780   3.517  12.584 -1.2534  1.6740  0.9529
15207TIP3   OH267111   2.701   0.225  15.176 -0.2302  0.2601  0.3126
15207TIP3    H167112   2.780   0.221  15.231  1.9330  1.0374 -2.4817
15207TIP3    H267113   2.657   0.305  15.204  0.7362  0.5754  1.0200
15208TIP3   OH267114   2.315   0.970  13.247 -0.0779  0.5494 -0.2475
15208TIP3    H167115   2.333   1.061  13.225 -0.4553  0.9036  0.8616
15208TIP3    H267116   2.250   0.942  13.183 -0.0728  1.1040 -0.4980
15209TIP3   OH267117   4.102   1.535  15.676  0.4679  0.2833  0.4428
15209TIP3    H167118   4.141   1.448  15.669  1.8808  1.0568 -2.7797
15209TIP3    H267119   4.018   1.520  15.719  0.6798 -2.6579  0.0181
15210TIP3   OH267120   4.827   4.336  10.868  0.4674  0.3523  0.1181
15210TIP3    H167121   4.766   4.367  10.801 -1.8194  0.3054  2.0296
15210TIP3    H267122   4.895   4.403  10.871 -1.9332  2.9641  0.9963
15211TIP3   OH267123   2.012   6.017  15.082  0.0205  0.3022  0.6205
15211TIP3    H167124   2.075   6.047  15.148  2.0108 -0.5148 -0.7972
15211TIP3    H267125   2.059   6.024  14.999 -2.2334  0.8533 -0.6945
15212TIP3   OH267126   4.826   4.605  11.041  0.1530 -0.2015  0.0864
15212TIP3    H167127   4.814   4.629  10.949  2.0916  0.8540  0.0493
15212TIP3    H267128   4.918   4.578  11.047  0.2990  0.5300  1.8519
15213TIP3   OH267129   6.186   4.537   6.012 -0.0019  0.7495 -0.5151
15213TIP3    H167130   6.109   4.586   5.984 -2.0845 -2.8310 -1.6890
15213TIP3    H267131   6.236   4.524   5.932 -1.3218 -1.8851 -1.0015
15214TIP3   OH267132   0.640   4.102   4.230 -0.3672 -0.1669 -0.1605
15214TIP3    H167133   0.603   4.014   4.223  2.0295 -1.2829  0.1624
15214TIP3    H267134   0.725   4.089   4.272  0.0259  2.3283 -0.0326
15215TIP3   OH267135   2.780   3.078  12.734 -0.1883 -0.2146 -0.0342
15215TIP3    H167136   2.865   3.102  12.697 -0.0464  1.2519  1.1521
15215TIP3    H267137   2.719   3.083  12.660  0.7021 -1.0514 -0.8424
15216TIP3   OH267138   6.276   0.807  16.638  0.7237  0.0164 -0.1947
15216TIP3    H167139   6.352   0.791  16.582  0.7089  0.6717 -0.4051
15216TIP3    H267140   6.303   0.877  16.697  0.3668  0.0861 -0.1087
15217TIP3   OH267141   2.498   0.369   2.284  0.1184  0.8129  0.2895
15217TIP3    H167142   2.558   0.301   2.316  0.2756  1.3118  1.0829
15217TIP3    H267143   2.474   0.340   2.195 -0.3310 -0.6079  0.8468
15218TIP3   OH267144   2.728   4.392  14.879 -0.6055 -0.5046 -0.2841
15218TIP3    H167145   2.701   4.401  14.787  1.1755 -0.7294 -0.8725
15218TIP3    H267146   2.706   4.476  14.918  1.4682  0.8258 -1.7514
15219TIP3   OH267147   5.653   1.748   3.652  0.0207  0.6214  0.2654
15219TIP3    H167148   5.700   1.733   3.733  0.4016  0.0949 -0.0425
15219TIP3    H267149   5.572   1.793   3.678 -0.8770 -1.3968  1.1930
15220TIP3   OH267150   2.843   0.337  13.792 -0.1450  0.4740  0.2227
15220TIP3    H167151   2.756   0.362  13.763  0.7431  3.6340 -0.1726
15220TIP3    H267152   2.829   0.288  13.873 -2.3275 -1.8129 -1.4168
15221TIP3   OH267153   5.387   3.141  13.974  0.4217  0.4740 -0.2042
15221TIP3    H167154   5.359   3.050  13.983 -0.1810  0.7271  0.6235
15221TIP3    H267155   5.468   3.146  14.024  0.4808  0.3905 -0.2894
15222TIP3   OH267156   0.400   5.388   3.444  0.2375 -0.4450  0.1129
15222TIP3    H167157   0.308   5.384   3.418  0.2888 -1.7851  0.0854
15222TIP3    H267158   0.449   5.363   3.366  0.7653  2.0184 -0.4291
15223TIP3   OH267159   0.778   6.214   3.250  0.6182 -0.2192 -0.1902
15223TIP3    H167160   0.804   6.134   3.295  0.6331  0.2052  0.5850
15223TIP3    H267161   0.797   6.284   3.313 -2.7466  0.1360  0.6503
15224TIP3   OH267162   5.527   3.970  14.075 -0.1288 -0.1965  0.3310
15224TIP3    H167163   5.500   3.911  14.145 -0.3887 -0.8688 -0.3172
15224TIP3    H267164   5.602   4.017  14.111  0.6875 -1.6005  0.5398
15225TIP3   OH267165   6.029   3.230  13.624 -0.5061  0.1150  0.1768
15225TIP3    H167166   5.941   3.192  13.635 -0.6209 -0.5771 -2.4472
15225TIP3    H267167   6.014   3.324  13.625 -0.8006  0.1100  2.7039
15226TIP3   OH267168   3.297   4.060  10.953 -0.2568 -0.5018  0.0168
15226TIP3    H167169   3.264   4.024  11.035 -0.9886  0.9729  0.4058
15226TIP3    H267170   3.230   4.038  10.888 -0.7843  0.2817  0.2872
15227TIP3   OH267171   1.146   2.608  14.853 -0.0661 -0.2276  0.0932
15227TIP3    H167172   1.067   2.661  14.854 -1.6655 -2.4332  2.4927
15227TIP3    H267173   1.115   2.520  14.829  1.7149 -1.0735  0.7535
15228TIP3   OH267174   6.155   2.839  16.797 -0.2892 -0.2372 -0.1534
15228TIP3    H167175   6.119   2.863  16.712 -1.9783  0.2698  0.6599
15228TIP3    H267176   6.237   2.793  16.777 -0.4235  0.2713 -2.0117
15229TIP3   OH267177   5.429   0.602   6.314 -0.3188 -0.1837  0.2466
15229TIP3    H167178   5.402   0.691   6.290  1.1069 -0.0294 -0.9260
15229TIP3    H267179   5.487   0.575   6.243 -0.2656 -1.8356  0.8880
15230TIP3   OH267180   5.010   3.085  16.455 -0.4248 -0.0226 -0.0623
15230TIP3    H167181   5.088   3.125  16.494  0.0757 -1.0169  0.0016
15230TIP3    H267182   5.023   3.096  16.361  1.0643 -2.2985 -0.2221
15231TIP3   OH267183   0.276   1.436   2.605 -0.6886  0.5504  0.2330
15231TIP3    H167184   0.182   1.452   2.604 -0.6835  0.6768  1.1587
15231TIP3    H267185   0.311   1.497   2.540 -1.2430  0.4289 -0.1954
15232TIP3   OH267186   0.487   1.938  12.282 -0.2589 -0.9875  0.5562
15232TIP3    H167187   0.393   1.927  12.295 -0.4374  0.6569  0.8653
15232TIP3    H267188   0.510   2.017  12.332  1.2660 -1.3023  0.4135
15233TIP3   OH267189   5.610   0.830  10.959  0.2317  0.0534 -0.5339
15233TIP3    H167190   5.615   0.772  10.883 -1.6577  0.3072 -0.9206
15233TIP3    H267191   5.692   0.817  11.005  1.3225 -0.3232 -2.4700
15234TIP3   OH267192   0.786   5.756   0.256 -0.1560  0.0127  0.0759
15234TIP3    H167193   0.744   5.708   0.184  0.2233  1.5088 -1.2037
15234TIP3    H267194   0.721   5.756   0.326 -0.5974 -1.3524 -0.2863
15235TIP3   OH267195   1.510   6.516   1.218  0.0201 -0.1844  0.2295
15235TIP3    H167196   1.557   6.557   1.290  0.3959 -2.6181  1.5019
15235TIP3    H267197   1.566   6.443   1.192 -1.7230 -1.4829 -0.1081
15236TIP3   OH267198   1.849   2.497   2.746 -0.0855  0.3364  0.0989
15236TIP3    H167199   1.779   2.441   2.713  0.1300  0.9596 -1.4648
15236TIP3    H267200   1.911   2.435   2.786 -1.2805 -0.2566  1.1088
15237TIP3   OH267201   4.565   3.275  17.120  0.1517  0.0462  0.1160
15237TIP3    H167202   4.555   3.253  17.028  1.0313  0.3635 -0.0606
15237TIP3    H267203   4.506   3.215  17.166 -3.1839  2.2515 -0.9007
15238TIP3   OH267204   4.642   0.312   3.558  0.5426 -0.4418 -0.3039
15238TIP3    H167205   4.709   0.365   3.602  1.8140 -1.2429 -1.2168
15238TIP3    H267206   4.670   0.308   3.467 -0.6964 -0.9124 -0.6898
15239TIP3   OH267207   1.200   4.248   6.480 -0.6193  0.0251 -0.0435
15239TIP3    H167208   1.175   4.160   6.507  0.6768 -0.3911 -0.1295
15239TIP3    H267209   1.205   4.298   6.561 -0.9574 -0.0907  0.0487
15240TIP3   OH267210   4.218   0.011   0.516 -0.0044 -0.1253  0.4612
15240TIP3    H167211   4.276   0.087   0.527 -0.2406 -0.1029  1.7627
15240TIP3    H267212   4.161   0.014   0.593 -1.1922 -0.6157 -0.3730
15241TIP3   OH267213   0.358   5.966   1.794  0.4117 -0.1620  0.0761
15241TIP3    H167214   0.281   5.927   1.837 -0.0631  0.2109 -0.4216
15241TIP3    H267215   0.353   6.059   1.817  0.9725 -0.2147  0.4176
15242TIP3   OH267216   6.115   0.398  13.640 -0.0928  0.0357 -0.0940
15242TIP3    H167217   6.184   0.430  13.581  0.6308 -2.3289 -0.6293
15242TIP3    H267218   6.061   0.341  13.586 -0.3283 -0.9810  1.1727
15243TIP3   OH267219   2.565   3.895  12.678  0.0074 -0.4273 -0.0784
15243TIP3    H167220   2.620   3.973  12.676 -1.6082  0.8850  1.9125
15243TIP3    H267221   2.578   3.858  12.765 -2.1551 -0.0971  0.4396
15244TIP3   OH267222   5.056   6.279   0.287  0.3718  0.2806 -0.0742
15244TIP3    H167223   5.069   6.373   0.270  2.0759  0.2689  0.9759
15244TIP3    H267224   4.996   6.277   0.362 -0.0743  0.5102 -0.4191
15245TIP3   OH267225   6.640   4.880  13.583  0.8128  0.0675 -0.4090
15245TIP3    H167226   6.695   4.823  13.636  0.1562  0.3407  0.5963
15245TIP3    H267227   6.620   4.954  13.640 -2.2555 -0.9638  0.0293
15246TIP3   OH267228   3.179   5.528  14.633 -0.6148 -0.2384 -0.5779
15246TIP3    H167229   3.141   5.447  14.667 -0.1605 -0.0099  0.5465
15246TIP3    H267230   3.263   5.502  14.596  0.8154  0.0234  2.2164
15247TIP3   OH267231   6.244   3.784  13.998  0.2593  0.1935  0.2847
15247TIP3    H167232   6.268   3.857  13.941  1.6950 -0.9423 -0.6348
15247TIP3    H267233   6.318   3.774  14.057  0.7932 -1.4273 -0.5809
15248TIP3   OH267234   5.510   6.205  16.687 -0.3903 -0.6504  0.4961
15248TIP3    H167235   5.435   6.187  16.630 -0.1443 -0.6496  0.1724
15248TIP3    H267236   5.564   6.127  16.682  0.6813  0.1315 -0.9170
15249TIP3   OH267237   3.165   2.266  16.147  0.2255  0.0498  0.0100
15249TIP3    H167238   3.130   2.179  16.168  2.1897 -0.7222  0.3031
15249TIP3    H267239   3.227   2.250  16.076  0.8719  1.1777  0.3075
15250TIP3   OH267240   1.204   3.670  15.986 -0.7616  0.0222  0.0939
15250TIP3    H167241   1.290   3.688  15.947 -0.8822  0.5299  0.0507
15250TIP3    H267242   1.206   3.577  16.005 -0.3668 -0.0628 -0.3257
15251TIP3   OH267243   3.720   2.784   1.073  0.3146  0.1292 -0.4697
15251TIP3    H167244   3.681   2.697   1.061  0.1653  0.1622 -0.2153
15251TIP3    H267245   3.786   2.771   1.141  1.2167 -0.0729 -1.3554
15252TIP3   OH267246   0.940   3.619   5.668 -0.8905  0.0269 -0.2561
15252TIP3    H167247   0.892   3.608   5.586 -2.2914 -2.9247  0.8092
15252TIP3    H267248   1.027   3.648   5.640 -1.0119 -1.7262 -2.9018
15253TIP3   OH267249   1.268   0.383   0.270 -0.3709 -0.1336  0.4050
15253TIP3    H167250   1.253   0.374   0.364  1.0621 -0.4061  0.6295
15253TIP3    H267251   1.320   0.463   0.262  1.5905 -1.3759  0.1147
15254TIP3   OH267252   2.517   4.173  14.882  0.0530  0.5714 -0.4748
15254TIP3    H167253   2.509   4.138  14.793  3.0759 -1.5058 -0.0611
15254TIP3    H267254   2.604   4.213  14.884  0.6163 -0.6200  1.8685
15255TIP3   OH267255   3.054   3.877   3.467 -0.2307 -0.3262 -0.3011
15255TIP3    H167256   3.003   3.957   3.470  0.4860  0.2538 -2.3092
15255TIP3    H267257   3.083   3.869   3.376  3.4453 -0.4856  0.7182
15256TIP3   OH267258   5.490   6.520   3.646  0.0272 -0.4265 -0.2657
15256TIP3    H167259   5.571   6.483   3.613  0.0966  0.3040 -0.9734
15256TIP3    H267260   5.509   6.545   3.736 -0.1382 -2.3954  0.3635
15257TIP3   OH267261   3.540   0.320  16.901  0.1819 -0.1482  1.0867
15257TIP3    H167262   3.544   0.341  16.808 -0.2403 -0.6669  0.9459
15257TIP3    H267263   3.491   0.238  16.905  0.2290 -0.1499  1.7645
15258TIP3   OH267264   3.423   5.431  14.521  0.0611 -1.0371  0.0763
15258TIP3    H167265   3.506   5.419  14.566 -0.1023 -1.1055  0.3687
15258TIP3    H267266   3.446   5.463  14.434  0.3017  1.3058  0.9358
15259TIP3   OH267267   4.846   3.376   3.772  0.2877 -0.1481  0.5492
15259TIP3    H167268   4.897   3.409   3.847  1.2613 -0.6213  0.1192
15259TIP3    H267269   4.897   3.403   3.696 -1.3113  1.3797 -0.0294
15260TIP3   OH267270   0.187   3.230   2.239  0.5922  0.1260  0.2356
15260TIP3    H167271   0.212   3.180   2.316  0.7341  0.5912  0.4981
15260TIP3    H267272   0.190   3.168   2.167 -1.1339 -0.7423  0.8438
15261TIP3   OH267273   4.056   3.316   5.107  0.4185  0.3061  0.6170
15261TIP3    H167274   4.147   3.317   5.138  0.1458  0.9602  1.4166
15261TIP3    H267275   4.004   3.341   5.184 -0.4361  0.0127  0.1470
15262TIP3   OH267276   2.582   4.576  10.586  0.0066 -0.1951  0.4514
15262TIP3    H167277   2.662   4.586  10.534  1.0950 -1.0419  1.8984
15262TIP3    H267278   2.530   4.511  10.539  0.0607  0.4703 -0.5770
15263TIP3   OH267279   6.081   4.236   2.118 -0.1373 -0.3063 -0.4088
15263TIP3    H167280   6.023   4.165   2.091  0.0996 -1.0576  0.9828
15263TIP3    H267281   6.021   4.304   2.149 -0.4990  1.0603 -3.6271
15264TIP3   OH267282   6.635   3.639  15.643  0.1926 -0.7342  0.0903
15264TIP3    H167283   6.713   3.625  15.696  1.6774 -1.7615 -2.2170
15264TIP3    H267284   6.607   3.551  15.618 -1.1451 -0.3291  0.0948
15265TIP3   OH267285   6.326   1.274   2.844 -0.0948 -0.6153  0.0448
15265TIP3    H167286   6.406   1.250   2.890 -0.9315 -2.7086  0.5259
15265TIP3    H267287   6.329   1.224   2.763  0.6233  1.8568 -1.5735
15266TIP3   OH267288   0.205   2.196   1.385 -0.2563 -0.0975 -0.2281
15266TIP3    H167289   0.125   2.162   1.424 -1.4472 -0.4829 -2.7833
15266TIP3    H267290   0.192   2.291   1.385 -0.5319 -0.1333 -0.2677
15267TIP3   OH267291   2.932   1.504   0.645 -0.0274 -0.1101  0.2580
15267TIP3    H167292   2.883   1.586   0.642 -0.2623 -0.2643 -2.2234
15267TIP3    H267293   3.004   1.518   0.584 -1.1310 -2.3465 -1.6674
15268TIP3   OH267294   5.871   3.660  11.859  0.3863  1.0279 -0.7810
15268TIP3    H167295   5.783   3.645  11.823 -0.7249  1.6565  1.4607
15268TIP3    H267296   5.907   3.572  11.871 -1.1259  0.5596  0.8690
15269TIP3   OH267297   4.091   5.744   0.013 -0.2746 -0.0038 -0.2513
15269TIP3    H167298   4.133   5.829   0.022 -1.3486  0.4707  0.4480
15269TIP3    H267299   4.109   5.717  -0.077  0.9170  0.4915 -0.1780
15270TIP3   OH267300   5.290   6.573  11.542  0.6209 -0.2838  0.6777
15270TIP3    H167301   5.207   6.588  11.587  1.5398 -1.2262  2.8197
15270TIP3    H267302   5.354   6.624  11.590  1.3654  0.2789 -0.8305
15271TIP3   OH267303   6.275   3.294  13.455  0.2461 -0.3355  0.1419
15271TIP3    H167304   6.283   3.234  13.380 -2.6832 -1.5497  0.6652
15271TIP3    H267305   6.214   3.361  13.426  0.8717  0.5052  0.7247
15272TIP3   OH267306   1.926   3.337   0.348 -0.6729 -0.1900 -0.1538
15272TIP3    H167307   1.920   3.342   0.253  0.6737 -0.8811 -0.2995
15272TIP3    H267308   1.857   3.275   0.373 -1.7928  0.8539 -0.5421
15273TIP3   OH267309   0.157   3.118  12.318 -0.1637  0.2282 -0.5677
15273TIP3    H167310   0.209   3.045  12.354  0.5831  0.5662 -0.9359
15273TIP3    H267311   0.146   3.096  12.226 -0.4717  0.2832 -0.5450
15274TIP3   OH267312   4.809   6.229  14.908  0.3942 -0.0389  0.0494
15274TIP3    H167313   4.837   6.156  14.963  2.1505 -1.0922 -2.0657
15274TIP3    H267314   4.875   6.297  14.922 -1.0940  1.1195  1.8154
15275TIP3   OH267315   0.075   2.001  11.586 -0.6841 -0.1580  0.0407
15275TIP3    H167316  -0.017   2.007  11.610 -0.3156  0.1288  1.4788
15275TIP3    H267317   0.108   2.091  11.594 -0.6739  0.1032 -2.2955
15276TIP3   OH267318   4.970   1.292   3.562 -0.5919  0.0428 -0.1331
15276TIP3    H167319   5.060   1.301   3.596 -0.0972 -0.4961 -1.2733
15276TIP3    H267320   4.974   1.219   3.501 -2.0139 -0.5326  0.4221
15277TIP3   OH267321   1.878   2.386  13.186 -0.1041 -1.1928 -0.7884
15277TIP3    H167322   1.806   2.447  13.199 -1.5541 -2.5158 -2.1779
15277TIP3    H267323   1.904   2.360  13.275  1.9135  2.7985 -0.0020
15278TIP3   OH267324   3.224   4.761  16.827 -0.0611  0.6465 -0.0675
15278TIP3    H167325   3.173   4.728  16.753 -0.6547  1.1633  0.0970
15278TIP3    H267326   3.190   4.850  16.841 -0.4521  0.3154  1.2498
15279TIP3   OH267327   3.988   5.869  16.144 -0.3788 -0.7324 -0.3610
15279TIP3    H167328   3.934   5.799  16.181 -1.3572  1.1730  2.1051
15279TIP3    H267329   3.938   5.949  16.158  1.5663  0.7295 -1.1926
15280TIP3   OH267330   2.503   1.969  13.086  0.2564  0.2795 -0.4121
15280TIP3    H167331   2.536   1.975  13.176  4.0129 -0.1660 -1.5526
15280TIP3    H267332   2.432   2.032  13.082 -0.8850 -0.5304  3.1262
15281TIP3   OH267333   3.064   3.284  12.958  0.1896  0.3240  0.9433
15281TIP3    H167334   3.045   3.374  12.983 -0.3080  0.4560  0.1327
15281TIP3    H267335   3.011   3.269  12.880  1.2476 -0.2358  0.2980
15282TIP3   OH267336   1.805   1.722  11.250  0.0930  0.5360  0.5420
15282TIP3    H167337   1.866   1.754  11.316  1.2157  1.2647 -0.7937
15282TIP3    H267338   1.860   1.705  11.173 -1.0968 -0.7495 -0.0739
15283TIP3   OH267339   0.697   2.368  12.296 -0.3874 -0.4078  0.0075
15283TIP3    H167340   0.744   2.396  12.374 -0.6361  1.1454 -0.3663
15283TIP3    H267341   0.726   2.428  12.228 -0.2752 -1.6532 -1.0777
15284TIP3   OH267342   2.474   5.588  12.650  0.1075  0.3235 -0.0596
15284TIP3    H167343   2.442   5.518  12.594 -0.9949  0.3535  0.5133
15284TIP3    H267344   2.535   5.637  12.594  0.1730 -0.5221 -0.7507
15285TIP3   OH267345   2.332   6.017  15.993  0.5015  0.5368 -0.8560
15285TIP3    H167346   2.328   5.956  16.066  0.2875  1.8889  0.3137
15285TIP3    H267347   2.425   6.035  15.980  0.5577  0.0602 -1.1328
15286TIP3   OH267348   3.141   3.831   2.904 -0.0860  1.1180 -0.2701
15286TIP3    H167349   3.197   3.884   2.847  0.5660  1.1841  0.4210
15286TIP3    H267350   3.072   3.798   2.846  1.3706 -0.0077 -1.4251
15287TIP3   OH267351   5.065   4.906   5.015 -0.0876  0.0958  0.4073
15287TIP3    H167352   5.020   4.834   5.059  0.8769 -2.0480 -1.9048
15287TIP3    H267353   5.157   4.895   5.038 -0.1471  2.0986  1.9211
15288TIP3   OH267354   5.940   1.356   3.187 -0.6419  0.5251 -0.1998
15288TIP3    H167355   5.925   1.392   3.274 -0.9640  0.9225 -0.4161
15288TIP3    H267356   5.897   1.271   3.188 -0.4699  0.4405  0.0931
15289TIP3   OH267357   1.494   0.285  10.332 -0.3449 -0.1150  0.3312
15289TIP3    H167358   1.412   0.331  10.315 -1.2715 -1.5127  0.8535
15289TIP3    H267359   1.510   0.298  10.426  0.9232  1.4951 -0.0548
15290TIP3   OH267360   0.733   6.437   1.589 -0.1662  0.0550  0.0737
15290TIP3    H167361   0.666   6.411   1.652 -0.7076 -1.0857 -0.9357
15290TIP3    H267362   0.816   6.412   1.630 -0.5161 -0.7237  0.3179
15291TIP3   OH267363   5.832   1.588   5.007 -0.3315 -0.2920 -0.3525
15291TIP3    H167364   5.927   1.573   5.003 -0.3706 -1.0583  1.0729
15291TIP3    H267365   5.800   1.558   4.922  0.8662  1.4443 -1.4968
15292TIP3   OH267366   5.300   6.177  12.097  0.7587 -0.5060 -0.6102
15292TIP3    H167367   5.392   6.200  12.108  0.5335 -0.1418  0.6454
15292TIP3    H267368   5.290   6.161  12.003  1.8092  0.6865 -0.9505
15293TIP3   OH267369   0.199   2.973  16.384 -0.2956 -0.4029  0.2912
15293TIP3    H167370   0.172   3.044  16.442  0.6030  0.2282 -0.0482
15293TIP3    H267371   0.293   2.985  16.373 -0.4249 -0.5730 -1.1946
15294TIP3   OH267372   1.895   1.138  16.705 -0.3562  0.1830  0.1047
15294TIP3    H167373   1.911   1.228  16.735 -0.4359  0.4051 -0.4933
15294TIP3    H267374   1.872   1.148  16.612  1.7490 -0.6019 -0.5826
15295TIP3   OH267375   3.021   3.809   1.685 -0.6379  0.0210  0.2125
15295TIP3    H167376   3.048   3.900   1.702 -1.5017 -0.0256  2.0802
15295TIP3    H267377   3.004   3.807   1.591  0.3895  1.5182 -0.0549
15296TIP3   OH267378   3.019   6.245  12.623  0.3524 -0.1103 -0.1697
15296TIP3    H167379   2.978   6.322  12.662 -0.4828  1.0175 -3.0151
15296TIP3    H267380   2.955   6.214  12.560  0.9335 -2.8367  0.4684
15297TIP3   OH267381   5.622   0.629  12.214  0.0924 -0.2724  0.2821
15297TIP3    H167382   5.550   0.679  12.252 -0.7583 -0.6470 -0.8017
15297TIP3    H267383   5.608   0.539  12.245 -0.2167 -0.4481 -0.3545
15298TIP3   OH267384   2.504   2.175  15.187  0.0040  0.3781 -0.0845
15298TIP3    H167385   2.510   2.081  15.204  0.4995  0.5494  0.7624
15298TIP3    H267386   2.436   2.206  15.246  1.0706  0.8226  0.9680
15299TIP3   OH267387   6.689   3.689  14.081  0.1750  0.1197 -0.2171
15299TIP3    H167388   6.669   3.779  14.056 -0.9897  0.5627  2.0233
15299TIP3    H267389   6.772   3.695  14.128  2.0772 -0.6249 -3.2075
15300TIP3   OH267390   5.575   2.868   0.240  0.0614 -0.0221  0.1455
15300TIP3    H167391   5.604   2.869   0.331 -0.5805  0.9422  0.3585
15300TIP3    H267392   5.502   2.806   0.239 -1.8597  2.0595  0.9742
15301TIP3   OH267393   5.239   5.405  14.858 -0.0018  0.0262 -0.3104
15301TIP3    H167394   5.194   5.464  14.799  2.0670  0.1937 -1.8478
15301TIP3    H267395   5.202   5.319  14.839 -0.2831  0.2702 -0.8984
15302TIP3   OH267396   4.557   0.213  13.073  0.1876  0.6668 -0.2809
15302TIP3    H167397   4.612   0.136  13.061  1.4668  1.6270 -0.7313
15302TIP3    H267398   4.506   0.194  13.152 -0.0091 -0.9086 -0.7525
15303TIP3   OH267399   0.433   2.068   5.503 -0.8031  0.2652  0.4036
15303TIP3    H167400   0.449   2.127   5.429  1.6711 -0.5533  0.1847
15303TIP3    H267401   0.405   1.986   5.462 -0.2912  0.0759  0.4306
15304TIP3   OH267402   3.473   1.586  14.089  0.3161 -0.5818  0.1496
15304TIP3    H167403   3.447   1.641  14.015  0.3854 -0.9172 -0.1271
15304TIP3    H267404   3.567   1.600  14.098  0.5931 -1.6824 -0.7924
15305TIP3   OH267405   1.400   5.103  11.730 -0.9514 -0.2117 -0.0743
15305TIP3    H167406   1.465   5.164  11.695 -0.4802  0.0880  1.2616
15305TIP3    H267407   1.318   5.132  11.691 -0.8264  1.6350  0.8808
15306TIP3   OH267408   4.803   0.969  12.835 -0.0821  0.2987  0.2101
15306TIP3    H167409   4.761   0.885  12.853  1.2447 -0.1306  1.5018
15306TIP3    H267410   4.895   0.946  12.818  0.2679  1.4734  0.4527
15307TIP3   OH267411   1.238   2.922   2.421  0.1301  0.2850 -0.3958
15307TIP3    H167412   1.285   2.991   2.375  2.4859 -0.4896  0.6787
15307TIP3    H267413   1.293   2.901   2.496 -1.2688 -1.6874  0.1763
15308TIP3   OH267414   4.874   5.383  13.032 -0.5282  0.0555 -0.3591
15308TIP3    H167415   4.890   5.306  12.978 -1.7621  0.2316 -1.0044
15308TIP3    H267416   4.856   5.348  13.119 -0.1779 -0.3232 -0.4347
15309TIP3   OH267417   0.660   2.911   4.497 -0.2224 -0.2509 -0.2624
15309TIP3    H167418   0.722   2.839   4.487 -2.0054 -1.8237 -0.5193
15309TIP3    H267419   0.679   2.969   4.423 -1.0876 -2.3548 -2.2664
15310TIP3   OH267420   0.008   3.471  16.063 -0.0682 -0.1897 -0.4166
15310TIP3    H167421  -0.044   3.413  16.118  0.7280 -0.4252  0.1148
15310TIP3    H267422   0.025   3.421  15.984 -0.8488 -0.0176 -0.6937
15311TIP3   OH267423   6.246   1.198   5.811  0.0323  0.0750  0.1991
15311TIP3    H167424   6.308   1.182   5.882 -1.6131 -0.8236  1.4776
15311TIP3    H267425   6.190   1.268   5.843  1.3583  2.1352 -1.6508
15312TIP3   OH267426   1.476   5.790  15.948  0.3313 -0.4927  0.1710
15312TIP3    H167427   1.443   5.716  15.897  2.3906  0.4984 -2.9120
15312TIP3    H267428   1.402   5.851  15.950  0.6155  0.2258 -3.5305
15313TIP3   OH267429   4.793   1.863   1.945  0.1602 -0.1983 -0.0849
15313TIP3    H167430   4.887   1.870   1.959 -0.1993  2.4322  1.7430
15313TIP3    H267431   4.762   1.802   2.012  0.3850  0.0840  0.2762
15314TIP3   OH267432   0.808   1.962  11.548  0.3941  0.2075  0.0049
15314TIP3    H167433   0.781   2.017  11.475  1.4916  1.4863  0.5134
15314TIP3    H267434   0.807   2.021  11.624  1.7136 -0.4121  0.5394
15315TIP3   OH267435   6.346   0.528  14.147  0.4247  0.1311  0.2285
15315TIP3    H167436   6.331   0.487  14.232  0.0704 -1.4489 -0.5566
15315TIP3    H267437   6.313   0.617  14.157  1.2307  0.2709  2.0082
15316TIP3   OH267438   1.884   5.277   0.113 -0.6319  0.3536 -0.1188
15316TIP3    H167439   1.852   5.186   0.116 -0.5098  0.3069 -0.2542
15316TIP3    H267440   1.968   5.274   0.159 -0.4765  0.3361 -0.4029
15317TIP3   OH267441   0.714   4.183  15.321  0.1158  0.4703  0.0852
15317TIP3    H167442   0.689   4.149  15.235  1.2894 -0.2767  0.0223
15317TIP3    H267443   0.634   4.175  15.374 -0.1731 -0.5711 -0.4851
15318TIP3   OH267444   5.171   5.931   5.505  0.0157  0.0667  0.5427
15318TIP3    H167445   5.169   5.865   5.436 -0.4672 -0.7030  1.2735
15318TIP3    H267446   5.093   5.913   5.558 -0.7546  1.9257  0.1322
15319TIP3   OH267447   2.031   0.274   0.382  0.0307  0.1532  0.3727
15319TIP3    H167448   1.972   0.331   0.332  0.3543  0.3770  0.2429
15319TIP3    H267449   1.976   0.239   0.452 -0.1310  0.7832  0.5753
15320TIP3   OH267450   6.155   0.360  16.948  0.2022 -0.0714 -0.6656
15320TIP3    H167451   6.070   0.319  16.932 -0.6518  0.1781  2.4927
15320TIP3    H267452   6.168   0.352  17.043  3.8768 -0.3506 -1.0505
15321TIP3   OH267453   1.654   2.526  11.581 -0.1052 -0.5431 -0.1760
15321TIP3    H167454   1.742   2.549  11.610  0.7675 -0.9461 -2.3217
15321TIP3    H267455   1.667   2.455  11.518 -1.7376  0.9385 -2.3065
15322TIP3   OH267456   4.753   3.138   1.033  0.8247 -0.0811 -0.1811
15322TIP3    H167457   4.826   3.082   1.059  2.0625  1.3153 -0.4979
15322TIP3    H267458   4.738   3.195   1.109 -0.2670 -0.6826  0.0598
15323TIP3   OH267459   0.109   1.119  11.016  0.3524 -0.1488  0.1048
15323TIP3    H167460   0.065   1.052  10.964  0.3711  0.0057 -0.1145
15323TIP3    H267461   0.137   1.184  10.951  0.1559  0.1696  0.3368
15324TIP3   OH267462   2.361   0.360   4.893  0.1688  0.3175 -0.3974
15324TIP3    H167463   2.359   0.359   4.989 -0.2711 -0.1183 -0.4056
15324TIP3    H267464   2.339   0.451   4.869 -1.8679 -0.0455 -0.1050
15325TIP3   OH267465   2.498   6.634   3.766 -0.1189  0.1339  0.1022
15325TIP3    H167466   2.464   6.594   3.686  1.1441  1.2355 -1.0595
15325TIP3    H267467   2.474   6.574   3.836  0.1906 -1.7381 -1.3180
15326TIP3   OH267468   5.363   4.590   4.327 -0.4232 -0.5083  0.1656
15326TIP3    H167469   5.348   4.646   4.403  0.2684 -0.4357  0.2546
15326TIP3    H267470   5.452   4.557   4.338 -0.9008 -1.8257  0.2317
15327TIP3   OH267471   0.844   0.220   3.229  0.2552 -0.1803  0.7043
15327TIP3    H167472   0.887   0.174   3.302  2.7685  0.5727 -0.2153
15327TIP3    H267473   0.828   0.308   3.263  1.5475  0.2110  0.3611
15328TIP3   OH267474   5.978   3.292  17.059  0.1324  0.4475 -0.4075
15328TIP3    H167475   5.981   3.381  17.023  1.7658  1.4805  2.0106
15328TIP3    H267476   6.053   3.248  17.019 -0.2406  0.3668 -1.0375
15329TIP3   OH267477   2.462   1.787  11.944  0.0506  0.2661  0.5162
15329TIP3    H167478   2.394   1.767  11.880 -1.4791 -2.1313  2.6938
15329TIP3    H267479   2.424   1.858  11.997  0.5339  0.9704 -0.0667
15330TIP3   OH267480   2.703   1.530   6.274  0.2359  0.0312  1.1523
15330TIP3    H167481   2.649   1.609   6.281 -0.5265 -0.3622 -0.1172
15330TIP3    H267482   2.649   1.467   6.227  1.6602 -0.5015  0.1524
15331TIP3   OH267483   5.046   1.512   0.226  0.6925 -0.2294 -0.1217
15331TIP3    H167484   5.035   1.509   0.131  0.9241 -0.8136 -0.1344
15331TIP3    H267485   5.139   1.530   0.239  1.0614 -2.0668 -0.0143
15332TIP3   OH267486   1.419   3.871   2.532 -0.3241 -0.2878 -0.3984
15332TIP3    H167487   1.396   3.822   2.611 -0.0510 -0.7150 -0.5812
15332TIP3    H267488   1.351   3.937   2.524  1.3568  1.9714  2.0514
15333TIP3   OH267489   0.851   4.943   1.891  0.2698  0.5008  0.0528
15333TIP3    H167490   0.828   5.013   1.952 -1.2658 -0.0261  0.1190
15333TIP3    H267491   0.915   4.983   1.832  2.6990  0.7025  2.6160
15334TIP3   OH267492   2.448   4.624  13.799 -0.5852 -0.3735  0.2051
15334TIP3    H167493   2.477   4.677  13.872 -1.3373  2.2709 -1.2856
15334TIP3    H267494   2.352   4.631  13.801 -0.6342 -0.6189 -0.7863
15335TIP3   OH267495   4.067   0.667   5.321 -0.1526  0.4192 -0.4028
15335TIP3    H167496   4.080   0.713   5.238  1.6908  0.2130 -0.2783
15335TIP3    H267497   4.137   0.699   5.378 -1.4489  0.6538  1.1520
15336TIP3   OH267498   4.065   0.060  13.796  0.0265  0.6971  0.6518
15336TIP3    H167499   4.027   0.087  13.880  1.5753  4.3254  0.3915
15336TIP3    H267500   4.159   0.057  13.812  0.2169 -0.3228 -0.5479
15337TIP3   OH267501   3.750   6.729   1.778  0.7762  0.2941 -0.3752
15337TIP3    H167502   3.735   6.635   1.787  0.4353  0.4684  1.2405
15337TIP3    H267503   3.666   6.764   1.748 -0.4113  0.5259  2.8860
15338TIP3   OH267504   3.148   1.718  12.436  0.2782  0.0801  0.0471
15338TIP3    H167505   3.082   1.650  12.447  0.6750 -0.2423  0.4636
15338TIP3    H267506   3.215   1.698  12.502  0.6980  0.5135 -0.2397
15339TIP3   OH267507   0.943   0.830  15.150 -0.3633 -0.4354 -0.1834
15339TIP3    H167508   0.931   0.744  15.191 -0.5516  0.2000  1.1418
15339TIP3    H267509   0.920   0.816  15.058  0.0939 -1.9116 -0.0983
15340TIP3   OH267510   6.674   3.118  11.166  0.3951  0.0013  0.0992
15340TIP3    H167511   6.617   3.044  11.183 -0.8705  1.1819  1.2417
15340TIP3    H267512   6.737   3.086  11.102  1.7613 -2.9764  2.6749
15341TIP3   OH267513   2.167   2.213  11.787  0.0791  0.1728  0.0516
15341TIP3    H167514   2.250   2.166  11.798 -1.7337 -2.7290  4.2772
15341TIP3    H267515   2.127   2.173  11.710  0.5990 -2.0418  0.8482
15342TIP3   OH267516   2.204   1.709   4.124 -0.4829 -0.2723  0.1445
15342TIP3    H167517   2.213   1.637   4.186 -2.1527 -0.7049 -0.0529
15342TIP3    H267518   2.112   1.705   4.096  0.2060 -0.0528 -2.3300
15343TIP3   OH267519   1.655   2.606  13.908 -0.1678  0.2355  0.6230
15343TIP3    H167520   1.606   2.524  13.910  0.1049  0.0403 -0.2401
15343TIP3    H267521   1.643   2.643  13.995 -3.5749  1.2408 -0.1642
15344TIP3   OH267522   3.317   0.263  12.154  0.2399 -0.3267  0.0846
15344TIP3    H167523   3.380   0.288  12.222  0.6938 -1.1621 -0.0133
15344TIP3    H267524   3.234   0.302  12.183  0.1168 -1.7232  1.8074
15345TIP3   OH267525   2.678   5.947   2.100  0.5959 -0.1215  0.2294
15345TIP3    H167526   2.751   5.985   2.149 -0.2412  0.9721  0.6801
15345TIP3    H267527   2.719   5.903   2.026  1.7951 -0.6390  1.1650
15346TIP3   OH267528   5.995   2.162  14.279  0.1168 -0.2155  0.5420
15346TIP3    H167529   6.016   2.242  14.328  0.6168 -0.1989  0.3041
15346TIP3    H267530   5.912   2.182  14.235  0.2328  0.1677  0.4934
15347TIP3   OH267531   6.673   4.819   1.731 -0.1737 -0.0309 -0.0505
15347TIP3    H167532   6.744   4.844   1.791 -1.3060  0.1270  1.2882
15347TIP3    H267533   6.714   4.759   1.669  0.6152 -2.1006  2.2889
15348TIP3   OH267534   1.201   6.507  12.740  0.3638  0.4315  0.4843
15348TIP3    H167535   1.250   6.476  12.664  0.2854  0.5158  0.4015
15348TIP3    H267536   1.110   6.507  12.713  0.4228  1.4353  0.2446
15349TIP3   OH267537   5.230   6.061  16.013  0.0860 -0.0264  0.1938
15349TIP3    H167538   5.165   6.102  15.956  0.3889  2.0342  1.2075
15349TIP3    H267539   5.182   5.993  16.059 -1.7281  2.0947  1.6566
15350TIP3   OH267540   0.053   3.273  10.885  0.5133  0.4970  0.4895
15350TIP3    H167541  -0.004   3.269  10.808 -0.6099  0.8041  1.2953
15350TIP3    H267542   0.094   3.360  10.880 -1.1193  1.3518  1.3090
15351TIP3   OH267543   4.022   2.289   3.774  0.2183 -0.5591  0.2926
15351TIP3    H167544   4.046   2.286   3.682  0.9111  0.3934  0.4176
15351TIP3    H267545   3.967   2.213   3.788  2.1835 -2.1765 -0.3147
15352TIP3   OH267546   0.662   2.302   5.769  0.2182  0.0401  0.5800
15352TIP3    H167547   0.681   2.297   5.676 -2.3810  0.3907 -0.0529
15352TIP3    H267548   0.706   2.382   5.798  0.9382 -0.0037 -0.3575
15353TIP3   OH267549   3.364   1.631  12.741  0.6266  0.2862  0.1362
15353TIP3    H167550   3.441   1.579  12.761 -0.8076 -0.7399  3.6780
15353TIP3    H267551   3.290   1.572  12.753 -0.8490  1.5220 -2.0488
15354TIP3   OH267552   4.263   2.375  12.272  0.2776  0.0373  0.9123
15354TIP3    H167553   4.205   2.366  12.347  1.5075 -0.1532  1.8720
15354TIP3    H267554   4.304   2.289  12.263  0.3863  0.1592  0.2310
15355TIP3   OH267555   0.508   1.387  10.497 -0.5337 -0.2839 -0.1153
15355TIP3    H167556   0.414   1.369  10.503 -0.1798 -1.8087  3.1242
15355TIP3    H267557   0.542   1.321  10.437 -1.4554  0.2326 -1.2557
15356TIP3   OH267558   1.546   1.112  14.642 -0.3684  0.4708 -0.6266
15356TIP3    H167559   1.457   1.089  14.617 -0.3138  0.1882 -0.5758
15356TIP3    H267560   1.582   1.030  14.676 -1.3682  1.4362  3.1845
15357TIP3   OH267561   4.967   6.547  16.255 -0.0438 -0.2916  0.1202
15357TIP3    H167562   4.917   6.582  16.328  0.7454  2.3116 -0.4624
15357TIP3    H267563   4.926   6.585  16.177  2.0582  1.0677 -0.4366
15358TIP3   OH267564   0.485   2.219   4.649  0.4484  0.5288 -0.0591
15358TIP3    H167565   0.574   2.199   4.678  0.5045  0.0858 -0.5199
15358TIP3    H267566   0.477   2.177   4.563 -1.1218 -1.8817  1.1403
15359TIP3   OH267567   3.023   2.576  13.811 -0.2625 -0.0475 -0.3243
15359TIP3    H167568   3.016   2.666  13.844 -0.3934 -0.6517  1.4116
15359TIP3    H267569   2.968   2.575  13.732  0.1562  1.5019 -0.6663
15360TIP3   OH267570   0.089   3.156   5.035 -0.5393 -0.2890 -0.8416
15360TIP3    H167571   0.121   3.094   4.969  0.1722  0.3201 -1.0844
15360TIP3    H267572   0.147   3.143   5.110 -0.3954  0.0754 -0.8898
15361TIP3   OH267573   1.849   2.886   0.385 -0.1369  0.1176 -0.3227
15361TIP3    H167574   1.839   2.852   0.474 -0.4530  0.1624 -0.3394
15361TIP3    H267575   1.855   2.808   0.330  0.1925  0.0897 -0.2487
15362TIP3   OH267576   4.991   3.413  12.724 -0.0559  0.2275 -0.8132
15362TIP3    H167577   4.952   3.419  12.811  0.6739  1.3104 -0.5400
15362TIP3    H267578   5.062   3.477  12.725  2.8229 -2.6777 -0.7057
15363TIP3   OH267579   2.578   3.628   4.805  0.2700  0.3594 -0.0771
15363TIP3    H167580   2.563   3.536   4.827  0.2318  0.0276 -1.3963
15363TIP3    H267581   2.490   3.666   4.803  0.1845  0.1375 -0.6925
15364TIP3   OH267582   4.786   4.049   5.534  0.0503  0.4305  0.2708
15364TIP3    H167583   4.840   4.083   5.605 -2.0541  1.5317  1.4525
15364TIP3    H267584   4.842   4.051   5.457  2.2141 -0.2186  1.7600
15365TIP3   OH267585   2.175   3.881   1.737  0.3058  0.3700 -0.2618
15365TIP3    H167586   2.106   3.815   1.730  1.1463 -0.3634 -2.1525
15365TIP3    H267587   2.130   3.964   1.719 -0.4869  0.1924  0.7901
15366TIP3   OH267588   2.490   0.292   3.116 -0.6906 -0.2453  0.0754
15366TIP3    H167589   2.572   0.303   3.165 -0.3024 -0.1683 -0.5814
15366TIP3    H267590   2.516   0.249   3.035 -1.1464  0.7373 -0.6094
15367TIP3   OH267591   5.560   4.752  16.647  0.6749 -0.6392  0.3134
15367TIP3    H167592   5.536   4.839  16.678  0.5497 -0.5940  0.0881
15367TIP3    H267593   5.520   4.745  16.561 -0.2482 -1.3285  0.7712
15368TIP3   OH267594   5.358   0.657  16.602  0.1995 -0.0704 -0.0545
15368TIP3    H167595   5.350   0.747  16.634  2.3853  0.5182 -0.9637
15368TIP3    H267596   5.306   0.656  16.521 -2.2848 -0.5285  1.4621
15369TIP3   OH267597   6.696   4.650  12.929  0.3222 -0.0922  0.1855
15369TIP3    H167598   6.756   4.720  12.905  0.4131 -0.2266  0.0166
15369TIP3    H267599   6.714   4.634  13.022 -0.4592  0.8505  0.5179
15370TIP3   OH267600   5.768   2.479   0.843  0.1413 -0.5903 -0.3436
15370TIP3    H167601   5.846   2.517   0.803 -0.1428 -0.0553 -0.3915
15370TIP3    H267602   5.726   2.430   0.772 -0.4458  0.4855 -0.7480
15371TIP3   OH267603   3.396   6.414   2.313 -0.2389  0.4211  0.1860
15371TIP3    H167604   3.399   6.415   2.409 -1.0102  0.1279  0.2181
15371TIP3    H267605   3.350   6.495   2.290 -3.1831 -1.0978  0.2269
15372TIP3   OH267606   4.079   6.611  13.278 -0.2283 -0.1599  0.1470
15372TIP3    H167607   4.151   6.674  13.281 -0.2576 -0.1574  1.7572
15372TIP3    H267608   4.121   6.527  13.259  0.0072  0.0619 -0.3369
15373TIP3   OH267609   3.613   1.095  14.871 -0.3891 -0.1164 -0.0663
15373TIP3    H167610   3.575   1.036  14.806  0.2079  0.1882 -0.7056
15373TIP3    H267611   3.617   1.043  14.951  1.8665 -1.6332 -1.0501
15374TIP3   OH267612   3.344   4.429   3.589  0.7494  0.2313  0.1454
15374TIP3    H167613   3.318   4.451   3.679 -0.1978 -0.9833  0.1939
15374TIP3    H267614   3.334   4.334   3.584  1.2457  0.2260 -1.1186
15375TIP3   OH267615   4.779   5.554   4.254  0.3044  0.1961 -0.5753
15375TIP3    H167616   4.784   5.650   4.256 -0.9023  0.2606  0.5165
15375TIP3    H267617   4.851   5.528   4.196  3.7835  1.4909  2.7506
15376TIP3   OH267618   4.014   3.451  16.161  0.1048 -0.0566 -0.0584
15376TIP3    H167619   4.066   3.378  16.194  1.2950  0.8788  0.2096
15376TIP3    H267620   3.939   3.456  16.220  0.2001 -0.8184  0.1399
15377TIP3   OH267621   6.582   5.655   5.176 -0.7858 -0.3232 -0.3815
15377TIP3    H167622   6.581   5.715   5.102  0.3417 -1.0036 -0.9917
15377TIP3    H267623   6.516   5.589   5.155 -2.3953  0.9188  0.5335
15378TIP3   OH267624   4.049   3.953   4.668  0.4377 -0.2027 -0.1042
15378TIP3    H167625   4.070   3.900   4.591 -0.3648 -0.2407 -0.3057
15378TIP3    H267626   4.044   3.889   4.739 -0.8502 -0.4689 -0.4061
15379TIP3   OH267627   1.317   5.755  13.011  0.4977 -0.6692 -0.3375
15379TIP3    H167628   1.409   5.778  13.014  0.6870 -1.4675  2.3206
15379TIP3    H267629   1.285   5.770  13.100 -1.3610 -2.5922 -0.5964
15380TIP3   OH267630   4.831   5.312   0.655  0.0657  0.0904 -0.1301
15380TIP3    H167631   4.859   5.335   0.744  0.3523 -0.1408 -0.1592
15380TIP3    H267632   4.912   5.308   0.604  0.0331 -1.0182 -0.1134
15381TIP3   OH267633   5.049   2.748  14.701  0.5190  0.9328 -0.2758
15381TIP3    H167634   4.996   2.797  14.639  1.5189  0.3209 -1.6789
15381TIP3    H267635   5.047   2.658  14.669  0.1745  0.3798  1.2216
15382TIP3   OH267636   0.322   4.670  14.711 -0.0886  0.5763 -0.1594
15382TIP3    H167637   0.264   4.745  14.723 -0.1548  0.5626 -0.3872
15382TIP3    H267638   0.307   4.642  14.621  1.1874  1.3399 -0.6331
15383TIP3   OH267639   0.815   5.197   2.363  0.2061 -0.4359 -0.1141
15383TIP3    H167640   0.767   5.253   2.301 -0.0358 -2.0648 -1.4494
15383TIP3    H267641   0.748   5.169   2.426 -0.1137 -0.8634 -0.6383
15384TIP3   OH267642   4.616   0.570   1.722 -0.4663 -0.0798 -0.0362
15384TIP3    H167643   4.526   0.603   1.712 -0.4215  0.8723  2.1686
15384TIP3    H267644   4.613   0.515   1.800  0.9505  0.2774  0.2948
15385TIP3   OH267645   5.914   5.752   3.819 -0.1861  0.1690 -0.1631
15385TIP3    H167646   5.946   5.709   3.740  0.4087  0.4848 -0.0993
15385TIP3    H267647   5.938   5.692   3.890  1.5468  1.0427  0.0326
15386TIP3   OH267648   3.973   0.097   5.102 -0.0612  0.2826  0.0937
15386TIP3    H167649   4.005   0.166   5.044 -0.3760 -0.0141 -0.4458
15386TIP3    H267650   3.912   0.141   5.162 -0.7220  0.3787 -0.6298
15387TIP3   OH267651   0.756   4.546   2.525 -0.5373 -0.2160 -0.0644
15387TIP3    H167652   0.696   4.539   2.450 -0.8530  2.0680 -0.0848
15387TIP3    H267653   0.706   4.593   2.591  1.1542  1.6255 -0.0218
15388TIP3   OH267654   0.073   0.899   0.670 -0.1404  0.4906  0.0272
15388TIP3    H167655   0.011   0.965   0.702  0.0754  0.5459  0.3339
15388TIP3    H267656   0.074   0.912   0.575 -0.5294  0.5501  0.0277
15389TIP3   OH267657   3.086   4.255   2.143  0.1030 -0.1165 -0.6654
15389TIP3    H167658   3.056   4.187   2.082 -1.2342  0.3431 -0.5409
15389TIP3    H267659   3.014   4.265   2.206  0.0465  1.7798 -0.9767
15390TIP3   OH267660   2.336   0.173  14.455 -0.0103  0.8038  0.3453
15390TIP3    H167661   2.286   0.248  14.485 -1.6037 -0.2526  0.4543
15390TIP3    H267662   2.270   0.113  14.420  1.1809 -0.6825  0.5593
15391TIP3   OH267663   5.033   4.271   5.844  0.6314  0.0393  0.2951
15391TIP3    H167664   4.954   4.325   5.840  0.9737  0.5819  0.6596
15391TIP3    H267665   5.002   4.183   5.863 -0.0327 -0.1337 -1.4488
15392TIP3   OH267666   5.581   5.263  16.540  0.0314  0.8075 -0.0661
15392TIP3    H167667   5.624   5.344  16.569 -0.0070  1.2453 -1.1914
15392TIP3    H267668   5.594   5.261  16.445  0.9160 -1.0291  0.0372
15393TIP3   OH267669   0.086   2.024   2.664  0.2630  0.1522 -0.0186
15393TIP3    H167670   0.133   1.942   2.682  1.3274  1.2103  2.3877
15393TIP3    H267671   0.099   2.077   2.742 -3.0942  1.4204 -0.1581
15394TIP3   OH267672   3.033   0.637   4.841  0.0276 -0.3527  0.2625
15394TIP3    H167673   2.998   0.548   4.850  3.8179 -2.2766 -1.5679
15394TIP3    H267674   3.029   0.655   4.747  1.5915  0.3445  0.3098
15395TIP3   OH267675   0.790   6.592  16.337  0.4670 -0.2065 -0.2060
15395TIP3    H167676   0.761   6.652  16.267 -0.7732 -0.8094 -0.2383
15395TIP3    H267677   0.884   6.585  16.325  0.4693  0.8108 -0.9383
15396TIP3   OH267678   3.747   6.804  11.328  0.2747  0.0404 -0.0605
15396TIP3    H167679   3.681   6.794  11.397  0.1393  2.9054  0.3612
15396TIP3    H267680   3.697   6.797  11.246 -0.1475 -0.1832  0.2148
15397TIP3   OH267681   5.406   2.171   1.727  0.4322 -0.0600  0.3090
15397TIP3    H167682   5.353   2.099   1.763 -0.7463  0.7986  0.3359
15397TIP3    H267683   5.473   2.186   1.793  1.3387 -1.7944 -0.1530
15398TIP3   OH267684   4.723   4.518  15.949  0.2629 -0.0239  0.0908
15398TIP3    H167685   4.641   4.510  15.999  0.8159  0.3315  1.0796
15398TIP3    H267686   4.713   4.456  15.876 -0.3259 -0.9825  0.9613
15399TIP3   OH267687   1.455   6.383  15.423 -0.2582  0.2756  0.4499
15399TIP3    H167688   1.409   6.464  15.444  0.1419  0.9343 -1.0852
15399TIP3    H267689   1.399   6.339  15.359 -0.4020 -0.6099  1.1642
15400TIP3   OH267690   4.311   6.175  13.058  0.7808  0.6199 -0.2502
15400TIP3    H167691   4.401   6.162  13.029  0.4962 -0.6788 -0.6278
15400TIP3    H267692   4.259   6.121  12.998  0.0348 -1.0874  1.8196
15401TIP3   OH267693   1.822   1.869  11.624 -0.1771 -0.2879 -0.5406
15401TIP3    H167694   1.749   1.911  11.579 -0.3001 -0.0074 -0.0862
15401TIP3    H267695   1.900   1.912  11.588 -0.3503  1.2773  0.8301
15402TIP3   OH267696   6.207   2.194   5.472  0.3019 -0.4914  0.1657
15402TIP3    H167697   6.184   2.262   5.535 -0.0496 -0.1647 -0.3049
15402TIP3    H267698   6.140   2.200   5.404  0.0205 -1.5969  0.3242
15403TIP3   OH267699   5.270   6.014   2.048 -0.2016  0.1465  0.4765
15403TIP3    H167700   5.321   6.011   2.130 -1.7863 -0.2347  1.4957
15403TIP3    H267701   5.282   6.103   2.015 -0.6948  0.7740  1.9100
15404TIP3   OH267702   2.382   1.256   4.403  0.1884 -0.5987 -0.3524
15404TIP3    H167703   2.288   1.240   4.390 -0.0090  0.2816 -0.0472
15404TIP3    H267704   2.391   1.269   4.497  0.2828  1.3149 -0.5917
15405TIP3   OH267705   6.429   4.896   2.961  0.0553 -0.0344 -0.5794
15405TIP3    H167706   6.437   4.967   2.897 -0.2153 -0.2062 -0.8073
15405TIP3    H267707   6.515   4.853   2.960 -0.2903 -0.7368 -1.6662
15406TIP3   OH267708   4.643   5.634  10.776 -0.5945 -0.1842  0.2428
15406TIP3    H167709   4.620   5.716  10.733 -0.5769 -0.8387 -1.0896
15406TIP3    H267710   4.715   5.656  10.835 -1.4513  0.9845  0.8806
15407TIP3   OH267711   4.410   5.336  11.098  0.7040  0.4057  0.1092
15407TIP3    H167712   4.335   5.359  11.042 -0.6784  0.9331  2.0855
15407TIP3    H267713   4.483   5.384  11.060  0.2839 -0.7432 -2.3535
15408TIP3   OH267714   4.244   2.072  10.687 -0.2986  0.1205 -0.0954
15408TIP3    H167715   4.308   2.116  10.743  1.2403 -0.2710 -1.4692
15408TIP3    H267716   4.289   1.994  10.654 -2.3904 -1.6417  0.9465
15409TIP3   OH267717   5.876   6.734   1.159  0.1707 -0.9834  0.4836
15409TIP3    H167718   5.847   6.715   1.069 -1.6127  0.1198  0.7683
15409TIP3    H267719   5.876   6.649   1.203 -2.7246 -1.1279  0.4158
15410TIP3   OH267720   2.704   0.983  12.407  0.1336  0.1823 -0.7577
15410TIP3    H167721   2.620   0.999  12.449 -0.8716  0.8542 -2.8897
15410TIP3    H267722   2.757   1.060  12.429  0.5965 -0.6697  1.3745
15411TIP3   OH267723   6.531   2.037  14.308 -0.2849  0.2380 -0.4824
15411TIP3    H167724   6.624   2.023  14.324 -0.1276  1.6792  0.0619
15411TIP3    H267725   6.497   2.069  14.392 -1.2201 -0.0440 -0.7418
15412TIP3   OH267726   3.247   4.614  15.328  0.2734  0.2362  0.5612
15412TIP3    H167727   3.199   4.627  15.409 -0.5737 -0.5679  0.2047
15412TIP3    H267728   3.194   4.657  15.261  0.3839 -0.0921  0.2597
15413TIP3   OH267729   1.317   0.963  16.851 -0.2660 -0.0214  0.1815
15413TIP3    H167730   1.238   0.962  16.906  0.0254 -1.0760  0.6031
15413TIP3    H267731   1.389   0.977  16.912 -0.1089  1.0103 -0.2134
15414TIP3   OH267732   0.418   0.419  15.221 -0.2179 -0.1232 -0.1616
15414TIP3    H167733   0.401   0.438  15.129 -0.8780  1.5636  0.2839
15414TIP3    H267734   0.345   0.362  15.247 -1.6724  1.7083  0.0108
15415TIP3   OH267735   0.027   5.220   2.603  0.3506 -0.1793 -0.2025
15415TIP3    H167736  -0.028   5.293   2.634 -0.1386 -1.3548  1.8635
15415TIP3    H267737   0.107   5.226   2.654 -0.0989 -1.6350  0.7444
15416TIP3   OH267738   6.223   1.286   3.466  0.2749 -0.3316 -0.1370
15416TIP3    H167739   6.244   1.279   3.373 -2.3630 -1.9322 -0.6982
15416TIP3    H267740   6.143   1.338   3.469 -0.0253 -0.8381  1.1959
15417TIP3   OH267741   1.609   0.745   2.483  0.3918  0.0989 -0.3590
15417TIP3    H167742   1.639   0.705   2.564 -0.0239 -2.0892 -1.2052
15417TIP3    H267743   1.672   0.815   2.465  2.3542 -1.4379  0.2206
15418TIP3   OH267744   6.228   3.864  11.317 -0.0036  0.0630 -0.1332
15418TIP3    H167745   6.143   3.824  11.337 -1.0641  2.4591  0.4447
15418TIP3    H267746   6.284   3.840  11.391 -1.3597  1.6471  1.4933
15419TIP3   OH267747   6.112   6.531  16.740  0.2207 -0.4979  0.2491
15419TIP3    H167748   6.171   6.569  16.676 -0.1782  1.0586  0.7562
15419TIP3    H267749   6.059   6.604  16.771 -1.6451 -1.7406  0.1762
15420TIP3   OH267750   5.924   3.046   4.835 -0.6882  0.5675  0.5303
15420TIP3    H167751   5.970   2.970   4.798 -0.7898  0.9620 -0.4336
15420TIP3    H267752   5.834   3.037   4.804 -0.3514  1.9350 -1.0144
15421TIP3   OH267753   0.103   5.797   5.909 -0.1988 -0.0835  0.2044
15421TIP3    H167754   0.157   5.868   5.874 -1.0390  0.1807 -0.6047
15421TIP3    H267755   0.163   5.746   5.963  0.2233  1.7412  1.5483
15422TIP3   OH267756   0.688   4.782  12.008  0.3235 -0.3468  0.5090
15422TIP3    H167757   0.715   4.861  11.961 -0.5448  0.4233  1.2439
15422TIP3    H267758   0.770   4.738  12.031  0.7807 -0.7927 -1.7245
15423TIP3   OH267759   5.873   5.855   2.331  0.0932  0.1040  0.0384
15423TIP3    H167760   5.781   5.844   2.355 -0.1490  1.9711  0.1068
15423TIP3    H267761   5.871   5.892   2.243  0.7313  1.0586  0.4083
15424TIP3   OH267762   0.184   6.326   0.599 -0.0868 -0.5509 -0.0615
15424TIP3    H167763   0.270   6.367   0.612 -0.2577 -0.3769  0.5693
15424TIP3    H267764   0.201   6.232   0.602 -0.1668 -0.5527  2.0724
15425TIP3   OH267765   3.882   5.232  17.182  0.3440 -0.1904 -0.1844
15425TIP3    H167766   3.851   5.253  17.094 -1.1227 -0.1723  0.3179
15425TIP3    H267767   3.806   5.196  17.227  1.2755 -0.9527  0.8452
15426TIP3   OH267768   6.500   3.408  15.525  0.3349 -0.3458 -0.5477
15426TIP3    H167769   6.468   3.448  15.444 -0.7723 -0.7146 -0.3087
15426TIP3    H267770   6.435   3.432  15.591  1.7728  0.8787  0.5036
15427TIP3   OH267771   3.840   5.399   5.480  0.0494 -0.0211 -0.3036
15427TIP3    H167772   3.746   5.411   5.466  0.1910  0.9434 -0.5056
15427TIP3    H267773   3.848   5.310   5.513 -0.9469 -0.0848 -0.1966
15428TIP3   OH267774   2.616   0.867   2.477 -0.9441 -0.2751  0.5266
15428TIP3    H167775   2.575   0.785   2.505  1.0390 -2.9597 -3.5115
15428TIP3    H267776   2.547   0.915   2.431 -1.2662 -1.4875 -0.2959
15429TIP3   OH267777   5.206   2.550   1.063  0.9316 -0.5331 -0.3244
15429TIP3    H167778   5.147   2.507   1.125 -0.4164 -2.4536 -2.7558
15429TIP3    H267779   5.271   2.484   1.042  0.5883 -0.4034 -1.8968
15430TIP3   OH267780   0.965   4.662  12.833 -0.1301 -0.4195 -0.2823
15430TIP3    H167781   0.889   4.610  12.810 -1.1132 -0.5367  2.7356
15430TIP3    H267782   0.936   4.753  12.828 -0.5374 -0.4654  0.8954
15431TIP3   OH267783   2.326   5.422   0.743  0.2972 -0.3608  0.0704
15431TIP3    H167784   2.234   5.397   0.733 -0.2491  0.0153  3.2380
15431TIP3    H267785   2.373   5.365   0.682 -2.0546  0.0245 -2.2640
15432TIP3   OH267786   4.319   0.316  11.463  0.0992  0.2693  0.2750
15432TIP3    H167787   4.253   0.285  11.525  0.0497  0.0721  0.1249
15432TIP3    H267788   4.402   0.299  11.508  0.0546  0.3831  0.4019
15433TIP3   OH267789   5.868   6.826   1.556 -0.2519 -0.0686 -0.1540
15433TIP3    H167790   5.837   6.799   1.642 -0.1694  0.6804  0.1137
15433TIP3    H267791   5.929   6.756   1.529 -2.5525 -1.8940 -0.9562
15434TIP3   OH267792   4.583   3.068   5.513  0.0365  0.0371 -0.3746
15434TIP3    H167793   4.671   3.095   5.488  0.1328  0.1322  0.0631
15434TIP3    H267794   4.554   3.135   5.576  0.2133 -0.7652  0.5893
15435TIP3   OH267795   5.597   6.725   4.403 -0.2549  0.4673 -0.3341
15435TIP3    H167796   5.581   6.795   4.339 -0.0132  1.1849  0.3774
15435TIP3    H267797   5.573   6.645   4.356 -0.9889  1.0588 -1.0132
15436TIP3   OH267798   3.207   6.167  14.976  0.0103 -0.3748  0.3076
15436TIP3    H167799   3.149   6.155  15.051  2.6110 -0.4577  2.4532
15436TIP3    H267800   3.249   6.082  14.964  0.2101 -0.1469 -0.7730
15437TIP3   OH267801   3.134   5.039   5.838 -0.0504 -0.8133  0.0420
15437TIP3    H167802   3.065   4.977   5.863 -0.6621 -0.0516  0.2874
15437TIP3    H267803   3.088   5.105   5.786  0.3043  0.1946  0.9649
15438TIP3   OH267804   5.188   6.015  12.355 -0.0589  0.4478  0.2979
15438TIP3    H167805   5.227   6.053  12.276 -1.0836  0.0437 -0.4263
15438TIP3    H267806   5.261   5.973  12.401  0.4326  0.0752 -0.7983
15439TIP3   OH267807   2.732   2.759  12.635 -0.3616 -0.5745  0.4094
15439TIP3    H167808   2.730   2.667  12.611  0.2835 -0.4742 -0.0695
15439TIP3    H267809   2.815   2.791  12.599 -0.5344  0.1689  0.6538
15440TIP3   OH267810   0.695   3.933   1.817 -0.7826  0.4373 -0.1502
15440TIP3    H167811   0.659   3.926   1.728  0.5451  1.2311 -0.7828
15440TIP3    H267812   0.657   4.013   1.852 -2.0479 -0.3668  0.3806
15441TIP3   OH267813   4.443   0.060   0.173  0.8726 -0.0882 -0.7388
15441TIP3    H167814   4.366   0.089   0.222  0.0209 -1.3974 -1.2571
15441TIP3    H267815   4.490   0.141   0.152 -0.2174  0.7106 -0.1926
15442TIP3   OH267816   5.903   6.450  16.278  0.0245  0.1842 -0.1760
15442TIP3    H167817   5.928   6.400  16.200 -1.1312 -0.9317  0.1373
15442TIP3    H267818   5.972   6.516  16.287  0.2050  0.3211 -2.1160
15443TIP3   OH267819   6.143   0.699  16.936 -0.1104  0.1210  0.2819
15443TIP3    H167820   6.119   0.631  16.872  1.3643 -0.4720  0.3274
15443TIP3    H267821   6.090   0.678  17.013  0.0053 -0.7129  0.1470
15444TIP3   OH267822   1.728   3.754  16.088 -0.0381  0.4783  0.1282
15444TIP3    H167823   1.819   3.783  16.093 -0.2939  1.2087  0.7400
15444TIP3    H267824   1.707   3.724  16.177 -0.6929  1.2816  0.2589
15445TIP3   OH267825   4.611   3.575  16.880 -0.1242 -0.1344  0.0348
15445TIP3    H167826   4.673   3.593  16.809  0.1792  1.4178  0.6649
15445TIP3    H267827   4.659   3.514  16.937  0.8954  1.0933  0.5468
15446TIP3   OH267828   0.761   1.398  13.632 -0.2183 -0.2904 -0.4232
15446TIP3    H167829   0.670   1.411  13.604 -1.3279 -1.0500  2.4634
15446TIP3    H267830   0.781   1.308  13.607 -0.1342 -0.0249 -1.3342
15447TIP3   OH267831   2.362   3.042  17.172  0.2163  0.1083 -0.1213
15447TIP3    H167832   2.432   3.013  17.114 -0.5844  1.1505 -1.6968
15447TIP3    H267833   2.400   3.116  17.220  0.8886 -0.7668  0.7252
15448TIP3   OH267834   0.999   5.628   2.849  0.1970  0.5885 -0.3018
15448TIP3    H167835   0.982   5.578   2.769 -2.9595  1.6941 -0.4534
15448TIP3    H267836   0.941   5.704   2.842  0.7843  1.3777  2.4562
15449TIP3   OH267837   5.606   2.129   5.391 -0.1557  0.1807  0.0328
15449TIP3    H167838   5.577   2.100   5.477 -1.8685  1.3225 -0.1010
15449TIP3    H267839   5.699   2.107   5.388 -0.7622 -3.0349  0.7979
15450TIP3   OH267840   2.707   2.205  13.199  0.7156  0.2028 -0.1474
15450TIP3    H167841   2.668   2.267  13.138  0.4740 -0.3722 -0.5846
15450TIP3    H267842   2.791   2.183  13.160  1.1801  0.9031  0.4396
15451TIP3   OH267843   5.342   1.144  15.276  0.2257 -0.7229 -0.0798
15451TIP3    H167844   5.310   1.206  15.341  0.8946 -2.1310  1.6687
15451TIP3    H267845   5.361   1.064  15.326  0.8660 -1.8284 -1.9912
15452TIP3   OH267846   2.541   1.906  13.348 -0.1041 -0.0614  0.3955
15452TIP3    H167847   2.501   1.825  13.381  0.8587 -0.2748  1.0916
15452TIP3    H267848   2.542   1.965  13.423 -1.3861  0.8608 -0.2724
15453TIP3   OH267849   4.951   2.477   4.743  0.5950 -0.4910 -0.3029
15453TIP3    H167850   4.906   2.523   4.673  0.9335  1.7854  0.8849
15453TIP3    H267851   4.888   2.477   4.816  0.9707 -1.0858  0.0307
15454TIP3   OH267852   2.579   2.320  13.882 -0.1024  0.6696 -0.4133
15454TIP3    H167853   2.590   2.293  13.973  2.8762 -1.4552 -1.2360
15454TIP3    H267854   2.488   2.302  13.862  0.0100 -2.3212  1.1915
15455TIP3   OH267855   4.763   5.826   1.156  0.1286  0.4455  0.3083
15455TIP3    H167856   4.809   5.803   1.237  1.1768 -1.0857 -0.6601
15455TIP3    H267857   4.787   5.917   1.140  0.9420  0.3788  1.0645
15456TIP3   OH267858   0.125   3.071   6.058  0.0971  0.3401  0.4295
15456TIP3    H167859   0.106   3.120   6.138  0.0707  0.2623  0.4713
15456TIP3    H267860   0.164   2.989   6.089  1.2248  0.8246  0.3143
15457TIP3   OH267861   2.749   2.750   0.911  0.2530 -0.5058  0.6792
15457TIP3    H167862   2.732   2.705   0.828  1.2729 -0.4760  0.4376
15457TIP3    H267863   2.843   2.766   0.910 -0.1811  2.7707  0.1848
15458TIP3   OH267864   0.479   6.685   2.430  0.4261 -0.0035  0.1875
15458TIP3    H167865   0.466   6.602   2.384  0.4007  0.6924 -1.1168
15458TIP3    H267866   0.448   6.751   2.368  1.3762  1.0483  0.7987
15459TIP3   OH267867   1.235   4.471  12.738 -0.2080 -0.2286  0.9125
15459TIP3    H167868   1.183   4.402  12.779 -1.0963 -0.5431 -0.6456
15459TIP3    H267869   1.187   4.493  12.658  1.0929  0.8191  0.3711
15460TIP3   OH267870   0.498   0.732   6.047  0.1830  0.2442 -0.2709
15460TIP3    H167871   0.489   0.642   6.016  1.6885  0.2467 -0.7749
15460TIP3    H267872   0.503   0.724   6.142 -3.8831  0.1854  0.1323
15461TIP3   OH267873   0.862   1.674  16.596 -0.1262 -0.0549  0.0597
15461TIP3    H167874   0.939   1.616  16.596 -0.4399 -0.4808 -0.1628
15461TIP3    H267875   0.821   1.660  16.681 -0.2786 -0.2736 -0.0463
15462TIP3   OH267876   4.799   2.925  16.473  0.2800  0.0711  0.1882
15462TIP3    H167877   4.831   2.900  16.386 -0.0492  0.9963 -0.2110
15462TIP3    H267878   4.866   2.984  16.507  0.4219 -0.3122  0.5847
15463TIP3   OH267879   2.806   0.683  14.978 -0.1815 -0.3014  0.2247
15463TIP3    H167880   2.861   0.734  14.920 -0.3031 -0.4023  0.0205
15463TIP3    H267881   2.810   0.594  14.944  0.4596 -0.5389  0.8927
15464TIP3   OH267882   2.999   2.247  13.225 -0.9224  0.5798  0.4405
15464TIP3    H167883   3.006   2.196  13.144  0.6288  0.0310  0.8743
15464TIP3    H267884   2.960   2.330  13.198  3.0832  2.0816 -1.7283
15465TIP3   OH267885   6.659   2.680   2.935 -0.7310 -0.1068 -0.4537
15465TIP3    H167886   6.693   2.604   2.888 -2.7765 -0.8376 -0.8750
15465TIP3    H267887   6.564   2.670   2.932 -1.0736  2.3054 -0.2125
15466TIP3   OH267888   5.897   3.483   3.089 -0.2686  0.1445 -0.0975
15466TIP3    H167889   5.865   3.561   3.134  0.3057 -0.6554  1.7712
15466TIP3    H267890   5.840   3.412   3.119 -0.5256 -0.2454 -1.4537
15467TIP3   OH267891   5.406   6.457  11.326 -0.0599 -0.2193 -0.0775
15467TIP3    H167892   5.375   6.494  11.409  1.8843 -0.1778  0.6891
15467TIP3    H267893   5.414   6.532  11.268 -0.3916 -0.0938  0.0342
15468TIP3   OH267894   2.173   1.511   0.626 -0.2832 -0.2850 -0.4634
15468TIP3    H167895   2.149   1.455   0.699  1.2359 -1.3956 -0.7556
15468TIP3    H267896   2.118   1.481   0.553  0.1818 -1.1107 -0.4892
15469TIP3   OH267897   0.988   2.105  12.754 -0.2993  0.7364 -0.4655
15469TIP3    H167898   0.903   2.088  12.795 -0.1401  0.5934 -0.1883
15469TIP3    H267899   0.970   2.105  12.660 -0.5717  0.5132 -0.4152
15470TIP3   OH267900   4.818   2.716  16.659 -0.2271 -0.5807  0.3071
15470TIP3    H167901   4.907   2.705  16.627  1.4523  2.6859  3.1516
15470TIP3    H267902   4.775   2.773  16.595  0.3668 -0.6393 -0.1405
15471TIP3   OH267903   2.803   4.466  15.199  0.0753  0.3113  0.5521
15471TIP3    H167904   2.897   4.479  15.187  0.3711 -1.5967  0.5997
15471TIP3    H267905   2.766   4.481  15.113  1.0308 -3.4743 -0.6998
15472TIP3   OH267906   3.172   0.230   4.127  0.1989 -0.0053  0.0284
15472TIP3    H167907   3.200   0.191   4.210 -0.7818  0.6251  0.6755
15472TIP3    H267908   3.099   0.287   4.151 -0.2670 -0.0136 -1.3129
15473TIP3   OH267909   6.340   2.166   2.308 -0.2988  0.4258 -0.0780
15473TIP3    H167910   6.319   2.180   2.216  0.6806  0.1734 -0.3503
15473TIP3    H267911   6.379   2.078   2.311 -1.9122 -0.3125  0.8503
15474TIP3   OH267912   6.412   0.293   0.811  0.0523 -0.3830  0.1841
15474TIP3    H167913   6.391   0.363   0.872  0.2597  0.5410 -0.7653
15474TIP3    H267914   6.329   0.249   0.795 -1.2236  2.6381 -2.8083
15475TIP3   OH267915   5.615   5.890   2.439  0.4884  0.1535 -0.2060
15475TIP3    H167916   5.539   5.849   2.482 -1.1346  1.9244 -1.2097
15475TIP3    H267917   5.643   5.958   2.500 -1.6695  2.5128 -1.6605
15476TIP3   OH267918   3.244   4.473   2.185  0.3441 -0.4775  0.0916
15476TIP3    H167919   3.192   4.499   2.261 -0.1867 -2.5783  0.5187
15476TIP3    H267920   3.182   4.422   2.132  1.2472 -0.6905 -0.7710
15477TIP3   OH267921   4.429   2.093  12.460 -0.3654  0.4084  0.3309
15477TIP3    H167922   4.384   2.070  12.378 -0.1684 -0.8208  0.5446
15477TIP3    H267923   4.520   2.067  12.445 -0.5777 -1.0707  1.3785
15478TIP3   OH267924   5.148   6.339  14.748  0.1040 -0.0752  0.6757
15478TIP3    H167925   5.070   6.313  14.797 -0.6263  0.4932 -0.1615
15478TIP3    H267926   5.183   6.256  14.713 -1.9793 -0.0943 -1.6386
15479TIP3   OH267927   2.081   1.057   5.809  0.3864 -0.7217 -0.3211
15479TIP3    H167928   2.063   1.150   5.820  1.9842 -0.1565 -1.9423
15479TIP3    H267929   2.137   1.035   5.883  2.3299  0.3727 -1.3790
15480TIP3   OH267930   6.746   1.203  12.496 -0.4449 -0.0051  0.4166
15480TIP3    H167931   6.756   1.125  12.551  0.6121  1.3732  2.2801
15480TIP3    H267932   6.790   1.179  12.414  1.2884 -0.8453  1.5333
15481TIP3   OH267933   2.846   0.367  14.901 -0.1303  0.2171  0.3259
15481TIP3    H167934   2.791   0.309  14.953 -0.2202 -0.0391 -0.0530
15481TIP3    H267935   2.935   0.338  14.919 -0.2463 -2.2126 -2.3228
15482TIP3   OH267936   2.826   3.996  16.871 -0.5673 -0.2480 -0.7673
15482TIP3    H167937   2.811   3.941  16.947  0.4396 -0.5267 -0.7505
15482TIP3    H267938   2.911   3.968  16.837 -0.5088  0.5898 -1.3678
15483TIP3   OH267939   6.425   0.474  16.292 -0.2412  0.1849 -0.2508
15483TIP3    H167940   6.330   0.479  16.296 -0.1739  2.1893 -0.0517
15483TIP3    H267941   6.452   0.458  16.382 -0.3877 -0.5119 -0.3301
15484TIP3   OH267942   1.911   1.541   4.172 -0.0228  0.2858 -0.1483
15484TIP3    H167943   1.880   1.617   4.221  0.5197 -0.0691  0.7816
15484TIP3    H267944   1.934   1.477   4.239 -0.0386 -0.5345 -0.9005
15485TIP3   OH267945   1.483   2.146   2.426 -0.4129  0.1142  0.0337
15485TIP3    H167946   1.436   2.166   2.345 -0.6044  0.5214  0.2435
15485TIP3    H267947   1.462   2.218   2.484  1.8821  1.2712 -0.4648
15486TIP3   OH267948   3.188   4.084  14.817  0.3581  0.2457  0.2676
15486TIP3    H167949   3.147   4.130  14.889  0.0014  0.5831 -0.1427
15486TIP3    H267950   3.140   4.114  14.739  1.4811  0.7708 -0.2433
15487TIP3   OH267951   0.451   1.646  12.134 -0.1452 -0.5228  0.3445
15487TIP3    H167952   0.431   1.703  12.059  0.4727 -0.2694  0.3693
15487TIP3    H267953   0.365   1.625  12.171 -0.3516  1.3129  1.0254
15488TIP3   OH267954   0.770   0.818   3.710 -0.0134 -0.0820 -0.2216
15488TIP3    H167955   0.718   0.888   3.670  1.4689  0.1183 -1.9366
15488TIP3    H267956   0.833   0.864   3.765  0.7183 -0.0567 -1.0572
15489TIP3   OH267957   0.861   4.404  15.329 -0.3474 -0.6166  0.1836
15489TIP3    H167958   0.787   4.358  15.289 -0.4213  1.5759 -2.5029
15489TIP3    H267959   0.926   4.336  15.345 -1.8358 -2.1763 -0.0833
15490TIP3   OH267960   1.897   2.603  13.475 -0.3618 -0.1366 -0.1705
15490TIP3    H167961   1.818   2.554  13.452 -0.6543  0.5734 -0.7286
15490TIP3    H267962   1.876   2.643  13.559 -0.6502  0.1321 -0.3628
15491TIP3   OH267963   5.656   4.609  16.858 -0.1800 -0.6083  0.4286
15491TIP3    H167964   5.593   4.623  16.788  0.4532  1.9615  0.2465
15491TIP3    H267965   5.611   4.640  16.937  0.4999  0.3650  0.4475
15492TIP3   OH267966   3.748   0.281   5.769 -0.2007 -0.0822  0.9333
15492TIP3    H167967   3.747   0.283   5.674  2.9850  1.7236  0.8001
15492TIP3    H267968   3.802   0.204   5.791  1.2731  0.9510  1.1077
15493TIP3   OH267969   6.447   4.968  11.438 -0.2697  0.0948  0.4204
15493TIP3    H167970   6.541   4.951  11.443 -0.3860 -0.7578 -0.1240
15493TIP3    H267971   6.425   4.952  11.346 -0.5754  2.3576  0.0467
15494TIP3   OH267972   5.004   0.018   3.548  0.6527 -0.2461  0.0736
15494TIP3    H167973   5.091   0.032   3.585  0.5199  0.3852  0.1586
15494TIP3    H267974   5.019   0.004   3.455  0.9581 -1.5047  0.2928
15495TIP3   OH267975   5.160   2.133  17.098 -0.1318 -0.4499  0.0125
15495TIP3    H167976   5.168   2.042  17.067  1.9969  0.2993 -1.8843
15495TIP3    H267977   5.152   2.184  17.018 -3.3638  0.9816  1.0821
15496TIP3   OH267978   3.307   6.008   6.066 -0.4640 -0.0882 -0.7249
15496TIP3    H167979   3.225   6.019   6.018 -0.4808  1.7193 -0.3173
15496TIP3    H267980   3.281   5.968   6.149 -0.9519  0.6273 -0.5329
15497TIP3   OH267981   1.890   0.358   0.030  0.1636 -0.7106 -0.2783
15497TIP3    H167982   1.861   0.386   0.117 -0.6088  0.2392 -0.8108
15497TIP3    H267983   1.900   0.263   0.038  0.5121 -0.5926  0.9520
15498TIP3   OH267984   1.235   4.765  15.519 -1.2179  0.1053 -0.1092
15498TIP3    H167985   1.311   4.708  15.533 -1.3908 -0.0898  0.0210
15498TIP3    H267986   1.245   4.796  15.429 -0.0890  1.3902  0.4181
15499TIP3   OH267987   1.887   4.918   3.028  0.0217 -0.0417  0.0107
15499TIP3    H167988   1.982   4.923   3.020  0.0437 -0.7918 -0.2467
15499TIP3    H267989   1.864   4.832   2.993 -0.6697 -0.2141  0.8585
15500TIP3   OH267990   5.501   1.565  12.043 -0.3442 -0.2654  0.3002
15500TIP3    H167991   5.580   1.606  12.079 -0.5479  1.0412 -0.6709
15500TIP3    H267992   5.511   1.472  12.064  0.7768  0.0666  1.4181
15501TIP3   OH267993   5.992   5.290   3.053 -0.2893  0.4196  0.7591
15501TIP3    H167994   6.003   5.228   2.981 -1.5678 -0.4743  1.2911
15501TIP3    H267995   5.937   5.359   3.017  0.6920  0.9868  0.3225
15502TIP3   OH267996   6.620   3.801   6.244 -0.0476 -0.0974  0.2155
15502TIP3    H167997   6.660   3.859   6.309  1.2239 -2.6585  1.8811
15502TIP3    H267998   6.526   3.806   6.262 -0.4572  3.9225 -1.9601
15503TIP3   OH267999   2.872   4.906  13.080 -0.4674 -0.0355 -0.3188
15503TIP3    H168000   2.927   4.978  13.112 -0.2878 -1.5154  3.2070
15503TIP3    H268001   2.783   4.929  13.109 -1.0039  0.2306 -2.0591
15504TIP3   OH268002   3.976   4.771  15.743  0.8322  0.2129  0.0816
15504TIP3    H168003   3.912   4.803  15.679  0.0834 -0.6398  0.3799
15504TIP3    H268004   4.034   4.846  15.758 -0.8908  1.4693  0.8043
15505TIP3   OH268005   3.949   0.258   1.462  0.1393  0.3003 -0.4255
15505TIP3    H168006   3.925   0.179   1.511  1.1317  0.7401  0.8369
15505TIP3    H268007   3.983   0.226   1.379 -1.6352 -0.4695 -0.9033
15506TIP3   OH268008   4.303   1.239   2.073 -0.1471 -0.3314 -0.8490
15506TIP3    H168009   4.330   1.312   2.129 -1.1805 -0.0247 -0.7424
15506TIP3    H268010   4.306   1.273   1.984 -1.3898  0.0982 -0.7420
15507TIP3   OH268011   4.655   6.601  10.480  0.6996  0.4715 -0.5912
15507TIP3    H168012   4.739   6.637  10.451  0.2418  0.2792 -2.2036
15507TIP3    H268013   4.589   6.661  10.446  0.1785  1.1981  1.5330
15508TIP3   OH268014   5.609   5.822  14.438  0.4102  0.1701 -0.0932
15508TIP3    H168015   5.690   5.864  14.466  1.6053 -0.6182 -2.1819
15508TIP3    H268016   5.628   5.728  14.443 -0.1939 -0.0165 -1.1184
15509TIP3   OH268017   0.415   6.461   5.180  0.1939 -0.2446 -0.1530
15509TIP3    H168018   0.416   6.499   5.092  1.2553 -3.0412 -1.4759
15509TIP3    H268019   0.352   6.389   5.174  0.0935 -0.3189  1.4676
15510TIP3   OH268020   3.768   3.873  12.179 -0.0899 -0.0323 -0.2349
15510TIP3    H168021   3.683   3.890  12.140 -1.2564 -0.1458  2.0827
15510TIP3    H268022   3.824   3.943  12.146 -1.2045  0.3537 -1.3750
15511TIP3   OH268023   4.186   6.835   6.487 -0.5092  0.3218 -0.4197
15511TIP3    H168024   4.273   6.802   6.508  0.3590  3.4302  1.6186
15511TIP3    H268025   4.157   6.782   6.413  3.0572 -0.8473 -1.1655
15512TIP3   OH268026   4.792   3.982  16.776  0.6272  0.0998  0.3342
15512TIP3    H168027   4.708   3.999  16.735  1.3364  4.9375  0.2979
15512TIP3    H268028   4.772   3.970  16.869 -0.1313  0.5885  0.2373
15513TIP3   OH268029   3.062   3.536  11.896 -0.1772  0.9329  0.0224
15513TIP3    H168030   3.067   3.460  11.954 -0.3995  0.5217 -0.4828
15513TIP3    H268031   3.152   3.552  11.869 -0.0438  1.2796  0.6743
15514TIP3   OH268032   2.521   4.541   3.649  0.2641 -0.7200 -0.0677
15514TIP3    H168033   2.479   4.548   3.734  0.7482 -1.0121  0.2002
15514TIP3    H268034   2.585   4.471   3.659  0.2308 -0.8523 -0.7121
15515TIP3   OH268035   4.037   2.823   2.922 -0.0658  0.1503  0.1122
15515TIP3    H168036   3.985   2.796   2.998  0.5435 -0.1979  0.4189
15515TIP3    H268037   3.975   2.825   2.849 -0.0177 -3.0078 -0.1602
15516TIP3   OH268038   2.329   6.314   0.506  0.9303  0.0462 -0.0258
15516TIP3    H168039   2.294   6.334   0.592  1.0975 -0.9854  0.2953
15516TIP3    H268040   2.424   6.312   0.518  1.0099  0.8159 -0.4459
15517TIP3   OH268041   3.413   5.193   4.387  0.2789  0.3217  0.0617
15517TIP3    H168042   3.321   5.184   4.365  0.2105 -0.9308  0.7692
15517TIP3    H268043   3.459   5.143   4.319  0.1702 -2.0731  1.6088
15518TIP3   OH268044   4.848   1.192  16.462  0.3760 -0.0378 -0.7397
15518TIP3    H168045   4.813   1.265  16.412 -0.1984  0.0250 -0.2567
15518TIP3    H268046   4.884   1.232  16.541 -0.8278 -0.3612 -0.0047
15519TIP3   OH268047   0.488   2.024  12.022 -0.2394 -0.7352 -0.2932
15519TIP3    H168048   0.576   1.992  12.005  0.9730  2.5614 -0.9291
15519TIP3    H268049   0.467   1.991  12.110  0.6156 -3.4173 -0.9938
15520TIP3   OH268050   4.626   5.426  12.746 -0.3304 -0.2575  0.1047
15520TIP3    H168051   4.711   5.397  12.713  0.4124  1.4087  0.4641
15520TIP3    H268052   4.607   5.365  12.818  0.0442 -1.2929 -0.6506
15521TIP3   OH268053   4.219   2.790  16.496  0.4478  0.2083  0.4844
15521TIP3    H168054   4.133   2.796  16.538  0.8591 -0.0532  1.3790
15521TIP3    H268055   4.266   2.723  16.546  1.3147  0.6276  0.2466
15522TIP3   OH268056   2.657   4.330   2.430 -0.6532 -0.1504  0.4816
15522TIP3    H168057   2.640   4.344   2.523  0.9962 -0.5896  0.8959
15522TIP3    H268058   2.573   4.345   2.387 -1.6664 -0.8017  2.1338
15523TIP3   OH268059   5.780   1.461   0.668  0.0491 -0.9364  0.2474
15523TIP3    H168060   5.698   1.413   0.661  0.0160 -0.9953  0.9179
15523TIP3    H268061   5.778   1.498   0.756 -0.1940  0.8056 -0.4526
15524TIP3   OH268062   0.763   5.733  15.936 -0.6137 -0.0140  0.3473
15524TIP3    H168063   0.728   5.707  16.022  0.3298  1.4283  1.1940
15524TIP3    H268064   0.711   5.810  15.911  0.9952  1.3233  0.9902
15525TIP3   OH268065   0.516   2.623  16.099 -0.2406 -0.1733  0.1973
15525TIP3    H168066   0.485   2.545  16.052 -3.3263  0.0426  1.6069
15525TIP3    H268067   0.494   2.606  16.191  0.7266  1.5995  0.7976
15526TIP3   OH268068   3.078   6.243  15.225  0.8315  0.9658  0.3436
15526TIP3    H168069   3.028   6.288  15.294 -0.7689  0.5472 -0.4906
15526TIP3    H268070   3.039   6.156  15.220 -0.3225  1.5242 -2.2288
15527TIP3   OH268071   1.312   2.229   3.574 -0.4204 -0.0686 -0.4431
15527TIP3    H168072   1.379   2.163   3.588 -2.4895 -3.0471 -3.1146
15527TIP3    H268073   1.334   2.270   3.490 -0.2898  1.2210  0.1933
15528TIP3   OH268074   4.618   5.533   2.177 -1.2398 -0.1158  0.2334
15528TIP3    H168075   4.681   5.559   2.110 -0.0465  0.3274  1.4880
15528TIP3    H268076   4.650   5.448   2.209  0.6428  1.5090  3.0686
15529TIP3   OH268077   5.956   3.384   3.803 -0.1133  0.3949 -0.0986
15529TIP3    H168078   5.866   3.402   3.775 -0.5222 -0.6637  0.4662
15529TIP3    H268079   5.987   3.317   3.742 -0.2678 -0.3673  0.6359
15530TIP3   OH268080   2.826   5.363   3.334 -0.5663  0.2131 -0.1156
15530TIP3    H168081   2.852   5.454   3.321  1.0592 -0.1287  0.4043
15530TIP3    H268082   2.794   5.334   3.248 -0.3142  1.0358 -0.4961
15531TIP3   OH268083   5.003   1.970   2.482 -0.9621 -0.0852  0.1133
15531TIP3    H168084   4.947   1.962   2.405 -0.8336  0.9881 -0.1117
15531TIP3    H268085   5.082   1.921   2.460 -2.0077 -2.1512  0.6754
15532TIP3   OH268086   0.969   2.098  12.483 -0.1414  0.3028  0.6134
15532TIP3    H168087   1.033   2.028  12.477 -1.5213 -1.0103  0.6816
15532TIP3    H268088   0.925   2.098  12.398 -1.8193 -0.6050  1.4354
15533TIP3   OH268089   3.250   1.565  17.002 -0.2019  0.6112  0.2132
15533TIP3    H168090   3.169   1.613  17.017 -0.3283  0.7816 -0.8692
15533TIP3    H268091   3.261   1.567  16.906  0.1540 -0.9250  0.1954
15534TIP3   OH268092   5.337   5.073  12.584  0.2107  0.0787  0.2758
15534TIP3    H168093   5.306   5.131  12.515 -1.6140  0.0909  1.0509
15534TIP3    H268094   5.313   4.985  12.554  0.2139  0.0039  0.4910
15535TIP3   OH268095   1.145   3.635   0.326 -0.4226  0.2802  0.5885
15535TIP3    H168096   1.051   3.617   0.331 -0.3803 -0.9808 -1.7732
15535TIP3    H268097   1.155   3.685   0.246  0.9453  0.3128  0.7596
15536TIP3   OH268098   3.912   4.910   1.872 -0.0678 -0.2648 -0.2262
15536TIP3    H168099   3.976   4.841   1.889 -0.7229 -0.9624 -0.5031
15536TIP3    H268100   3.847   4.869   1.815  0.3945  1.0898 -1.7966
15537TIP3   OH268101   5.371   6.502   5.160  0.1473 -0.1497 -0.1761
15537TIP3    H168102   5.313   6.576   5.140  0.9488  0.6887  0.5228
15537TIP3    H268103   5.342   6.433   5.101  1.1518  1.5615 -2.8214
15538TIP3   OH268104   2.289   4.015  11.114  0.0795  0.5422  0.4673
15538TIP3    H168105   2.205   4.007  11.068  1.7718  0.7979 -2.9502
15538TIP3    H268106   2.283   4.100  11.158 -1.2105  0.9104 -0.3227
15539TIP3   OH268107   4.919   1.695  12.859  0.0848 -0.2199  0.3157
15539TIP3    H168108   4.905   1.740  12.942 -2.4687  0.8254 -0.6023
15539TIP3    H268109   4.848   1.725  12.802  1.9510 -0.5669 -2.4221
15540TIP3   OH268110   2.529   2.879   2.387 -0.3768 -0.5761 -0.0943
15540TIP3    H168111   2.494   2.914   2.305 -0.4492 -0.9405 -0.2170
15540TIP3    H268112   2.453   2.847   2.434 -0.2160 -1.3257 -0.3393
15541TIP3   OH268113   0.356   4.903   3.891  0.1771  0.1916 -0.2920
15541TIP3    H168114   0.295   4.940   3.826  0.1019 -0.1657 -0.4279
15541TIP3    H268115   0.306   4.903   3.973  0.8682  2.3264  0.1940
15542TIP3   OH268116   4.033   1.733  14.862  0.5063 -0.0116  0.0960
15542TIP3    H168117   4.069   1.788  14.792  0.9925 -0.5547 -0.0922
15542TIP3    H268118   4.041   1.644  14.828 -2.0006 -0.1182 -0.3937
15543TIP3   OH268119   6.407   5.322   4.207  0.3198 -0.2188 -0.3579
15543TIP3    H168120   6.499   5.348   4.199  0.6140 -1.0693  0.1730
15543TIP3    H268121   6.410   5.238   4.252 -0.7363 -0.1470 -0.1429
15544TIP3   OH268122   6.234   2.850  15.009  0.1288  0.4486 -0.4720
15544TIP3    H168123   6.326   2.863  14.986  0.0601 -1.7575 -2.3963
15544TIP3    H268124   6.216   2.916  15.075  3.1794  0.7350  0.2120
15545TIP3   OH268125   6.112   3.721   0.188 -0.7180  0.2221 -0.5821
15545TIP3    H168126   6.131   3.675   0.106 -1.5448 -1.4102  0.0868
15545TIP3    H268127   6.175   3.684   0.250 -0.5744  0.9187 -0.3099
15546TIP3   OH268128   1.904   2.255   3.515  0.1536  0.0828  0.3522
15546TIP3    H168129   1.946   2.320   3.572  2.2295 -1.6048  0.8789
15546TIP3    H268130   1.858   2.196   3.575  0.2151 -0.2447  0.0829
15547TIP3   OH268131   5.615   3.506  15.459 -0.1859  0.3810 -0.1680
15547TIP3    H168132   5.536   3.489  15.510  0.7501 -0.6319  1.0074
15547TIP3    H268133   5.687   3.483  15.518  0.9546 -0.1277 -1.7080
15548TIP3   OH268134   3.959   5.925  14.266  0.0018  0.2821 -0.1088
15548TIP3    H168135   3.987   5.978  14.192  1.2393  0.9505  0.8028
15548TIP3    H268136   3.945   5.989  14.337  0.2538 -0.4817  0.6406
15549TIP3   OH268137   1.569   4.150  12.471  0.6233 -0.7788  0.0477
15549TIP3    H168138   1.494   4.162  12.529  0.1265 -0.7352 -0.5873
15549TIP3    H268139   1.633   4.104  12.524  0.7607  0.5436  1.0930
15550TIP3   OH268140   2.426   1.994  11.017  0.0563  0.0838  0.3561
15550TIP3    H168141   2.462   2.070  11.063 -1.6198  0.3109  1.3762
15550TIP3    H268142   2.350   2.028  10.970  0.6066 -0.5478 -1.0607
15551TIP3   OH268143   1.517   0.782   3.779  0.5696  0.1037  0.6527
15551TIP3    H168144   1.433   0.735   3.778  0.1351  0.8803  0.2363
15551TIP3    H268145   1.501   0.860   3.727  1.9272 -0.3814 -0.5455
15552TIP3   OH268146   3.847   1.679  15.800  0.2651 -0.7184  0.8048
15552TIP3    H168147   3.754   1.658  15.797 -0.6853  2.7725  1.6340
15552TIP3    H268148   3.874   1.658  15.889 -0.7744  1.6504  1.7619
15553TIP3   OH268149   5.321   4.925  13.055  0.3841 -0.5453  0.5855
15553TIP3    H168150   5.273   5.006  13.040  1.0985 -0.1143  0.5797
15553TIP3    H268151   5.404   4.937  13.008 -0.8599 -2.6571 -2.4459
15554TIP3   OH268152   3.063   6.752   5.477  0.1192 -0.6490  0.2542
15554TIP3    H168153   3.128   6.683   5.464 -0.9882 -1.6276 -0.2569
15554TIP3    H268154   2.987   6.707   5.514  0.0681  0.6403  1.8537
15555TIP3   OH268155   0.734   2.555   6.073  0.3539  0.0622 -0.1353
15555TIP3    H168156   0.674   2.612   6.122  0.4882  0.1659 -0.0905
15555TIP3    H268157   0.753   2.483   6.134  1.4055  0.7637  0.3979
15556TIP3   OH268158   3.131   0.026  16.502 -0.0272 -0.3355  0.2878
15556TIP3    H168159   3.143   0.064  16.415 -2.0164  1.1208  0.5809
15556TIP3    H268160   3.117   0.102  16.559  1.0829 -1.2725  1.8796
15557TIP3   OH268161   1.967   2.275   4.536  0.2918  0.0939  0.4371
15557TIP3    H168162   1.966   2.352   4.479 -0.9589 -0.4214 -0.2682
15557TIP3    H268163   1.932   2.204   4.482  0.7657 -0.8121  1.2943
15558TIP3   OH268164   5.218   0.620  16.354 -0.3179  0.5428 -0.0603
15558TIP3    H168165   5.135   0.668  16.345  0.2369  1.6578  0.6638
15558TIP3    H268166   5.284   0.679  16.318  0.3012  0.0662  0.2776
15559TIP3   OH268167   3.430   2.148   0.284  0.0422 -0.5056  0.2060
15559TIP3    H168168   3.463   2.195   0.207  0.9498 -0.2086  0.7552
15559TIP3    H268169   3.335   2.159   0.280  0.1298  0.0694 -0.5169
15560TIP3   OH268170   2.257   5.556   4.839 -0.9901 -0.2007 -0.1769
15560TIP3    H168171   2.302   5.634   4.807 -0.5004 -1.4201 -2.7583
15560TIP3    H268172   2.183   5.545   4.780 -1.0611 -1.6768  0.1470
15561TIP3   OH268173   0.286   2.960   0.473 -1.3238 -0.3356 -0.0662
15561TIP3    H168174   0.260   2.874   0.504 -0.7401 -0.2242  0.7685
15561TIP3    H268175   0.348   2.943   0.402 -1.0219 -0.6049  0.2623
15562TIP3   OH268176   6.414   6.565   4.997  0.5619 -0.0573 -0.2996
15562TIP3    H168177   6.396   6.479   4.959  0.4380  0.2415 -0.9203
15562TIP3    H268178   6.449   6.545   5.084  0.1801 -0.7258 -0.2909
15563TIP3   OH268179   1.053   0.536   4.870 -0.8865  0.1093  0.4093
15563TIP3    H168180   1.031   0.508   4.959 -0.2088 -2.6512 -0.2079
15563TIP3    H268181   1.144   0.509   4.858 -0.1724  2.5729 -0.3864
15564TIP3   OH268182   1.485   0.559   6.060  0.3336 -0.4266 -0.0444
15564TIP3    H168183   1.545   0.544   6.133 -0.0872 -1.4668  0.1025
15564TIP3    H268184   1.525   0.632   6.011 -0.2755  1.5033  2.1652
15565TIP3   OH268185   1.723   4.529  16.032  0.2935 -0.7440  0.1613
15565TIP3    H168186   1.655   4.465  16.051  1.3597 -1.6465  1.0110
15565TIP3    H268187   1.761   4.551  16.117  2.0208 -1.3509 -0.4068
15566TIP3   OH268188   6.051   0.223   4.536  0.2808  0.1672 -0.4357
15566TIP3    H168189   5.960   0.253   4.547  0.2958  0.6526 -1.4735
15566TIP3    H268190   6.095   0.251   4.616 -0.4366  0.1347 -0.0217
15567TIP3   OH268191   0.800   4.466  16.949 -0.5149  0.2634  0.8260
15567TIP3    H168192   0.832   4.551  16.919 -0.3515  0.3788  1.3025
15567TIP3    H268193   0.747   4.432  16.877  1.5633 -0.4351 -0.4742
15568TIP3   OH268194   5.969   3.950  17.046 -0.0729 -0.6075  0.6880
15568TIP3    H168195   5.904   3.918  16.984  2.2244 -1.1263 -1.6007
15568TIP3    H268196   5.965   4.045  17.038 -0.5964 -0.6270  0.6623
15569TIP3   OH268197   5.424   5.228   5.235 -0.1027  0.4222 -0.2305
15569TIP3    H168198   5.411   5.226   5.140 -1.7035 -0.4449 -0.0242
15569TIP3    H268199   5.359   5.166   5.270  2.0667 -1.1805  1.2720
15570TIP3   OH268200   0.420   3.613   1.036 -0.0932 -0.3793 -0.0248
15570TIP3    H168201   0.393   3.530   0.997  0.9005 -0.3196 -0.8795
15570TIP3    H268202   0.465   3.659   0.965 -1.3572  1.2570  0.1711
15571TIP3   OH268203   2.806   0.099  16.137  0.1641  0.0786  0.1973
15571TIP3    H168204   2.865   0.068  16.068  0.0162  0.6873 -0.2114
15571TIP3    H268205   2.769   0.180  16.102 -1.0585 -0.3900  0.3783
15572TIP3   OH268206   4.119   4.405   2.167 -0.1770 -0.0145 -0.1968
15572TIP3    H168207   4.159   4.339   2.111 -1.7011 -0.1245 -1.2091
15572TIP3    H268208   4.026   4.405   2.142 -0.6791  0.7618  1.5197
15573TIP3   OH268209   2.663   6.382   0.123 -0.1864  0.0711  0.3015
15573TIP3    H168210   2.604   6.439   0.173 -0.0626 -0.1646  0.7254
15573TIP3    H268211   2.750   6.405   0.154 -0.0010  0.8633 -0.7881
15574TIP3   OH268212   1.144   5.802   2.271 -0.1640  0.9489  0.2730
15574TIP3    H168213   1.096   5.879   2.301  1.4785  1.9075  0.6190
15574TIP3    H268214   1.226   5.838   2.237  1.1706 -0.7210  1.5439
15575TIP3   OH268215   3.915   1.630  15.394 -0.0841  0.4016 -0.1391
15575TIP3    H168216   3.933   1.537  15.404  0.2992  0.3712 -1.0372
15575TIP3    H268217   3.965   1.672  15.464  1.5924  0.1137 -1.1045
15576TIP3   OH268218   4.126   3.211  17.192 -0.0683  0.3355  0.5042
15576TIP3    H168219   4.205   3.206  17.138 -1.7675 -0.8259 -2.1236
15576TIP3    H268220   4.131   3.134  17.249  1.5053  1.2825  1.7301
15577TIP3   OH268221   2.622   6.457  10.302  0.0056  0.2484 -0.3595
15577TIP3    H168222   2.537   6.457  10.346  0.0852 -1.5663 -0.1508
15577TIP3    H268223   2.611   6.520  10.231 -1.7492 -0.4210 -0.7498
15578TIP3   OH268224   5.416   0.308  14.722 -0.1113  0.0558 -0.2274
15578TIP3    H168225   5.449   0.251  14.653 -1.1346 -0.8042 -0.0198
15578TIP3    H268226   5.428   0.259  14.803  1.3414  1.1680  0.2803
15579TIP3   OH268227   3.665   6.761   4.608  0.4635  0.4963  0.1059
15579TIP3    H168228   3.653   6.822   4.680  1.6764 -0.3018  1.0329
15579TIP3    H268229   3.655   6.674   4.648 -2.1628  0.0357 -1.3533
15580TIP3   OH268230   1.588   1.259   1.118  0.0398  0.8063 -0.2853
15580TIP3    H168231   1.575   1.189   1.055 -2.3997 -0.4284  1.4586
15580TIP3    H268232   1.515   1.319   1.104 -0.3094  0.7323  1.0508
15581TIP3   OH268233   5.293   1.473   4.829 -0.5343  0.4168 -0.0354
15581TIP3    H168234   5.333   1.447   4.913 -0.2085 -4.0729 -1.2858
15581TIP3    H268235   5.364   1.514   4.781 -0.3485  1.7998  1.3370
15582TIP3   OH268236   2.175   2.195   3.196 -0.5824 -0.0351  0.1472
15582TIP3    H168237   2.140   2.283   3.208 -1.4773 -0.2733 -0.6273
15582TIP3    H268238   2.269   2.204   3.213 -0.6223  1.1234 -0.1659
15583TIP3   OH268239   1.652   4.245   0.954 -0.2401 -0.0072  0.3805
15583TIP3    H168240   1.673   4.269   1.045  1.0621  1.1999 -0.2184
15583TIP3    H268241   1.711   4.173   0.934  0.4141  0.6145  0.0600
15584TIP3   OH268242   3.868   5.637   4.368 -0.1059  0.3314  0.2656
15584TIP3    H168243   3.863   5.718   4.420  1.6813  1.3830 -1.0877
15584TIP3    H268244   3.781   5.629   4.329 -0.1148  2.0477 -0.1758
15585TIP3   OH268245   1.927   5.938  14.705 -0.3526 -0.1445 -0.1912
15585TIP3    H168246   1.931   5.994  14.627 -0.8863  1.5996  0.9918
15585TIP3    H268247   2.007   5.958  14.753 -0.0476 -1.1820 -0.2410
15586TIP3   OH268248   1.281   2.514  15.793  0.0300 -0.3266  0.0237
15586TIP3    H168249   1.369   2.545  15.814 -0.7198  1.8131  0.2684
15586TIP3    H268250   1.254   2.570  15.720 -1.7840  0.3174  1.1328
15587TIP3   OH268251   0.524   4.770   4.579 -0.2074  0.2851  0.1187
15587TIP3    H168252   0.469   4.760   4.656  1.4509 -1.4448  1.1452
15587TIP3    H268253   0.565   4.856   4.590  1.2824 -0.6102  2.0911
15588TIP3   OH268254   3.934   0.303  15.117  0.3493  0.0908  0.7069
15588TIP3    H168255   3.983   0.226  15.088 -0.5750 -0.9377  1.7337
15588TIP3    H268256   3.842   0.275  15.110  0.0191  0.9543  1.4951
15589TIP3   OH268257   6.555   1.272   3.630  0.3582 -0.7402 -0.5647
15589TIP3    H168258   6.478   1.307   3.585  0.4610  0.0537 -0.1499
15589TIP3    H268259   6.555   1.179   3.609 -0.1951 -0.5820 -1.3216
15590TIP3   OH268260   0.647   2.471   0.008  0.5775 -0.4772 -0.4411
15590TIP3    H168261   0.579   2.498   0.071 -1.2327 -1.8216 -1.6973
15590TIP3    H268262   0.711   2.425   0.061  1.4379  2.2039  1.0439
15591TIP3   OH268263   5.991   2.667   2.255  0.1538  0.2159  0.2057
15591TIP3    H168264   6.025   2.629   2.174  1.2913  1.0318  0.2767
15591TIP3    H268265   5.932   2.736   2.226 -0.6262 -0.4736  0.0891
15592TIP3   OH268266   3.462   4.817  15.374 -0.1891  0.4596  0.4692
15592TIP3    H168267   3.515   4.790  15.448 -0.6329  1.6360  1.2439
15592TIP3    H268268   3.392   4.751  15.370  0.2039  0.0202  0.6661
15593TIP3   OH268269   3.023   3.332  15.453  0.2824 -0.0150  0.5088
15593TIP3    H168270   3.032   3.427  15.452 -1.4403  0.1838 -1.5682
15593TIP3    H268271   3.000   3.312  15.544  1.6084  1.4094  1.2057
15594TIP3   OH268272   4.066   5.905  14.758  0.0376  0.1276 -0.2318
15594TIP3    H168273   3.981   5.938  14.731 -1.2671 -2.1229  0.8535
15594TIP3    H268274   4.118   5.904  14.678 -1.6993 -0.5363 -1.4152
15595TIP3   OH268275   4.059   5.658   6.204  0.6234 -0.6182 -0.5504
15595TIP3    H168276   4.100   5.650   6.290  0.0412 -2.2303 -0.3931
15595TIP3    H268277   4.008   5.739   6.210  0.8305 -0.5459  0.5216
15596TIP3   OH268278   2.302   4.634  11.551  0.2116 -0.6147 -0.3311
15596TIP3    H168279   2.300   4.652  11.645  0.1585 -0.9460 -0.2696
15596TIP3    H268280   2.249   4.704  11.513  2.8184  1.4654 -0.4350
15597TIP3   OH268281   1.294   6.148  12.701  0.0686  0.8313  0.8055
15597TIP3    H168282   1.292   6.052  12.690 -1.5426  0.8757  0.4719
15597TIP3    H268283   1.322   6.161  12.791 -0.1169  0.0238  0.9917
15598TIP3   OH268284   5.881   5.960  10.995 -0.0958  0.1930 -0.1263
15598TIP3    H168285   5.835   6.028  10.946 -0.2409 -1.1266 -1.9211
15598TIP3    H268286   5.931   5.912  10.928  0.9171 -0.7389  1.2500
15599TIP3   OH268287   0.498   4.177  15.501 -0.0413 -0.2789  0.5525
15599TIP3    H168288   0.411   4.139  15.492 -0.0972  0.0017 -0.1846
15599TIP3    H268289   0.484   4.258  15.549 -0.6229  1.1745 -1.8904
15600TIP3   OH268290   4.406   4.822   1.496  0.4693 -0.0376 -0.4515
15600TIP3    H168291   4.322   4.799   1.456 -0.6348 -0.6904  2.0517
15600TIP3    H268292   4.465   4.835   1.422 -0.9885 -2.7483 -2.2596
15601TIP3   OH268293   3.401   3.751   1.204  0.1825 -0.3859  0.1401
15601TIP3    H168294   3.389   3.754   1.299  0.4177  0.9744  0.1472
15601TIP3    H268295   3.357   3.830   1.172  1.6034  0.1029 -0.6888
15602TIP3   OH268296   0.274   3.287  13.418  0.0118 -0.3504 -0.2422
15602TIP3    H168297   0.245   3.197  13.405 -1.4873  0.2279 -1.2080
15602TIP3    H268298   0.302   3.316  13.332 -2.1556  0.9399 -0.5872
15603TIP3   OH268299   2.756   0.618   5.749  0.0621 -0.1426 -0.4863
15603TIP3    H168300   2.740   0.708   5.777  1.7801 -0.1011  0.5286
15603TIP3    H268301   2.670   0.577   5.749 -0.9076  1.7542 -2.0266
15604TIP3   OH268302   1.565   4.368   2.068 -0.3514  0.0742  0.0074
15604TIP3    H168303   1.564   4.400   1.978  1.1219 -1.0944 -0.4471
15604TIP3    H268304   1.491   4.307   2.072  0.6821 -1.2979 -0.9836
15605TIP3   OH268305   5.594   1.045   3.465  0.2771 -0.1641  0.2954
15605TIP3    H168306   5.619   1.123   3.514 -0.6657  0.8151 -0.7264
15605TIP3    H268307   5.665   0.983   3.481  2.2471  1.7029 -0.7152
15606TIP3   OH268308   3.896   5.690   5.900  0.2990 -0.0689 -0.0707
15606TIP3    H168309   3.978   5.668   5.855  1.5481 -1.4873  2.6413
15606TIP3    H268310   3.912   5.776   5.938  0.9560 -0.7212  1.2079
15607TIP3   OH268311   4.710   2.239   2.574 -0.0665  0.0777 -0.1119
15607TIP3    H168312   4.699   2.148   2.546 -1.1789  0.0367  0.4138
15607TIP3    H268313   4.688   2.291   2.496 -0.1426 -0.0875 -0.2006
15608TIP3   OH268314   5.525   1.282  12.089  0.0707  0.1624  0.2653
15608TIP3    H168315   5.449   1.294  12.146  0.3367  0.1343  0.6329
15608TIP3    H268316   5.573   1.209  12.130 -0.0852 -0.3066 -0.3741
15609TIP3   OH268317   5.817   1.195   6.647 -0.1420  0.2369 -0.1431
15609TIP3    H168318   5.800   1.237   6.732 -1.5534 -1.9009  0.7289
15609TIP3    H268319   5.911   1.177   6.648 -0.2800 -0.6064  1.4220
15610TIP3   OH268320   0.329   0.239  15.975 -0.1361 -0.2668  0.1302
15610TIP3    H168321   0.409   0.201  16.009  0.5683  1.6412  0.7650
15610TIP3    H268322   0.357   0.291  15.900 -0.5360  1.2843  0.9894
15611TIP3   OH268323   3.549   5.767  12.468 -0.3006  0.5944  0.0317
15611TIP3    H168324   3.475   5.795  12.521 -1.8557  1.9176 -2.6494
15611TIP3    H268325   3.575   5.683  12.506 -2.1469  0.8235  2.0055
15612TIP3   OH268326   5.940   2.001  16.065  0.7917  0.0877  0.2231
15612TIP3    H168327   5.970   2.036  15.981  1.3213 -0.2886  0.2521
15612TIP3    H268328   5.847   2.023  16.067  0.9718  0.9088 -0.0488
15613TIP3   OH268329   4.836   0.520  12.493 -0.1032 -0.0388  0.1207
15613TIP3    H168330   4.746   0.505  12.520 -0.3414 -0.2000 -0.7496
15613TIP3    H268331   4.885   0.445  12.527 -0.5495 -0.6723 -0.6235
15614TIP3   OH268332   2.254   2.096   4.332  0.1713  0.0204  0.1200
15614TIP3    H168333   2.237   2.069   4.422 -0.8692  0.5672  0.1093
15614TIP3    H268334   2.346   2.121   4.331 -0.0723  1.0912  1.3351
15615TIP3   OH268335   6.159   2.286  16.192  0.7879 -0.0348 -0.2283
15615TIP3    H168336   6.242   2.300  16.146  0.9678  1.0183  0.3854
15615TIP3    H268337   6.092   2.291  16.124  1.1985 -0.7981 -0.7147
15616TIP3   OH268338   5.292   2.663  14.592  0.3140  0.0237 -0.0365
15616TIP3    H168339   5.227   2.664  14.662 -0.3966  1.2596 -0.6779
15616TIP3    H268340   5.376   2.654  14.637 -0.2900 -2.3407  0.7729
15617TIP3   OH268341   1.384   0.400  16.975  0.3289 -0.3458  0.7047
15617TIP3    H168342   1.323   0.392  17.049  0.7263  0.7721  1.1709
15617TIP3    H268343   1.444   0.470  17.001  0.6574 -0.1442 -0.5524
15618TIP3   OH268344   3.637   2.367   3.597  0.1282 -0.2258 -0.9847
15618TIP3    H168345   3.720   2.412   3.612  0.1614 -1.1319  2.2812
15618TIP3    H268346   3.582   2.392   3.671 -1.7107 -1.4678 -1.8524
15619TIP3   OH268347   2.207   4.519   4.589 -0.1946  0.2801 -0.0130
15619TIP3    H168348   2.116   4.489   4.596  0.3439 -1.2052  1.4846
15619TIP3    H268349   2.251   4.450   4.539  0.1674  0.8996 -0.5654
15620TIP3   OH268350   5.132   1.336   0.985  0.3626  0.5673  0.3246
15620TIP3    H168351   5.069   1.392   0.939  1.0157 -0.1539 -1.5160
15620TIP3    H268352   5.098   1.247   0.974  1.8800  0.1194 -1.0914
15621TIP3   OH268353   2.318   6.407   5.411 -0.1330  0.0168  0.1894
15621TIP3    H168354   2.334   6.343   5.480 -0.4036  1.0426  1.2263
15621TIP3    H268355   2.314   6.491   5.456 -1.0746  0.6305 -0.9796
15622TIP3   OH268356   2.675   6.082  14.435 -0.2405 -0.2909  0.2250
15622TIP3    H168357   2.738   6.018  14.468 -0.3898  0.2026  1.5440
15622TIP3    H268358   2.715   6.167  14.455 -1.2174  0.0267  0.9177
15623TIP3   OH268359   3.683   2.169  14.071  0.9821  0.0168 -0.1834
15623TIP3    H168360   3.634   2.161  13.989 -1.1113  0.7042  0.9284
15623TIP3    H268361   3.699   2.263  14.080 -0.0206  0.1052  0.8377
15624TIP3   OH268362   6.552   1.867   4.379  0.3857 -0.4157 -0.1576
15624TIP3    H168363   6.465   1.846   4.344  0.6727 -0.0845 -1.1024
15624TIP3    H268364   6.591   1.925   4.313  0.7103  0.7369  1.0040
15625TIP3   OH268365   4.848   6.596   3.473  0.4016 -0.0145  0.0168
15625TIP3    H168366   4.829   6.649   3.395 -0.6283  0.0513  0.3001
15625TIP3    H268367   4.913   6.647   3.521  0.5674  0.2510 -0.4833
15626TIP3   OH268368   1.903   5.513  10.770 -0.0240  0.4271  0.2017
15626TIP3    H168369   1.846   5.498  10.694 -0.2051  1.1864  0.1770
15626TIP3    H268370   1.990   5.489  10.740 -0.3058 -0.7192  0.2281
15627TIP3   OH268371   1.409   5.501  10.421  0.3655 -0.6384  0.4339
15627TIP3    H168372   1.446   5.448  10.350 -0.4919  0.1849 -0.6706
15627TIP3    H268373   1.478   5.564  10.442  0.6234 -0.8806  0.3259
15628TIP3   OH268374   4.686   6.039  11.861  0.3034  0.4351  0.0042
15628TIP3    H168375   4.605   6.091  11.864  1.2718  1.9595  1.6516
15628TIP3    H268376   4.677   5.977  11.933  0.5674  0.6076  0.1906
15629TIP3   OH268377   0.797   3.956  12.758 -0.4293 -0.0095 -0.2640
15629TIP3    H168378   0.729   3.958  12.691 -0.2205  0.0618 -0.4790
15629TIP3    H268379   0.867   4.011  12.722  0.5701 -1.6315 -0.9630
15630TIP3   OH268380   4.116   4.743   4.484  0.5079 -0.2235 -0.3165
15630TIP3    H168381   4.106   4.788   4.568 -0.1964 -0.3854 -0.3088
15630TIP3    H268382   4.177   4.798   4.435 -1.8074  1.8909 -1.0807
15631TIP3   OH268383   3.939   2.862  12.542 -0.0379 -0.1063  0.2305
15631TIP3    H168384   3.875   2.932  12.529  1.2051  1.1848  0.7445
15631TIP3    H268385   3.979   2.850  12.456  0.9790  1.1004  0.5130
15632TIP3   OH268386   0.009   3.591  10.665  0.2346 -0.1793  0.0616
15632TIP3    H168387  -0.033   3.600  10.750  0.7316 -1.9069  0.5339
15632TIP3    H268388  -0.047   3.531  10.616 -0.1948  1.0041 -0.9732
15633TIP3   OH268389   4.492   2.851  11.835 -0.1032  0.0023  0.9440
15633TIP3    H168390   4.504   2.942  11.810 -0.6877 -0.5021 -1.4754
15633TIP3    H268391   4.397   2.840  11.843 -0.0239 -0.3399  1.4529
15634TIP3   OH268392   5.922   3.755   4.397 -0.1907  0.1038 -0.2579
15634TIP3    H168393   5.836   3.726   4.426  0.0216  0.7063  1.0422
15634TIP3    H268394   5.917   3.851   4.400  0.4012  0.1482 -0.5566
15635TIP3   OH268395   3.992   3.205   2.941 -0.0374 -0.5832 -0.1710
15635TIP3    H168396   3.939   3.188   3.019 -0.7446 -0.9643 -0.7256
15635TIP3    H268397   4.011   3.299   2.946 -0.5299 -0.4929  0.1842
15636TIP3   OH268398   0.346   4.798  10.831 -0.2609 -0.4587  0.8099
15636TIP3    H168399   0.406   4.869  10.853  1.5727 -1.0681 -1.6724
15636TIP3    H268400   0.311   4.768  10.915  0.6954  1.8000  2.1099
15637TIP3   OH268401   3.324   2.177   0.635  0.0528 -0.5647 -0.0106
15637TIP3    H168402   3.290   2.099   0.681  1.2326 -0.8338  0.4452
15637TIP3    H268403   3.249   2.209   0.584 -1.2321 -0.4774  1.7994
15638TIP3   OH268404   1.283   3.384   0.430  0.0070 -0.0806  0.3105
15638TIP3    H168405   1.232   3.460   0.401  0.1091 -1.0211 -2.6466
15638TIP3    H268406   1.361   3.422   0.471 -0.0362  1.4244 -0.8995
15639TIP3   OH268407   0.827   1.517  16.871  0.0973 -0.2424 -0.3038
15639TIP3    H168408   0.780   1.522  16.954 -1.4373  1.2563 -1.2050
15639TIP3    H268409   0.777   1.453  16.819 -0.2256  0.4062 -0.8093
15640TIP3   OH268410   0.778   4.275  13.804  0.2836  0.6073  0.5783
15640TIP3    H168411   0.781   4.184  13.833 -0.0710  0.4927  0.2559
15640TIP3    H268412   0.790   4.271  13.709 -1.1136  0.7785  0.3704
15641TIP3   OH268413   1.478   3.754  15.982  0.3577 -0.6507 -0.2841
15641TIP3    H168414   1.570   3.755  16.007  0.4032 -1.5190 -0.3796
15641TIP3    H268415   1.431   3.787  16.059  0.9087  2.6495 -1.1957
15642TIP3   OH268416   0.036   2.866   6.236 -0.2803 -0.2936 -0.1598
15642TIP3    H168417  -0.038   2.923   6.219 -1.1668 -1.5225 -0.5199
15642TIP3    H268418   0.001   2.777   6.227  1.1547 -0.8994 -0.0237
15643TIP3   OH268419   5.241   3.959  12.305 -0.4838 -0.1848  0.2529
15643TIP3    H168420   5.203   3.985  12.222 -1.2554  0.5044  0.7986
15643TIP3    H268421   5.288   3.878  12.287  0.4718  0.6423 -1.1354
15644TIP3   OH268422   1.723   1.523  13.526 -0.2533 -0.6749 -0.0960
15644TIP3    H168423   1.771   1.584  13.581 -0.0634 -0.3159 -0.6467
15644TIP3    H268424   1.781   1.448  13.516 -1.2958 -1.8754  2.2554
15645TIP3   OH268425   2.542   3.951  14.110  0.4797  0.6249 -0.3451
15645TIP3    H168426   2.482   3.955  14.036  1.8536  0.9938 -1.4709
15645TIP3    H268427   2.526   3.865  14.149 -1.4443  1.1004 -0.0091
15646TIP3   OH268428   6.354   6.709   4.425 -0.6239  0.2667 -0.0789
15646TIP3    H168429   6.261   6.706   4.400 -0.7865  1.6471  0.3104
15646TIP3    H268430   6.367   6.797   4.459  1.0125  0.3395 -0.8017
15647TIP3   OH268431   0.197   5.696  12.896  0.0200  0.0624 -0.1329
15647TIP3    H168432   0.195   5.614  12.847 -1.7708 -0.4430  0.7210
15647TIP3    H268433   0.157   5.760  12.837 -1.5355 -0.4049  0.3751
15648TIP3   OH268434   5.469   5.394  11.268  0.1047  0.1773 -0.4263
15648TIP3    H168435   5.436   5.478  11.237  0.0456  0.9987  1.6980
15648TIP3    H268436   5.555   5.414  11.306 -0.0864 -0.6258  0.4673
15649TIP3   OH268437   6.749   3.683  17.043 -0.1248 -0.3843  0.5064
15649TIP3    H168438   6.730   3.717  16.956 -0.7814 -0.1783  0.7273
15649TIP3    H268439   6.690   3.608  17.053 -0.8919  0.2840  1.2100
15650TIP3   OH268440   4.809   6.467   3.961 -0.4365  0.3195  0.2001
15650TIP3    H168441   4.792   6.494   4.051 -2.2414  1.1172 -0.3278
15650TIP3    H268442   4.843   6.546   3.919  1.4006 -0.3184  0.3692
15651TIP3   OH268443   1.375   4.128  16.109  0.3113  0.0386 -0.0499
15651TIP3    H168444   1.337   4.063  16.167  1.8694 -1.4687 -0.6470
15651TIP3    H268445   1.305   4.149  16.047 -0.7266  0.1960  1.1309
15652TIP3   OH268446   3.001   0.775   2.998 -0.0092 -0.8771  0.6943
15652TIP3    H168447   2.910   0.799   3.019 -0.2105 -1.7388  0.8392
15652TIP3    H268448   2.993   0.714   2.925  0.4971 -0.4961  0.3161
15653TIP3   OH268449   2.378   1.592  14.048 -0.1577 -0.5212  0.0265
15653TIP3    H168450   2.344   1.521  13.993 -1.6284 -0.5947  0.9789
15653TIP3    H268451   2.472   1.594  14.029 -0.7470  0.5052 -3.7099
15654TIP3   OH268452   3.726   6.501  12.917 -0.5300 -0.0141 -0.1543
15654TIP3    H168453   3.679   6.574  12.957  0.3280  1.6252 -1.9580
15654TIP3    H268454   3.683   6.488  12.833  0.2153 -0.6410 -0.4511
15655TIP3   OH268455   5.923   0.343  12.447  0.1785 -0.5374 -0.1172
15655TIP3    H168456   5.878   0.427  12.440 -0.4663 -0.7808  0.8504
15655TIP3    H268457   6.000   0.361  12.501  0.3209 -0.4652 -0.3441
15656TIP3   OH268458   6.262   2.498   0.302  0.0477 -0.5882 -0.1655
15656TIP3    H168459   6.303   2.556   0.366  1.2256 -3.0526  1.4961
15656TIP3    H268460   6.204   2.554   0.251 -1.8936  1.3644  3.8004
15657TIP3   OH268461   3.951   3.296  13.240 -0.1584  0.1890  0.7488
15657TIP3    H168462   3.885   3.261  13.180  0.6263  1.7639 -1.1407
15657TIP3    H268463   4.022   3.233  13.238 -0.9956 -0.8429  1.7600
15658TIP3   OH268464   5.678   2.433   2.980  0.3631 -0.4481  0.2557
15658TIP3    H168465   5.695   2.447   2.887  0.8713 -0.1374  0.3909
15658TIP3    H268466   5.586   2.456   2.992  1.0455  2.6322  0.4200
15659TIP3   OH268467   5.250   2.065   3.913 -0.0217  0.3198  0.4277
15659TIP3    H168468   5.301   2.123   3.969  0.1470 -1.0617  1.7611
15659TIP3    H268469   5.232   1.988   3.967 -1.6324 -0.1862 -0.7400
15660TIP3   OH268470   2.239   3.581  14.389 -0.1014  0.3646 -0.1018
15660TIP3    H168471   2.169   3.619  14.442 -0.1988  0.1439 -0.0697
15660TIP3    H268472   2.313   3.574  14.448  0.1887  1.3070 -0.3385
15661TIP3   OH268473   1.987   3.983  12.277 -0.6390  1.1593  0.1316
15661TIP3    H168474   2.072   4.028  12.277 -0.4985  0.8955 -0.2515
15661TIP3    H268475   2.008   3.891  12.261 -0.9318  0.9581  0.9048
15662TIP3   OH268476   6.789   1.605   0.617 -0.0801 -0.1078 -0.4111
15662TIP3    H168477   6.754   1.693   0.602 -1.6757 -0.8408 -1.3417
15662TIP3    H268478   6.767   1.556   0.538 -1.0209 -1.8549  0.8352
15663TIP3   OH268479   0.832   0.587   3.253 -0.4702  0.1401 -0.1568
15663TIP3    H168480   0.826   0.590   3.349  1.7288  1.2288  0.0149
15663TIP3    H268481   0.907   0.643   3.232 -0.4011 -0.7047 -2.4764
15664TIP3   OH268482   4.544   0.636   2.923  0.1668 -0.4450 -0.0191
15664TIP3    H168483   4.525   0.603   3.011  0.4443 -0.9461 -0.1439
15664TIP3    H268484   4.576   0.560   2.875 -0.8615 -0.3892 -0.8269
15665TIP3   OH268485   3.798   3.255   1.818 -0.3535 -0.0954  0.2519
15665TIP3    H168486   3.800   3.350   1.811 -2.1082 -0.1108 -1.4254
15665TIP3    H268487   3.746   3.238   1.896  1.5353  0.2683  1.6427
15666TIP3   OH268488   5.834   1.782   6.333 -0.8686 -0.4033 -0.1798
15666TIP3    H168489   5.769   1.802   6.399 -1.6049 -1.5121 -0.5294
15666TIP3    H268490   5.792   1.716   6.277  0.4828 -1.0346 -0.5111
15667TIP3   OH268491   3.361   2.414   1.703 -0.1522  0.2279 -0.6613
15667TIP3    H168492   3.291   2.349   1.707 -0.9936  1.1471 -0.0931
15667TIP3    H268493   3.324   2.487   1.653  1.2870 -0.2856 -2.6353
15668TIP3   OH268494   1.897   5.448  11.979  0.1248 -0.2001 -0.1236
15668TIP3    H168495   1.814   5.441  11.932  0.0959  0.2689 -0.1458
15668TIP3    H268496   1.900   5.538  12.010  0.8127 -0.0888 -0.4817
15669TIP3   OH268497   1.429   0.460   2.892 -0.9520 -0.1507  0.4754
15669TIP3    H168498   1.358   0.523   2.905 -0.8347  0.1333 -0.2206
15669TIP3    H268499   1.507   0.505   2.927 -0.8920  0.0438  0.0982
15670TIP3   OH268500   2.865   5.820  13.201  0.3334  0.1550  0.8020
15670TIP3    H168501   2.799   5.870  13.153  0.5269  2.5386  2.8201
15670TIP3    H268502   2.947   5.838  13.154 -0.1310 -1.6343 -0.8399
15671TIP3   OH268503   0.138   2.269  14.884  0.0333 -0.3445  0.2781
15671TIP3    H168504   0.164   2.358  14.906  0.2392  0.1851 -1.8271
15671TIP3    H268505   0.210   2.237  14.829 -0.1244 -1.7597  0.8563
15672TIP3   OH268506   3.010   0.898  11.608  0.0869 -0.1198 -0.5921
15672TIP3    H168507   2.966   0.845  11.674 -0.6126  2.2891  1.0341
15672TIP3    H268508   3.102   0.876  11.616 -0.1520 -0.8248  0.2821
15673TIP3   OH268509   5.110   2.025  13.659  0.2666  0.0757 -0.6180
15673TIP3    H168510   5.170   2.039  13.586  0.8966 -0.8774 -0.3081
15673TIP3    H268511   5.131   2.095  13.721  2.4062 -1.2631  0.3027
15674TIP3   OH268512   2.647   0.764  11.104  0.2919  0.5633  0.7609
15674TIP3    H168513   2.694   0.774  11.021  0.0761  0.8213  0.6696
15674TIP3    H268514   2.687   0.686  11.145 -1.8219 -1.6480 -1.0816
15675TIP3   OH268515   0.866   5.302  13.716 -0.2685  0.2861 -0.1791
15675TIP3    H168516   0.821   5.341  13.791 -1.8600  0.7891 -1.3523
15675TIP3    H268517   0.890   5.214  13.746 -3.0103 -0.4160  0.1945
15676TIP3   OH268518   1.734   4.556   3.213  0.3227 -0.3736 -0.4628
15676TIP3    H168519   1.727   4.641   3.256 -1.6093  0.3083 -1.9501
15676TIP3    H268520   1.828   4.536   3.213  0.8195  1.7317 -0.0559
15677TIP3   OH268521   1.544   2.173   6.329  0.0879 -0.1023 -0.2263
15677TIP3    H168522   1.496   2.162   6.411  0.2367  0.2669 -0.0851
15677TIP3    H268523   1.579   2.086   6.310  0.8215 -0.0062  0.5933
15678TIP3   OH268524   4.585   4.468   6.354  0.4107  0.1184 -0.0880
15678TIP3    H168525   4.676   4.458   6.324  0.3860 -0.4652  0.0209
15678TIP3    H268526   4.591   4.533   6.425  0.7044  0.2767 -0.2535
15679TIP3   OH268527   0.890   5.719  10.898 -0.4261 -0.1662  0.1679
15679TIP3    H168528   0.848   5.763  10.825 -0.4044  0.0332  0.2771
15679TIP3    H268529   0.927   5.639  10.859 -1.1044 -0.4625  0.1225
15680TIP3   OH268530   4.799   1.238  12.272 -0.1023  0.2213 -0.4505
15680TIP3    H168531   4.745   1.317  12.274  1.4556  1.3250  0.3424
15680TIP3    H268532   4.826   1.225  12.363  0.3387 -0.7441 -0.7059
15681TIP3   OH268533   2.596   3.718  10.699  0.1439 -0.1739 -0.1503
15681TIP3    H168534   2.594   3.782  10.627  0.5844  0.2858  0.2328
15681TIP3    H268535   2.654   3.649  10.667 -1.7351 -1.2936 -1.2865
15682TIP3   OH268536   1.925   4.167   4.159  0.2942  0.5658 -0.2897
15682TIP3    H168537   1.975   4.099   4.204 -1.8827 -0.2576  1.0147
15682TIP3    H268538   1.985   4.199   4.091  2.2690 -0.9060  0.6473
15683TIP3   OH268539   4.943   1.581  14.445 -0.0219  0.7802 -0.1629
15683TIP3    H168540   5.013   1.643  14.424  1.1102 -0.8090 -1.2482
15683TIP3    H268541   4.883   1.631  14.500  1.9189  2.2254  0.7481
15684TIP3   OH268542   2.756   5.965   1.426  0.0834 -0.2377  0.6484
15684TIP3    H168543   2.760   5.935   1.335 -0.6300  0.3517  0.4053
15684TIP3    H268544   2.783   6.057   1.422  1.0651 -0.4936  1.1973
15685TIP3   OH268545   5.628   5.507  15.652 -0.4962 -0.6713 -0.4263
15685TIP3    H168546   5.644   5.533  15.562 -0.5365 -0.6672 -0.4319
15685TIP3    H268547   5.706   5.457  15.676  1.1518  2.2231  0.6743
15686TIP3   OH268548   2.567   3.495   2.457  0.9461 -0.3359  0.4128
15686TIP3    H168549   2.538   3.562   2.519  0.3959  1.2546 -1.4969
15686TIP3    H268550   2.657   3.476   2.484  0.8177  0.5337  1.5210
15687TIP3   OH268551   2.023   4.584   2.692  0.2666 -0.9812 -0.1096
15687TIP3    H168552   1.972   4.519   2.642  0.4920 -0.2951 -1.2598
15687TIP3    H268553   2.012   4.665   2.644  0.6306 -0.3213  0.8912
15688TIP3   OH268554   5.567   4.592   0.623  0.0818 -0.4030 -0.6184
15688TIP3    H168555   5.648   4.544   0.604  0.3389 -1.9607  3.4416
15688TIP3    H268556   5.501   4.525   0.637 -0.7812  0.6295  0.4987
15689TIP3   OH268557   0.942   3.980   2.438 -0.0893 -0.0506  0.7113
15689TIP3    H168558   0.867   4.018   2.484 -0.0420 -0.2083  0.9183
15689TIP3    H268559   0.938   4.019   2.350  0.3924  1.0075  1.1421
15690TIP3   OH268560   6.183   4.261  12.721 -0.4398  0.2478 -0.5167
15690TIP3    H168561   6.241   4.186  12.736 -1.4768 -0.5989 -0.6099
15690TIP3    H268562   6.223   4.332  12.771 -1.9402 -1.5842  3.7987
15691TIP3   OH268563   2.678   1.253   2.375  0.4030  0.6496  0.0036
15691TIP3    H168564   2.737   1.179   2.366  0.1842  0.4093  0.5503
15691TIP3    H268565   2.688   1.302   2.293 -1.1246 -1.1886 -1.3780
15692TIP3   OH268566   4.929   1.063  16.243  0.1715  0.0361  0.2946
15692TIP3    H168567   4.965   1.133  16.189  1.8656 -0.3335  0.9063
15692TIP3    H268568   4.893   1.108  16.320 -0.1180  0.3570 -0.0282
15693TIP3   OH268569   0.397   1.348   5.918 -0.2899 -0.6071 -0.2513
15693TIP3    H168570   0.476   1.296   5.932 -0.5183 -0.8391  0.2065
15693TIP3    H268571   0.332   1.285   5.888 -0.5844 -0.6065  0.3609
15694TIP3   OH268572   4.765   0.760  16.380  0.0450 -0.1769  0.0896
15694TIP3    H168573   4.807   0.799  16.303  0.5033 -1.4451 -0.3282
15694TIP3    H268574   4.810   0.676  16.392 -0.5628 -0.3551  1.2643
15695TIP3   OH268575   5.204   6.081   0.181 -0.7289 -0.0004  0.5141
15695TIP3    H168576   5.171   6.013   0.240  0.4748 -0.8335  0.2343
15695TIP3    H268577   5.182   6.163   0.226  0.6179 -0.6113  2.4199
15696TIP3   OH268578   1.639   2.214  16.784 -0.0588  0.2136  0.1164
15696TIP3    H168579   1.606   2.213  16.694 -1.0736  2.5622  0.4034
15696TIP3    H268580   1.710   2.149  16.784 -0.0775  0.0990 -2.3461
15697TIP3   OH268581   1.999   1.783   3.190 -0.1599 -0.4425 -0.5457
15697TIP3    H168582   1.906   1.770   3.171 -0.2401  0.2542 -0.6480
15697TIP3    H268583   2.001   1.825   3.276  0.0716 -0.6809 -0.4326
15698TIP3   OH268584   6.538   0.030  15.479 -0.2989  0.2672  0.9698
15698TIP3    H168585   6.583  -0.010  15.405 -0.3791 -0.0021  1.0669
15698TIP3    H268586   6.460  -0.024  15.491  0.1574 -0.2155  1.8097
15699TIP3   OH268587   2.113   1.415  14.417  0.5408  0.4275 -0.1895
15699TIP3    H168588   2.182   1.359  14.382  1.1528 -0.4544  2.2122
15699TIP3    H268589   2.063   1.358  14.476 -1.0116  1.5571 -0.3393
15700TIP3   OH268590   6.216   5.610  16.500 -0.3744 -0.1235  0.1163
15700TIP3    H168591   6.247   5.520  16.510 -0.9734 -0.3711 -0.2061
15700TIP3    H268592   6.294   5.660  16.475 -0.3403 -0.8396 -1.3049
15701TIP3   OH268593   1.620   2.973  14.382 -0.1259  0.1286 -0.3147
15701TIP3    H168594   1.611   3.021  14.300 -0.4950  0.7422  0.0781
15701TIP3    H268595   1.531   2.942  14.402  0.3220 -1.9027 -1.2564
15702TIP3   OH268596   1.049   2.070  14.980 -0.2523  0.1725  0.2928
15702TIP3    H168597   1.118   2.093  14.918 -1.5840 -0.7426 -1.6731
15702TIP3    H268598   0.981   2.031  14.925 -1.1089 -1.6470  2.4905
15703TIP3   OH268599   4.492   3.207   2.333 -0.2940 -0.8376 -0.0765
15703TIP3    H168600   4.447   3.190   2.416 -0.1083 -2.6377 -0.2933
15703TIP3    H268601   4.424   3.238   2.275 -0.5630 -0.2134  0.5611
15704TIP3   OH268602   1.825   3.120   5.357  0.3978 -0.1542  0.0757
15704TIP3    H168603   1.837   3.196   5.301  0.7076  1.6983  2.4988
15704TIP3    H268604   1.731   3.114   5.371  0.2280 -1.1803 -1.2755
15705TIP3   OH268605   0.983   2.073   1.773  0.2231  0.2471  0.2761
15705TIP3    H168606   0.917   2.006   1.790  1.4587 -0.7287  1.4442
15705TIP3    H268607   0.945   2.154   1.808 -1.8977  0.5627 -2.4374
15706TIP3   OH268608   5.444   4.818   0.505 -0.3900  0.6447  0.4696
15706TIP3    H168609   5.374   4.780   0.558 -0.1147 -0.0445  0.3411
15706TIP3    H268610   5.519   4.760   0.517  0.2821  1.5797  0.9023
15707TIP3   OH268611   4.417   5.731   2.494  0.1327 -0.0980  0.2556
15707TIP3    H168612   4.356   5.662   2.519 -1.9005  2.0668  1.7137
15707TIP3    H268613   4.434   5.778   2.575  0.8493  1.5631 -0.8011
15708TIP3   OH268614   4.253   5.033   6.009 -0.5810 -0.0647 -0.0332
15708TIP3    H168615   4.233   5.037   6.103 -2.1280 -2.3249 -0.1866
15708TIP3    H268616   4.195   5.098   5.969 -0.3418  0.4921  0.5083
15709TIP3   OH268617   5.017   1.521  15.490 -0.6413 -0.0359  0.1383
15709TIP3    H168618   4.963   1.518  15.569 -0.6094  2.2748  0.3349
15709TIP3    H268619   5.065   1.604  15.497  0.3667 -0.4020 -1.6799
15710TIP3   OH268620   1.039   5.184  14.003  0.0139  0.0770 -0.0445
15710TIP3    H168621   1.131   5.212  14.004  0.1257 -0.2269 -1.0233
15710TIP3    H268622   1.011   5.193  14.094  1.5780 -1.6679  0.6771
15711TIP3   OH268623   6.239   1.863   0.973  0.1087  0.1371  0.0743
15711TIP3    H168624   6.265   1.807   1.046  0.5683  0.5524  0.2328
15711TIP3    H268625   6.321   1.899   0.940 -0.2427  1.2977  0.4411
15712TIP3   OH268626   1.763   2.028  16.541  0.1031 -0.0070 -0.2752
15712TIP3    H168627   1.795   2.117  16.524 -2.4221  1.4822  1.9654
15712TIP3    H268628   1.796   2.006  16.628 -2.3839  0.4544  0.8928
15713TIP3   OH268629   5.031   2.654  15.964 -0.3344 -0.1049  0.2725
15713TIP3    H168630   5.007   2.732  15.914  0.6928 -0.5443 -0.9572
15713TIP3    H268631   4.951   2.602  15.967 -0.1164 -0.6449 -2.0439
15714TIP3   OH268632   6.547   1.695   5.599  0.0748  0.8885  0.5877
15714TIP3    H168633   6.564   1.618   5.654  0.9277  0.7042  0.0807
15714TIP3    H268634   6.572   1.769   5.654 -0.8597  0.8203  1.1211
15715TIP3   OH268635   3.699   1.723   3.512 -0.1412  0.0278  0.3783
15715TIP3    H168636   3.720   1.657   3.578  0.8088 -0.3189 -0.2521
15715TIP3    H268637   3.754   1.798   3.535 -1.3272  0.6890  1.1810
15716TIP3   OH268638   0.804   4.568   5.933  0.3977  0.1697 -0.3015
15716TIP3    H168639   0.885   4.539   5.977  1.9922  3.0569 -1.0776
15716TIP3    H268640   0.778   4.646   5.982 -1.2612 -0.0322 -0.8285
15717TIP3   OH268641   6.101   4.068  15.996 -0.2856  0.0217  0.1053
15717TIP3    H168642   6.100   3.974  15.978 -2.1472  0.2453 -1.2933
15717TIP3    H268643   6.166   4.104  15.935 -0.3059 -0.2490 -0.0773
15718TIP3   OH268644   0.080   6.495   2.788 -0.2742 -0.2212 -0.1241
15718TIP3    H168645   0.169   6.528   2.775 -0.2624 -0.7041 -1.4581
15718TIP3    H268646   0.092   6.409   2.828 -0.1147 -0.4497 -0.6542
15719TIP3   OH268647   1.894   6.298   2.594 -0.0440  0.3325  0.5860
15719TIP3    H168648   1.887   6.205   2.574  1.0551  0.5169 -0.8335
15719TIP3    H268649   1.806   6.324   2.619 -0.5929 -0.8731 -0.0023
15720TIP3   OH268650   5.047   1.353   4.819  0.3353 -0.4475 -0.3800
15720TIP3    H168651   5.136   1.386   4.819  0.1354  0.1144 -0.9267
15720TIP3    H268652   5.025   1.342   4.911  0.6180  0.3761 -0.2114
15721TIP3   OH268653   1.343   4.338  11.842 -0.0294 -0.1957  0.0861
15721TIP3    H168654   1.293   4.413  11.809 -0.5973 -1.1206 -1.2176
15721TIP3    H268655   1.433   4.369  11.844 -0.2706  0.5669 -0.3045
15722TIP3   OH268656   0.339   6.462   2.293  0.0987 -0.2172 -0.1468
15722TIP3    H168657   0.280   6.512   2.237  0.2113  0.5443  0.4007
15722TIP3    H268658   0.286   6.390   2.326 -0.6395  0.6584  0.6150
15723TIP3   OH268659   3.065   3.053  12.669  0.1304  0.1143  0.3301
15723TIP3    H168660   3.130   3.021  12.732 -0.1416  1.3100  1.2542
15723TIP3    H268661   3.098   3.139  12.643  0.2177 -0.3498 -1.1597
15724TIP3   OH268662   2.694   2.194  17.173  0.4504  0.4741  0.1776
15724TIP3    H168663   2.602   2.178  17.194  0.1844  1.6181 -0.0611
15724TIP3    H268664   2.728   2.244  17.247  1.2466 -1.0398  0.8808
15725TIP3   OH268665   5.960   3.931  11.491  0.2854  0.4404 -0.0764
15725TIP3    H168666   5.879   3.891  11.520 -0.2931  1.1790 -0.6275
15725TIP3    H268667   5.946   3.949  11.398  1.3794 -0.1405 -0.3807
15726TIP3   OH268668   2.610   0.552  16.560  0.6940 -0.3050 -0.1716
15726TIP3    H168669   2.518   0.572  16.576  0.8758  0.4217  0.0137
15726TIP3    H268670   2.658   0.606  16.623  1.2703 -0.2172 -0.6731
15727TIP3   OH268671   1.428   5.040   1.384  0.2881  0.4993 -0.2335
15727TIP3    H168672   1.364   4.975   1.412 -0.8750  1.7088  0.0134
15727TIP3    H268673   1.472   5.000   1.308 -0.6116 -0.4375 -0.2686
15728TIP3   OH268674   6.819   3.071   0.894 -0.2391 -0.9292  0.5717
15728TIP3    H168675   6.846   3.064   0.986  1.0550 -1.1614  0.2038
15728TIP3    H268676   6.895   3.040   0.845  0.2990  2.0552 -0.6842
15729TIP3   OH268677   4.973   4.644   0.984 -0.3919 -0.0010  0.0845
15729TIP3    H168678   4.961   4.736   1.006  0.0126  0.3220 -0.9825
15729TIP3    H268679   4.884   4.610   0.975 -0.5414  0.3848  0.0754
15730TIP3   OH268680   5.682   4.057  16.358  0.1933  0.1211 -0.3276
15730TIP3    H168681   5.609   4.117  16.349  1.7994  2.0876 -0.9408
15730TIP3    H268682   5.738   4.096  16.424  0.2482 -1.8772  0.9004
15731TIP3   OH268683   5.978   5.508  12.223 -0.5604  0.1725 -0.0558
15731TIP3    H168684   6.030   5.483  12.147  0.0715 -0.7097  0.6545
15731TIP3    H268685   6.004   5.598  12.241  1.8609 -0.6987  1.1810
15732TIP3   OH268686   5.805   2.361   2.032 -0.0525 -0.2141 -0.5299
15732TIP3    H168687   5.853   2.436   2.067  2.8958 -2.3990  0.4768
15732TIP3    H268688   5.871   2.309   1.986 -1.9690 -2.1919 -1.2346
15733TIP3   OH268689   3.026   0.385   3.713  0.3374 -0.2049  0.2528
15733TIP3    H168690   2.979   0.464   3.738  1.6805  0.6541  0.1649
15733TIP3    H268691   2.971   0.343   3.647 -0.8127  0.1739  0.9471
15734TIP3   OH268692   3.535   5.196   5.798 -0.0435  0.3288 -0.8042
15734TIP3    H168693   3.451   5.239   5.785  0.7018  1.3731 -2.5479
15734TIP3    H268694   3.596   5.267   5.816  0.4931 -0.4062  0.3697
15735TIP3   OH268695   0.788   6.539  15.179  0.0004  0.2234 -0.5164
15735TIP3    H168696   0.698   6.569  15.178  0.5658  2.0410 -1.2483
15735TIP3    H268697   0.806   6.514  15.088  0.2735 -0.0095 -0.3997
15736TIP3   OH268698   2.554   2.914  13.711 -0.4502 -0.0090  0.0457
15736TIP3    H168699   2.582   2.842  13.768 -1.9686 -0.7952 -0.1534
15736TIP3    H268700   2.554   2.875  13.623  1.1390  0.9805 -0.4442
15737TIP3   OH268701   5.158   0.092  11.683  0.1856 -0.5431 -0.2678
15737TIP3    H168702   5.200   0.151  11.620 -1.9969  1.9541  0.4281
15737TIP3    H268703   5.142   0.146  11.760 -1.7096 -2.1053  0.5310
15738TIP3   OH268704   0.478   3.330   4.899  0.2993 -0.0605  0.3508
15738TIP3    H168705   0.569   3.351   4.920  0.4680 -0.5528  0.1195
15738TIP3    H268706   0.467   3.239   4.928  0.1584 -0.3189 -0.4880
15739TIP3   OH268707   2.599   5.700   3.528 -0.1649  0.0572  0.0800
15739TIP3    H168708   2.654   5.778   3.530 -0.0631 -0.0398  1.4631
15739TIP3    H268709   2.601   5.665   3.617  0.6050 -2.1096 -0.7219
15740TIP3   OH268710   5.164   4.487   2.291 -0.3449 -0.4718 -0.0159
15740TIP3    H168711   5.239   4.544   2.278 -1.0519  0.0807 -2.0690
15740TIP3    H268712   5.197   4.399   2.272 -0.3249 -0.1473 -1.7012
15741TIP3   OH268713   6.410   6.567   4.654  0.2824 -0.3323  0.0328
15741TIP3    H168714   6.366   6.607   4.579 -1.5629 -0.7752  0.7977
15741TIP3    H268715   6.399   6.631   4.725 -0.0628 -0.8893  0.4932
15742TIP3   OH268716   2.352   5.378  15.138 -0.2993  0.2831 -0.3912
15742TIP3    H168717   2.370   5.326  15.216 -1.0975 -0.1803 -0.5106
15742TIP3    H268718   2.275   5.337  15.099 -1.1199  1.7140 -0.3454
15743TIP3   OH268719   3.966   4.834   6.231  0.0523  0.9276 -0.2837
15743TIP3    H168720   3.978   4.739   6.239 -0.9015  0.8503  0.2913
15743TIP3    H268721   4.033   4.871   6.288  1.5085  0.6692 -1.7342
15744TIP3   OH268722   4.380   5.372  12.163 -0.5607  0.0188 -0.0518
15744TIP3    H168723   4.315   5.414  12.106  1.1110 -0.7545 -2.6905
15744TIP3    H268724   4.343   5.285  12.181 -0.5496 -0.2303 -1.1207
15745TIP3   OH268725   4.425   1.548  11.632  0.0623  0.1304 -0.3679
15745TIP3    H168726   4.332   1.559  11.613  0.3302  0.7594 -1.3836
15745TIP3    H268727   4.438   1.453  11.636  0.0577 -0.1528 -4.0187
15746TIP3   OH268728   1.624   1.064   0.701  0.2061  0.2812  0.6795
15746TIP3    H168729   1.614   1.019   0.617  1.2248  0.1071  0.6379
15746TIP3    H268730   1.569   1.142   0.693  1.3432  0.9938 -0.6847
15747TIP3   OH268731   4.787   5.754  16.289 -0.0263  0.1469 -0.0968
15747TIP3    H168732   4.740   5.837  16.285 -1.6591 -0.7673 -0.7184
15747TIP3    H268733   4.770   5.712  16.205  0.0436 -1.2033  0.5365
15748TIP3   OH268734   6.253   5.044  12.503  0.7536  0.0286  0.0314
15748TIP3    H168735   6.308   4.974  12.536  1.2254  0.4833  0.2217
15748TIP3    H268736   6.186   5.056  12.570  0.2395 -0.7195 -0.3350
15749TIP3   OH268737   5.427   1.056   5.996 -0.1486  0.1455  0.2045
15749TIP3    H168738   5.511   1.060   6.042  0.9904  0.5322 -1.7863
15749TIP3    H268739   5.366   1.019   6.061  1.4083  0.3480  1.8778
15750TIP3   OH268740   4.021   0.671   3.165  0.2407  0.2187 -0.0622
15750TIP3    H168741   3.938   0.643   3.125 -0.7622  2.3536  0.3744
15750TIP3    H268742   4.079   0.686   3.090 -0.6313  1.1676 -0.5902
15751TIP3   OH268743   2.802   2.943  12.980  0.0407 -0.1958  0.0240
15751TIP3    H168744   2.843   3.001  13.044 -0.2840 -0.2323  0.2655
15751TIP3    H268745   2.823   2.983  12.895  0.4594 -0.1406  0.1498
15752TIP3   OH268746   2.037   6.169   2.864 -0.0147  0.0618  0.0806
15752TIP3    H168747   2.095   6.140   2.794 -1.5095 -0.2748 -1.0818
15752TIP3    H268748   2.021   6.262   2.845 -1.1644 -0.2560 -0.6164
15753TIP3   OH268749   0.973   6.832  15.016  0.2618 -0.7175  0.5488
15753TIP3    H168750   0.964   6.770  15.088 -2.7087 -0.1949  0.7427
15753TIP3    H268751   0.946   6.917  15.053  3.0398  0.5260 -0.0415
15754TIP3   OH268752   5.357   5.808  16.790  0.1423  0.1879 -0.0560
15754TIP3    H168753   5.363   5.855  16.707  1.6665 -0.5706 -0.4172
15754TIP3    H268754   5.314   5.869  16.850  0.1936  1.2320 -1.0663
15755TIP3   OH268755   5.140   4.217  14.157  0.3195  0.3637  0.0497
15755TIP3    H168756   5.165   4.303  14.125 -0.2127 -0.1314 -1.8544
15755TIP3    H268757   5.044   4.220  14.160  0.3500  0.3934  1.7078
15756TIP3   OH268758   0.724   1.739  13.663  0.5163 -0.1408  0.3568
15756TIP3    H168759   0.648   1.738  13.605  1.3039  1.4845 -0.7783
15756TIP3    H268760   0.791   1.689  13.616  0.8198  0.2494  0.3733
15757TIP3   OH268761   4.991   6.310  11.525  0.1784  0.3434 -0.1117
15757TIP3    H168762   4.995   6.379  11.591 -0.2627  0.2574  0.0109
15757TIP3    H268763   4.972   6.230  11.574 -0.3823  0.3149 -0.3573
15758TIP3   OH268764   2.617   3.917  11.133  0.1858 -0.1634  0.7287
15758TIP3    H168765   2.545   3.945  11.191 -0.6472  3.6462 -1.8169
15758TIP3    H268766   2.696   3.934  11.184 -0.5649 -0.0844  1.9229
15759TIP3   OH268767   5.882   2.427  11.157 -0.2327  0.2542  0.4909
15759TIP3    H168768   5.930   2.434  11.074  0.3704 -0.1410  0.7990
15759TIP3    H268769   5.802   2.478  11.142 -0.6559 -0.6957 -0.7052
15760TIP3   OH268770   3.280   5.355   4.680  0.4173 -0.1000  0.2278
15760TIP3    H168771   3.370   5.366   4.649  0.5793 -0.9300  0.3676
15760TIP3    H268772   3.225   5.384   4.608  0.7555 -3.1166 -1.4351
15761TIP3   OH268773   1.348   3.158  15.080  0.3957 -0.2044  0.6009
15761TIP3    H168774   1.420   3.187  15.023 -0.2479  1.3776  0.5230
15761TIP3    H268775   1.390   3.103  15.146  1.5647  0.1005  0.1464
15762TIP3   OH268776   1.059   0.472  10.493 -0.4023  0.3348 -0.0847
15762TIP3    H168777   1.016   0.432  10.569 -0.9278 -0.0707 -0.5901
15762TIP3    H268778   1.096   0.554  10.527 -2.7224  1.3808  0.0952
15763TIP3   OH268779   5.209   2.604  15.312  0.1210  0.2722 -0.0662
15763TIP3    H168780   5.196   2.630  15.221 -3.1327  1.2977  0.5614
15763TIP3    H268781   5.170   2.516  15.317 -0.2696  0.4710  0.4519
15764TIP3   OH268782   2.200   1.399   1.208  0.5970  0.6269 -0.6960
15764TIP3    H168783   2.277   1.436   1.164  1.2020  1.7973  1.2023
15764TIP3    H268784   2.153   1.476   1.242 -0.5560 -0.1550 -0.4527
15765TIP3   OH268785   1.299   6.726   4.488  0.4700 -0.0418  0.3909
15765TIP3    H168786   1.253   6.651   4.450 -0.5103  0.8085 -0.1803
15765TIP3    H268787   1.274   6.799   4.432  0.7280  0.8597  1.4220
15766TIP3   OH268788   6.027   1.492  11.805 -0.1603 -0.7952 -0.2077
15766TIP3    H168789   6.018   1.548  11.728 -3.2820  0.0183  0.6127
15766TIP3    H268790   5.945   1.443  11.808 -1.4311  1.1882  4.0548
15767TIP3   OH268791   5.008   1.514  16.293  0.1658 -0.7790 -0.1719
15767TIP3    H168792   4.999   1.558  16.377  0.4933  1.1368 -1.0715
15767TIP3    H268793   4.924   1.469  16.280 -0.2399 -0.3025  0.7519
15768TIP3   OH268794   3.029   3.348  12.601  0.5987  0.1841 -0.0156
15768TIP3    H168795   3.060   3.379  12.516  1.9192 -2.0777 -0.4436
15768TIP3    H268796   2.933   3.355  12.595  0.4943 -1.8908 -2.6116
15769TIP3   OH268797   3.174   5.914   3.826 -0.2935  0.0651  0.6949
15769TIP3    H168798   3.248   5.873   3.871  1.2142  1.3277 -0.4882
15769TIP3    H268799   3.174   6.004   3.857 -1.9512 -0.1220  1.3530
15770TIP3   OH268800   1.011   4.773   2.051 -0.0198 -0.2975  0.0273
15770TIP3    H168801   1.082   4.823   2.091  0.9762 -1.9729  0.4828
15770TIP3    H268802   0.971   4.833   1.988  1.3272  0.9292  0.2857
15771TIP3   OH268803   5.856   1.418  12.182  0.3337 -0.4716  0.2483
15771TIP3    H168804   5.845   1.370  12.099 -0.8089 -0.0451  0.1277
15771TIP3    H268805   5.861   1.510  12.156  1.2603 -0.4308  0.5666
15772TIP3   OH268806   2.662   5.636   0.763 -0.2341 -0.2323  0.5065
15772TIP3    H168807   2.636   5.605   0.850 -1.3080  2.7142  1.3579
15772TIP3    H268808   2.585   5.684   0.731 -0.0517 -1.5891 -2.3355
15773TIP3   OH268809   6.032   2.639   4.888 -0.5231  0.3261  0.4054
15773TIP3    H168810   5.961   2.667   4.946 -0.3060  0.2427  0.7076
15773TIP3    H268811   6.073   2.565   4.933  0.0024  0.6190  0.4087
15774TIP3   OH268812   6.643   3.151  15.371  0.0150 -0.2247 -0.4657
15774TIP3    H168813   6.560   3.139  15.326 -1.3974  0.8907  1.6473
15774TIP3    H268814   6.650   3.075  15.430 -1.5544  1.5290  2.1759
15775TIP3   OH268815   5.224   4.981   0.913  0.0479  0.0240 -0.0494
15775TIP3    H168816   5.274   4.903   0.937 -0.4010  0.0995  1.2052
15775TIP3    H268817   5.133   4.955   0.922 -0.1041  0.7625  0.6396
15776TIP3   OH268818   3.162   2.691   1.843  0.2053  0.3625  0.1587
15776TIP3    H168819   3.224   2.688   1.770 -1.5876 -2.2371 -1.4590
15776TIP3    H268820   3.208   2.649   1.916  1.3614  1.2421 -0.0405
15777TIP3   OH268821   4.087   1.659   1.222 -0.3560  0.0433 -0.2367
15777TIP3    H168822   4.127   1.586   1.174  0.8009  1.3083 -1.2821
15777TIP3    H268823   4.139   1.666   1.302 -1.2961 -1.0695  0.5070
15778TIP3   OH268824   4.137   5.507   3.655  0.1717 -0.0996 -0.0651
15778TIP3    H168825   4.042   5.502   3.652  0.2001 -0.4677 -0.6767
15778TIP3    H268826   4.167   5.428   3.611  0.7513  0.4313 -0.6653
15779TIP3   OH268827   1.643   0.576   3.019  0.0026  0.1442  0.0495
15779TIP3    H168828   1.737   0.560   3.009  0.3920  2.1143  0.2036
15779TIP3    H268829   1.624   0.545   3.108  0.5303 -0.1866  0.0553
15780TIP3   OH268830   5.394   5.274   3.062  0.7494 -0.4931  0.1216
15780TIP3    H168831   5.300   5.256   3.064  1.0450 -2.3749 -0.8104
15780TIP3    H268832   5.400   5.359   3.018 -0.4596 -1.3599 -1.9298
15781TIP3   OH268833   1.120   3.712   1.631  0.5377  0.3396 -0.0412
15781TIP3    H168834   1.084   3.683   1.714 -4.0768 -0.2870 -1.9552
15781TIP3    H268835   1.153   3.631   1.589 -1.9540 -0.3572 -0.8079
15782TIP3   OH268836   5.735   5.090  13.071 -0.4940  0.2866 -0.4343
15782TIP3    H168837   5.790   5.094  13.150  0.3779  0.9984 -1.0440
15782TIP3    H268838   5.663   5.032  13.094  0.4199 -0.5281  0.4730
15783TIP3   OH268839   0.977   0.484  16.348 -0.0022  0.0521 -0.0970
15783TIP3    H168840   1.000   0.411  16.404 -0.3178  0.8653  1.1345
15783TIP3    H268841   0.889   0.509  16.375  0.0825  0.8559 -0.5181
15784TIP3   OH268842   0.637   3.071  12.319  0.2959 -0.2242  0.5298
15784TIP3    H168843   0.623   3.045  12.410 -1.6245  2.0846  1.0095
15784TIP3    H268844   0.617   2.993  12.267  0.7162 -1.3677  2.0310
15785TIP3   OH268845   6.164   0.592  14.787 -0.1486  0.3314 -0.4865
15785TIP3    H168846   6.185   0.507  14.825 -1.0090  0.2764 -0.1024
15785TIP3    H268847   6.077   0.580  14.748  0.2065  0.7249 -1.4331
15786TIP3   OH268848   0.617   1.437   1.986 -0.2814 -0.1758 -0.5065
15786TIP3    H168849   0.673   1.382   1.930  0.6801 -0.6651  0.8911
15786TIP3    H268850   0.552   1.376   2.022  0.4436 -0.3269  0.6007
15787TIP3   OH268851   5.780   5.985   3.910 -0.3105 -0.3207 -0.5892
15787TIP3    H168852   5.822   5.902   3.889 -0.8849 -1.0381  0.8962
15787TIP3    H268853   5.834   6.022   3.981 -1.0361 -0.2792 -0.0501
15788TIP3   OH268854   5.677   3.479  16.114  0.3702 -0.2522  0.2633
15788TIP3    H168855   5.689   3.574  16.112 -0.5450 -0.1415 -0.5676
15788TIP3    H268856   5.623   3.460  16.037 -2.4630 -0.9939  2.2595
15789TIP3   OH268857   1.302   6.527   1.487 -0.2857  0.0147 -0.1904
15789TIP3    H168858   1.209   6.534   1.511 -0.2434  1.4633 -0.3324
15789TIP3    H268859   1.302   6.477   1.406 -0.6146 -3.0137  1.5164
15790TIP3   OH268860   3.400   3.199  13.497 -0.1490 -0.2955 -0.5479
15790TIP3    H168861   3.354   3.187  13.580  1.4684 -0.1844  0.4001
15790TIP3    H268862   3.460   3.124  13.492 -0.6962 -0.6862 -1.9805
15791TIP3   OH268863   6.350   2.676  11.834  0.9295  0.2216  0.3825
15791TIP3    H168864   6.307   2.760  11.821 -2.1041 -1.3095 -0.3635
15791TIP3    H268865   6.353   2.664  11.929  0.7764  0.8661  0.4715
15792TIP3   OH268866   5.637   2.743  11.805  0.3688  0.1231  0.2947
15792TIP3    H168867   5.639   2.648  11.796  1.0318  0.0435  1.1249
15792TIP3    H268868   5.548   2.768  11.778  0.1301 -0.7492  0.2540
15793TIP3   OH268869   4.360   0.049   6.110  0.3517 -0.0246  0.4354
15793TIP3    H168870   4.410   0.114   6.059 -0.1186 -1.0914 -1.4743
15793TIP3    H268871   4.427   0.001   6.159  0.9449  0.3349 -0.0012
15794TIP3   OH268872   3.919   2.643   1.759  0.2906 -0.2593  0.2934
15794TIP3    H168873   3.841   2.593   1.735  0.2146 -1.5513  2.8346
15794TIP3    H268874   3.897   2.734   1.739 -1.1333 -0.7955 -0.7296
15795TIP3   OH268875   4.559   0.311  15.494  0.3243  0.2140  0.4514
15795TIP3    H168876   4.568   0.379  15.427  1.1915 -1.0558 -0.7673
15795TIP3    H268877   4.545   0.230  15.445 -3.6464 -0.1948  1.8847
15796TIP3   OH268878   2.026   1.650  14.739  0.1404  0.7623 -0.1763
15796TIP3    H168879   2.033   1.687  14.827 -1.1181  2.8029 -0.8469
15796TIP3    H268880   2.101   1.685  14.691 -0.1783  1.1748 -0.3843
15797TIP3   OH268881   1.895   2.416   6.717  0.4112  0.4530  0.1623
15797TIP3    H168882   1.819   2.381   6.763  0.6815  0.6420  0.7606
15797TIP3    H268883   1.859   2.482   6.657 -0.1492 -1.1154 -1.2858
15798TIP3   OH268884   1.764   1.790  17.062 -0.0636 -0.2500 -0.1476
15798TIP3    H168885   1.772   1.853  17.133  0.4671 -1.2991  0.7471
15798TIP3    H268886   1.837   1.729  17.075  0.1356 -0.3758 -1.6854
15799TIP3   OH268887   1.317   5.543   3.540 -0.2970  0.2643 -1.0579
15799TIP3    H168888   1.319   5.630   3.500  0.1099  0.6744 -0.1899
15799TIP3    H268889   1.322   5.561   3.634 -4.3351 -0.4897 -0.5496
15800TIP3   OH268890   5.762   2.411  14.494 -0.6411  0.2215  0.5750
15800TIP3    H168891   5.682   2.389  14.445 -0.8693 -0.8552  1.4005
15800TIP3    H268892   5.743   2.497  14.533 -1.8277 -0.4748  1.6144
15801TIP3   OH268893   0.829   1.683   5.975  0.3952  0.7067 -1.3126
15801TIP3    H168894   0.769   1.609   5.982  2.3371 -0.8269  0.4785
15801TIP3    H268895   0.898   1.653   5.916  1.9741  0.4092  0.5747
15802TIP3   OH268896   1.368   0.328  16.200  0.1929 -0.3078 -0.3213
15802TIP3    H168897   1.307   0.301  16.131  0.7359 -0.1240 -0.8869
15802TIP3    H268898   1.368   0.424  16.195  0.4994 -0.3053 -0.3029
15803TIP3   OH268899   3.969   5.360   0.908 -0.4039  0.6962 -0.3155
15803TIP3    H168900   3.878   5.331   0.911  0.1884 -1.3108 -0.0965
15803TIP3    H268901   4.020   5.280   0.920  1.4178  1.5348 -1.8954
15804TIP3   OH268902   5.649   5.190  10.580 -0.4046  0.3694 -0.0654
15804TIP3    H168903   5.580   5.218  10.641 -0.0966  0.0900  0.4199
15804TIP3    H268904   5.601   5.154  10.505 -0.7885  1.3713 -0.3107
15805TIP3   OH268905   0.301   6.179  14.724  0.5416  0.0660 -0.0607
15805TIP3    H168906   0.250   6.238  14.668  0.3109 -0.5518 -0.5048
15805TIP3    H268907   0.295   6.094  14.681 -0.2151 -0.5660  1.2704
15806TIP3   OH268908   2.403   0.942   4.450  0.5137  0.2225  0.1505
15806TIP3    H168909   2.377   0.997   4.376  0.5787 -0.5250 -0.4379
15806TIP3    H268910   2.455   1.000   4.506 -1.1323  1.3295  0.5925
15807TIP3   OH268911   0.350   6.368   4.376 -0.8602 -0.7207  0.1269
15807TIP3    H168912   0.394   6.356   4.460  0.7228 -0.5540 -0.6332
15807TIP3    H268913   0.331   6.462   4.373  0.5112 -0.4313 -0.3345
15808TIP3   OH268914   2.975   0.218   1.829 -0.1353 -0.0074  0.3993
15808TIP3    H168915   3.026   0.139   1.844 -0.4086  0.0141  1.4746
15808TIP3    H268916   2.895   0.205   1.879  0.1265  1.2464  1.1921
15809TIP3   OH268917   5.499   5.295  16.260 -0.0543 -0.0630 -0.0610
15809TIP3    H168918   5.501   5.391  16.253 -1.2586 -0.0738 -0.8505
15809TIP3    H268919   5.406   5.274  16.268 -0.2223 -1.3485 -3.5466
15810TIP3   OH268920   2.371   1.126   5.373  0.5303  0.3205  0.3405
15810TIP3    H168921   2.355   1.218   5.394  3.5416  1.3677 -1.3319
15810TIP3    H268922   2.330   1.113   5.287 -0.1853 -0.0211  0.7271
15811TIP3   OH268923   0.518   4.912   3.062 -0.0920  0.1100 -0.6918
15811TIP3    H168924   0.596   4.954   3.100  0.7474 -1.3648 -0.6876
15811TIP3    H268925   0.445   4.952   3.108  0.7521  0.4389  0.4262
15812TIP3   OH268926   5.594   6.801   2.145  0.7610  0.0557  0.0491
15812TIP3    H168927   5.603   6.875   2.084  4.0378  0.0112  0.3463
15812TIP3    H268928   5.602   6.724   2.090  1.1505 -0.0261  0.2223
15813TIP3   OH268929   4.317   2.185  12.892  0.0977 -0.1929  0.1032
15813TIP3    H168930   4.225   2.165  12.911  0.2997 -0.7556  0.5125
15813TIP3    H268931   4.334   2.265  12.942 -0.7578  1.1723 -1.6672
15814TIP3   OH268932   0.161   3.613  11.001 -0.3333 -0.6697 -0.5093
15814TIP3    H168933   0.084   3.633  10.948 -0.1679 -1.6759 -1.1519
15814TIP3    H268934   0.221   3.686  10.986 -0.0257 -1.2356 -2.2383
15815TIP3   OH268935   3.809   6.322  12.652  1.0983  0.3800  0.1024
15815TIP3    H168936   3.829   6.378  12.727  0.2164  1.2647 -0.2943
15815TIP3    H268937   3.714   6.315  12.653  1.0890  0.3125 -0.8726
15816TIP3   OH268938   6.788   5.137  13.026 -0.3215  0.3475  0.2488
15816TIP3    H168939   6.874   5.096  13.012  0.1963  1.7963 -1.1545
15816TIP3    H268940   6.807   5.231  13.026 -2.0861  0.7540 -1.5186
15817TIP3   OH268941   5.988   2.250   0.111  0.2404  0.4655 -0.3132
15817TIP3    H168942   5.980   2.188   0.184 -0.7377  1.3818  0.4152
15817TIP3    H268943   6.078   2.243   0.082  1.4278  1.7582  2.6026
15818TIP3   OH268944   2.893   0.921   5.052 -0.0020  0.6299  0.2782
15818TIP3    H168945   2.845   0.979   4.993 -0.5094 -0.7611 -0.7054
15818TIP3    H268946   2.840   0.842   5.059  1.6583 -0.5941 -0.1195
15819TIP3   OH268947   5.103   2.096  11.774 -0.1460  0.1002 -0.1624
15819TIP3    H168948   5.179   2.070  11.826 -0.8005 -0.3974  0.5713
15819TIP3    H268949   5.140   2.138  11.696  0.9278 -1.5374 -0.5924
15820TIP3   OH268950   6.764   0.074  11.447 -0.4499 -0.3593  0.4365
15820TIP3    H168951   6.703   0.000  11.453 -0.4000 -0.3987  0.4695
15820TIP3    H268952   6.710   0.152  11.459 -0.9078 -0.2317 -1.9202
15821TIP3   OH268953   2.755   1.731  15.543 -0.1251 -0.1596 -0.1540
15821TIP3    H168954   2.674   1.681  15.551  0.5867 -1.1156  1.5107
15821TIP3    H268955   2.733   1.818  15.574 -0.7832 -0.0643 -0.8386
15822TIP3   OH268956   6.478   4.632   4.263 -0.6231 -0.2430 -0.2641
15822TIP3    H168957   6.542   4.703   4.256 -1.3268  0.2789 -1.9625
15822TIP3    H268958   6.403   4.671   4.309 -1.6567  0.6759 -2.5784
15823TIP3   OH268959   5.069   0.207   2.606  0.1105  0.3574 -0.1286
15823TIP3    H168960   5.041   0.297   2.620  0.9430  0.2347  2.8447
15823TIP3    H268961   5.128   0.212   2.530 -1.4193  1.9099 -1.2843
15824TIP3   OH268962   3.543   3.684  10.942  1.1156  0.4497  0.1024
15824TIP3    H168963   3.517   3.770  10.908  1.0509  0.4228  0.0834
15824TIP3    H268964   3.580   3.638  10.867 -1.6882 -0.6990 -0.6914
15825TIP3   OH268965   2.821   5.882   0.793  0.1500 -0.7486 -0.0884
15825TIP3    H168966   2.879   5.952   0.762  1.6026 -2.0122 -0.3695
15825TIP3    H268967   2.797   5.833   0.714 -1.0676 -0.4305  0.0710
15826TIP3   OH268968   2.518   1.123   5.060  0.3343 -0.3224  0.4009
15826TIP3    H168969   2.556   1.178   4.992  0.1294  0.6567  1.0575
15826TIP3    H268970   2.590   1.103   5.119  0.2872 -0.3041  0.4644
15827TIP3   OH268971   0.099   4.068   0.863  0.4235 -0.2818  0.3083
15827TIP3    H168972   0.194   4.078   0.867  0.5304 -0.4859 -1.2328
15827TIP3    H268973   0.066   4.156   0.844  0.3510 -0.3176  0.2671
15828TIP3   OH268974   5.001   4.931  15.099  0.4301 -0.0836  0.2492
15828TIP3    H168975   4.996   4.850  15.149 -0.8147  0.4258  1.0188
15828TIP3    H268976   4.963   4.997  15.157 -1.0017  0.5503 -1.3187
15829TIP3   OH268977   2.923   5.803   5.289 -0.1063 -0.0753 -0.7933
15829TIP3    H168978   2.835   5.791   5.323  0.0573  1.7744  0.4212
15829TIP3    H268979   2.934   5.733   5.224 -1.0214 -2.8342  1.8022
15830TIP3   OH268980   5.185   5.284  12.476  0.1242  0.1125  0.1272
15830TIP3    H168981   5.096   5.287  12.442 -0.1759  1.7297  0.9661
15830TIP3    H268982   5.238   5.326  12.409  0.0005  0.5830  0.3210
15831TIP3   OH268983   2.917   2.904   5.710  0.1442  0.5564  0.0738
15831TIP3    H168984   2.924   2.863   5.624 -1.4771  0.5530 -0.0743
15831TIP3    H268985   2.903   2.831   5.770 -0.7654  0.7210  0.0676
15832TIP3   OH268986   0.593   0.681   6.301 -0.2358  0.0661 -0.1066
15832TIP3    H168987   0.559   0.600   6.337 -2.0066  2.0339  3.1476
15832TIP3    H268988   0.666   0.704   6.358 -0.0829  1.0035 -0.6571
15833TIP3   OH268989   1.896   5.643   3.669 -0.0462  0.1042  0.2984
15833TIP3    H168990   1.903   5.726   3.621  0.3566 -1.0657 -1.7677
15833TIP3    H268991   1.804   5.619   3.660  0.0613 -0.1902 -0.0255
15834TIP3   OH268992   6.657   0.680  12.939  0.2385  0.3618  0.2118
15834TIP3    H168993   6.658   0.599  12.888  0.6468  0.2489  0.3896
15834TIP3    H268994   6.743   0.719  12.923  0.2269  0.5129  0.5154
15835TIP3   OH268995   1.782   6.113   3.694 -0.3182 -0.4712  0.5942
15835TIP3    H168996   1.751   6.175   3.760 -0.4859  1.0459 -0.8546
15835TIP3    H268997   1.789   6.164   3.613 -1.5155 -2.5590 -0.9459
15836TIP3   OH268998   4.607   6.567  10.897 -0.2275 -0.0671 -0.4457
15836TIP3    H168999   4.593   6.653  10.937  1.6283  0.9259 -1.7497
15836TIP3    H269000   4.618   6.508  10.971  0.5557  1.2244  0.5212
15837TIP3   OH269001   2.191   3.933   3.273  0.2015 -0.0050  0.1336
15837TIP3    H169002   2.284   3.933   3.296 -0.1631  0.4428  1.7486
15837TIP3    H269003   2.168   3.840   3.269  0.5456 -0.1096  0.4944
15838TIP3   OH269004   0.079   3.400   4.901 -0.1408 -1.2444  0.0947
15838TIP3    H169005   0.070   3.323   4.956 -0.3581 -0.2754  1.4675
15838TIP3    H269006  -0.008   3.411   4.861 -1.1580  0.0998  2.4467
15839TIP3   OH269007   0.317   6.529  12.553 -0.0102  0.1199  0.0120
15839TIP3    H169008   0.395   6.505  12.603  0.7736  0.5568 -0.9607
15839TIP3    H269009   0.275   6.445  12.533  1.2337 -0.2794 -1.0427
15840TIP3   OH269010   1.509   0.580  15.555  0.0885  0.2564  0.2288
15840TIP3    H169011   1.579   0.639  15.582  0.1590  1.0704 -1.5830
15840TIP3    H269012   1.518   0.504  15.613  1.4167  1.0530  1.1179
15841TIP3   OH269013   2.670   1.556  14.725 -0.1231  0.5141 -0.2985
15841TIP3    H169014   2.583   1.522  14.742  0.0715  0.1480 -0.0062
15841TIP3    H269015   2.661   1.607  14.644 -0.8647  1.5170  0.3893
15842TIP3   OH269016   0.315   1.759  15.982 -0.2624  0.0244  0.0267
15842TIP3    H169017   0.309   1.664  15.986  0.2001  0.0039  0.2973
15842TIP3    H269018   0.408   1.778  15.994 -0.1598  0.4553 -1.2769
15843TIP3   OH269019   1.651   4.071  12.864 -0.7289  0.7333 -0.2098
15843TIP3    H169020   1.587   4.014  12.820 -0.5047  0.9621 -0.8470
15843TIP3    H269021   1.728   4.068  12.807  0.4392 -0.8062  1.3384
15844TIP3   OH269022   0.210   0.369  14.250 -0.4341  0.4392 -0.4355
15844TIP3    H169023   0.245   0.291  14.207 -0.9861 -0.1397  0.1431
15844TIP3    H269024   0.286   0.427  14.259 -0.2946  0.5367 -2.0716
15845TIP3   OH269025   3.775   1.542  12.926 -0.0161  0.4723 -0.4368
15845TIP3    H169026   3.827   1.621  12.911  2.0283 -1.0384 -1.9846
15845TIP3    H269027   3.836   1.470  12.909 -0.9389 -1.5461  3.5757
15846TIP3   OH269028   5.991   2.467  10.928  0.3793 -0.3111  0.5157
15846TIP3    H169029   6.059   2.518  10.883  0.3138 -0.2522  0.4818
15846TIP3    H269030   5.971   2.396  10.867  1.9373 -1.5954  1.4416
15847TIP3   OH269031   2.994   6.633   6.313  0.2963 -0.6528  0.5160
15847TIP3    H169032   2.952   6.717   6.334  2.3244  0.4737  0.3924
15847TIP3    H269033   3.088   6.653   6.313  0.7768 -2.5324 -1.2471
15848TIP3   OH269034   3.007   0.028  15.922  0.2401 -0.1770  0.4576
15848TIP3    H169035   2.975  -0.002  15.838 -1.9709  1.6127  0.5816
15848TIP3    H269036   3.059   0.107  15.902 -0.5306  0.4213  0.7653
15849TIP3   OH269037   6.717   3.834  16.794 -0.5541  0.1441 -0.3289
15849TIP3    H169038   6.774   3.888  16.849  0.3898 -1.0597 -0.0711
15849TIP3    H269039   6.694   3.891  16.720 -0.3901  1.1980  0.4072
15850TIP3   OH269040   6.588   6.043   0.110 -0.6585 -0.3697  0.6944
15850TIP3    H169041   6.667   6.095   0.123 -0.0577 -1.2725  0.7199
15850TIP3    H269042   6.517   6.108   0.104  0.0839  0.4482  0.6067
15851TIP3   OH269043   1.043   3.346  15.323  0.2118 -0.3646  0.4301
15851TIP3    H169044   1.079   3.382  15.242  0.9670  0.2703  1.0305
15851TIP3    H269045   1.043   3.419  15.384  0.8568 -1.1417  1.3929
15852TIP3   OH269046   0.322   3.982   5.536  0.5070 -0.3107 -0.4607
15852TIP3    H169047   0.287   3.930   5.464 -0.2846 -0.0440 -0.2723
15852TIP3    H269048   0.324   3.922   5.610 -0.2057 -0.1411 -0.2974
15853TIP3   OH269049   2.639   2.267  14.379  0.2247  0.1409  0.1527
15853TIP3    H169050   2.728   2.257  14.412 -0.1565  0.4657  1.3216
15853TIP3    H269051   2.596   2.185  14.402 -0.5712  1.0787  2.2452
15854TIP3   OH269052   0.729   1.776   2.039  0.3100  0.0080  0.1705
15854TIP3    H169053   0.678   1.705   1.999  0.5244 -0.0337 -0.0313
15854TIP3    H269054   0.809   1.780   1.987 -0.7795  2.1206 -1.4957
15855TIP3   OH269055   0.718   2.286   0.564 -0.1366 -0.6465 -0.1806
15855TIP3    H169056   0.631   2.271   0.601 -0.4056  1.4127  0.1756
15855TIP3    H269057   0.776   2.228   0.613 -1.2438 -1.8546 -0.2325
15856TIP3   OH269058   4.060   2.787   0.440  0.5033  0.3338  0.1626
15856TIP3    H169059   4.115   2.717   0.403  0.5995  0.5525 -0.1107
15856TIP3    H269060   4.004   2.814   0.368 -1.5347 -1.3945  0.9992
15857TIP3   OH269061   6.389   1.314  12.688 -0.6160  0.0025  0.2504
15857TIP3    H169062   6.403   1.220  12.680  1.0839  0.1300  1.2087
15857TIP3    H269063   6.295   1.326  12.675 -0.5662 -1.5549 -1.9656
15858TIP3   OH269064   5.064   5.377   6.567 -0.0758 -0.2801  0.1997
15858TIP3    H169065   5.020   5.358   6.484 -2.0150  1.8745  0.6347
15858TIP3    H269066   5.012   5.329   6.632 -0.6621  0.7540  0.5095
15859TIP3   OH269067   2.496   0.662   1.985 -0.3784 -0.7195 -0.0583
15859TIP3    H169068   2.432   0.702   1.926 -0.0757 -0.6881 -0.3666
15859TIP3    H269069   2.512   0.575   1.947 -1.7682 -1.5388  1.1380
15860TIP3   OH269070   4.273   1.217   0.695  0.1425 -0.3903  0.1687
15860TIP3    H169071   4.281   1.304   0.736 -1.5177 -0.2854  0.3603
15860TIP3    H269072   4.249   1.236   0.604 -1.6472 -0.6001  0.5526
15861TIP3   OH269073   2.022   4.293  12.641 -0.2430 -0.2988 -0.3357
15861TIP3    H169074   2.005   4.352  12.568  0.6709 -0.0007 -0.3117
15861TIP3    H269075   1.943   4.239  12.646 -0.4777 -0.0643 -1.2891
15862TIP3   OH269076   3.236   5.097   0.679 -0.7227  0.1709  0.6229
15862TIP3    H169077   3.291   5.174   0.663  1.2372 -1.4743 -1.2193
15862TIP3    H269078   3.282   5.050   0.749  0.6482 -1.4763 -1.2839
15863TIP3   OH269079   4.016   5.143   4.379  0.5191 -0.3555  0.2320
15863TIP3    H169080   4.026   5.238   4.375 -0.9138 -0.1658  0.5220
15863TIP3    H269081   4.095   5.109   4.337  1.0324  0.9559  0.0696
15864TIP3   OH269082   4.801   0.924   4.608  0.3143 -0.0662  0.7937
15864TIP3    H169083   4.710   0.955   4.612 -0.2327 -1.5598  0.7906
15864TIP3    H269084   4.847   0.973   4.676 -0.3933  1.0024  0.5265
15865TIP3   OH269085   6.817   3.277   2.555  0.4903  0.4296  0.2425
15865TIP3    H169086   6.821   3.194   2.507  1.0467  0.1414  0.7605
15865TIP3    H269087   6.909   3.303   2.566  0.3367  0.8860  0.4745
15866TIP3   OH269088   6.255   2.010   1.309 -0.1347  0.0345  0.8718
15866TIP3    H169089   6.198   1.952   1.258 -0.6134  1.9398 -0.8707
15866TIP3    H269090   6.284   2.077   1.247  0.4020  1.6866  2.7886
15867TIP3   OH269091   4.531   5.430  11.660 -0.6885  0.2969  0.2792
15867TIP3    H169092   4.513   5.367  11.730  0.4594 -0.0407  0.2991
15867TIP3    H269093   4.530   5.515  11.703  0.5710  0.0482  0.8502
15868TIP3   OH269094   6.499   4.390   0.222  0.0538  0.0488 -0.4740
15868TIP3    H169095   6.492   4.335   0.300 -1.6246 -0.6954 -1.1128
15868TIP3    H269096   6.452   4.471   0.246 -0.8357 -0.3489 -0.8334
15869TIP3   OH269097   4.410   1.547  16.480 -0.3325  0.1446 -0.1962
15869TIP3    H169098   4.407   1.451  16.480  0.7355  0.1035 -0.0679
15869TIP3    H269099   4.335   1.573  16.533  0.0243 -0.6491  0.7115
15870TIP3   OH269100   6.415   6.504  15.158  0.2675  0.3397  0.8160
15870TIP3    H169101   6.501   6.469  15.134  0.2812 -0.1070  1.4863
15870TIP3    H269102   6.435   6.589  15.199  0.6344 -0.7375  3.0669
15871TIP3   OH269103   1.734   1.189  13.847  0.5274  0.4274  0.1091
15871TIP3    H169104   1.789   1.214  13.922  0.9412 -0.6236  0.1749
15871TIP3    H269105   1.784   1.218  13.770 -0.7356  3.1926  0.2202
15872TIP3   OH269106   2.004   5.082  10.727  0.5781 -0.1311 -0.4110
15872TIP3    H169107   1.978   5.054  10.640  0.5871 -1.4372 -0.0034
15872TIP3    H269108   1.928   5.130  10.761  0.6516  0.5740 -1.1939
15873TIP3   OH269109   3.575   3.020   4.293 -0.1466 -0.0974 -0.2240
15873TIP3    H169110   3.600   3.093   4.350  2.9019 -1.6162  0.5713
15873TIP3    H269111   3.547   2.951   4.353 -1.6846 -0.1032 -0.9023
15874TIP3   OH269112   5.978   2.757  12.212  0.2522 -0.0813 -0.3702
15874TIP3    H169113   5.947   2.703  12.285  0.6129 -0.2615 -0.3467
15874TIP3    H269114   5.938   2.718  12.134 -0.1806  0.1461 -0.2681
15875TIP3   OH269115   5.802   5.451   3.786  0.1529 -0.4646  0.0240
15875TIP3    H169116   5.842   5.380   3.736  0.8997  1.7224 -2.7381
15875TIP3    H269117   5.862   5.465   3.859  1.6467 -0.7004 -1.1031
15876TIP3   OH269118   2.542   4.904   4.173  0.4448 -0.1441  0.5412
15876TIP3    H169119   2.496   4.852   4.240  0.0582 -0.2121  0.2295
15876TIP3    H269120   2.577   4.839   4.112 -0.6799 -0.0369 -0.2618
15877TIP3   OH269121   5.631   2.617   4.863 -0.4377 -0.8929  0.1100
15877TIP3    H169122   5.566   2.547   4.870 -0.4959 -0.8618 -0.1036
15877TIP3    H269123   5.701   2.578   4.811 -0.1525 -1.0235  0.5881
15878TIP3   OH269124   0.001   4.546   0.522 -0.2105  0.2045  0.4119
15878TIP3    H169125   0.070   4.502   0.472 -0.8887  0.1326 -0.4846
15878TIP3    H269126  -0.049   4.475   0.562 -1.5842  0.0642 -1.4047
15879TIP3   OH269127   1.608   5.764  13.040  0.2678  0.5084  0.1854
15879TIP3    H169128   1.696   5.750  13.074 -0.1399 -0.0917  1.0274
15879TIP3    H269129   1.604   5.709  12.961  0.8498  1.0364 -0.2211
15880TIP3   OH269130   5.249   4.016  11.648  0.2272  0.1875 -0.2773
15880TIP3    H169131   5.154   4.006  11.652  0.3009 -0.5644 -0.3849
15880TIP3    H269132   5.268   4.086  11.711 -0.3660  0.1745 -0.0764
15881TIP3   OH269133   5.104   5.434  15.463 -0.1298  0.3200 -0.2027
15881TIP3    H169134   5.098   5.528  15.481 -0.3438  0.2028  0.3784
15881TIP3    H269135   5.031   5.416  15.404  0.1887  0.5974 -0.6902
15882TIP3   OH269136   1.647   1.141  15.513  0.2972 -0.5241  0.5019
15882TIP3    H169137   1.612   1.110  15.597 -2.1553  0.3192 -0.1123
15882TIP3    H269138   1.596   1.220  15.495  1.0902 -0.4486 -1.5826
15883TIP3   OH269139   1.364   2.101  11.665  0.3146  0.4397 -0.2729
15883TIP3    H169140   1.331   2.044  11.734  1.1845 -2.2659 -1.9093
15883TIP3    H269141   1.423   2.163  11.709  0.4488 -0.8572  1.4492
15884TIP3   OH269142   1.584   5.643  14.890 -0.0833  0.3268 -0.1159
15884TIP3    H169143   1.659   5.659  14.833 -0.5405 -0.3175 -0.9169
15884TIP3    H269144   1.521   5.597  14.835  0.0965 -1.7486  1.3003
15885TIP3   OH269145   3.607   0.182  16.367  0.0498  0.4650  0.1910
15885TIP3    H169146   3.546   0.253  16.348  0.7929  0.5010 -2.4059
15885TIP3    H269147   3.564   0.103  16.332 -0.3253 -0.2661  2.1567
15886TIP3   OH269148   5.595   3.165   0.013 -0.3133 -0.1145  0.3143
15886TIP3    H169149   5.501   3.181   0.008 -0.0738  1.1826 -0.6585
15886TIP3    H269150   5.612   3.099  -0.054 -0.2784  1.1175 -0.9452
15887TIP3   OH269151   5.201   5.419  16.110  0.0722 -0.1763  0.0706
15887TIP3    H169152   5.198   5.513  16.122 -1.1105 -0.0664 -0.8312
15887TIP3    H269153   5.208   5.407  16.015 -2.5354 -0.9486 -0.1179
15888TIP3   OH269154   0.802   2.444   1.060  0.0817 -0.6634  0.6881
15888TIP3    H169155   0.865   2.513   1.079 -3.1722  2.1653  2.2294
15888TIP3    H269156   0.783   2.404   1.145 -0.0702 -1.6445  0.2141
15889TIP3   OH269157   6.826   2.224  10.973 -0.1572  0.0615  0.0077
15889TIP3    H169158   6.856   2.158  11.035  0.3683 -0.5595 -0.8754
15889TIP3    H269159   6.903   2.279  10.957 -0.0600 -0.2518 -0.6591
15890TIP3   OH269160   2.602   2.106   5.625  0.3708 -0.3448 -0.4291
15890TIP3    H169161   2.530   2.052   5.592 -0.1473  0.9914 -1.5859
15890TIP3    H269162   2.674   2.088   5.566 -0.0580  0.8168 -1.3411
15891TIP3   OH269163   6.153   2.263   3.591  0.0854  0.3632  0.0989
15891TIP3    H169164   6.184   2.245   3.502 -0.2532  0.3776 -0.0248
15891TIP3    H269165   6.139   2.358   3.592 -1.4474  0.1802 -0.3507
15892TIP3   OH269166   6.460   1.089   3.156 -0.2538 -0.3358  0.0789
15892TIP3    H169167   6.468   1.056   3.246 -0.3331 -0.2103  0.1329
15892TIP3    H269168   6.389   1.153   3.161 -1.3402 -1.4778 -0.4089
15893TIP3   OH269169   6.375   0.240  11.898 -0.3037 -0.4465  0.1880
15893TIP3    H169170   6.457   0.280  11.924 -0.0140 -0.4604 -0.6835
15893TIP3    H269171   6.399   0.175  11.832 -1.0268 -0.2982 -0.2377
15894TIP3   OH269172   5.279   6.683   0.780 -0.8269 -0.4187 -0.5860
15894TIP3    H169173   5.246   6.721   0.699 -0.8895  2.0998  0.5352
15894TIP3    H269174   5.205   6.683   0.840 -0.3474 -0.5404  0.0258
15895TIP3   OH269175   4.360   0.588  13.101  0.9217 -0.4367  0.0544
15895TIP3    H169176   4.278   0.588  13.151  1.2178  2.2173  0.6933
15895TIP3    H269177   4.345   0.525  13.031  0.1332 -3.6393  2.8498
15896TIP3   OH269178   4.586   0.866   2.340 -0.5670 -0.2319  0.7949
15896TIP3    H169179   4.527   0.792   2.329  0.0726 -0.7594  0.8327
15896TIP3    H269180   4.629   0.876   2.255  0.6611 -1.0708  1.2868
15897TIP3   OH269181   5.338   3.572  11.506 -0.2040  0.4863  0.8235
15897TIP3    H169182   5.403   3.628  11.549  3.4057  0.3878 -3.7195
15897TIP3    H269183   5.363   3.483  11.530  1.8960  0.4219 -1.2281
15898TIP3   OH269184   2.918   1.720   2.962 -0.8009 -0.1335  0.5908
15898TIP3    H169185   3.005   1.695   2.995 -0.8767  1.2598  2.0118
15898TIP3    H269186   2.914   1.684   2.874  0.8262 -1.0907  0.8647
15899TIP3   OH269187   6.609   3.395  11.595 -0.4105  0.1585 -0.5900
15899TIP3    H169188   6.565   3.435  11.520  0.3563 -1.0721 -1.7432
15899TIP3    H269189   6.569   3.436  11.671 -0.1909  2.5454 -1.6801
15900TIP3   OH269190   0.727   2.469   1.422  0.1323 -1.1914 -0.4539
15900TIP3    H169191   0.820   2.484   1.402  0.2747 -1.9580 -0.3935
15900TIP3    H269192   0.682   2.544   1.383  0.8842 -0.1867  0.5362
15901TIP3   OH269193   2.315   5.757  12.476  0.1713  0.1877 -0.2530
15901TIP3    H169194   2.339   5.825  12.539 -0.1497 -0.5145  0.6484
15901TIP3    H269195   2.348   5.676  12.515 -0.0957 -0.2657 -0.9616
15902TIP3   OH269196   6.466   0.386   1.301 -0.4725 -0.3788  0.0393
15902TIP3    H169197   6.392   0.325   1.304 -0.3750 -0.4751  2.3934
15902TIP3    H269198   6.428   0.469   1.274 -1.2972 -0.6307  0.3970
15903TIP3   OH269199   3.081   3.857   0.278 -0.2213  0.9867  0.4301
15903TIP3    H169200   3.059   3.905   0.358  2.3935  0.3740  1.6336
15903TIP3    H269201   3.030   3.777   0.282 -1.9048  1.9995  0.2183
15904TIP3   OH269202   3.043   5.887   1.480 -1.0350 -0.0060 -0.6009
15904TIP3    H169203   3.054   5.943   1.403 -0.5137  1.9863  0.8585
15904TIP3    H269204   2.949   5.891   1.499 -0.6489  3.1043  1.3370
15905TIP3   OH269205   3.231   4.289   4.064  0.1302  0.1876  0.3924
15905TIP3    H169206   3.219   4.372   4.019 -1.8833 -0.1778  0.1693
15905TIP3    H269207   3.325   4.272   4.058  0.3106  1.5085 -1.2076
15906TIP3   OH269208   1.216   1.355  14.369 -0.2706  0.1146 -0.0500
15906TIP3    H169209   1.136   1.398  14.399  0.1494 -0.2838  1.7150
15906TIP3    H269210   1.189   1.266  14.348 -0.0419 -0.5273  2.1404
15907TIP3   OH269211   5.864   4.033  11.265 -0.5171  0.3070 -0.2873
15907TIP3    H169212   5.863   3.956  11.208 -0.5453 -1.1373  1.5617
15907TIP3    H269213   5.771   4.052  11.281 -0.5048 -0.0017  0.1683
15908TIP3   OH269214   3.302   1.809   3.103 -0.5990  0.1960 -0.0702
15908TIP3    H169215   3.306   1.727   3.054 -0.5198 -2.3279  3.7550
15908TIP3    H269216   3.393   1.832   3.121 -0.6649  0.5086 -0.1172
15909TIP3   OH269217   6.253   4.179   1.737 -0.1541  0.2065 -0.2187
15909TIP3    H169218   6.296   4.138   1.661  1.9836 -0.6048  1.3166
15909TIP3    H269219   6.207   4.107   1.779 -0.3645  0.3969 -0.1254
15910TIP3   OH269220   3.987   5.522   4.100  0.1810 -0.2926 -1.0987
15910TIP3    H169221   4.067   5.495   4.055  1.1430  0.3078  0.1834
15910TIP3    H269222   4.006   5.508   4.193 -1.5792 -1.0756 -0.8234
15911TIP3   OH269223   2.930   0.398   1.638 -0.2394 -0.0930 -0.1337
15911TIP3    H169224   2.955   0.327   1.697 -0.5043  0.7519  1.0317
15911TIP3    H269225   2.961   0.370   1.552  2.0196 -0.4308  0.7208
15912TIP3   OH269226   1.604   6.005   5.612  0.4132 -0.4245  0.0918
15912TIP3    H169227   1.695   5.976   5.612  0.8292  0.8210 -0.7282
15912TIP3    H269228   1.560   5.943   5.671  1.9805 -0.3897  1.3815
15913TIP3   OH269229   1.971   4.431  15.303  0.6986  0.0818  0.4570
15913TIP3    H169230   1.976   4.360  15.238 -0.2496 -0.4031  0.8995
15913TIP3    H269231   2.004   4.508  15.257 -2.7924  0.5119 -1.6771
15914TIP3   OH269232   0.339   3.903  11.194  0.1525 -0.5172 -0.0297
15914TIP3    H169233   0.376   3.987  11.222 -2.7059  1.2226 -1.0031
15914TIP3    H269234   0.317   3.917  11.102 -1.5574 -1.8777  0.1252
15915TIP3   OH269235   3.479   0.881  10.965 -0.4176  0.1135 -0.1857
15915TIP3    H169236   3.506   0.811  10.906 -2.1866  0.2475 -1.2206
15915TIP3    H269237   3.539   0.953  10.947  0.7828 -0.7615  0.1751
15916TIP3   OH269238   5.316   1.468  15.276 -0.6138  0.1156  0.1649
15916TIP3    H169239   5.273   1.535  15.222 -1.6945 -2.0167 -1.7813
15916TIP3    H269240   5.244   1.426  15.323  0.2525  1.5322  2.9992
15917TIP3   OH269241   4.105   6.831   5.552 -0.0437  0.2736  0.1409
15917TIP3    H169242   4.159   6.875   5.486  0.0865 -0.7454 -0.4415
15917TIP3    H269243   4.166   6.775   5.600 -0.2361  0.6046  0.7906
15918TIP3   OH269244   1.998   6.687  15.178  0.2250  0.0438 -0.2152
15918TIP3    H169245   2.023   6.629  15.250 -1.3342  1.1828  1.3541
15918TIP3    H269246   2.044   6.769  15.197 -0.8623  0.6288  0.0375
15919TIP3   OH269247   1.203   4.426   6.269 -0.3356  0.0327  1.0547
15919TIP3    H169248   1.209   4.355   6.333 -1.2395 -0.6456  0.4184
15919TIP3    H269249   1.174   4.501   6.320  0.8888  0.0475  1.7902
15920TIP3   OH269250   6.064   6.713  15.440  0.5287 -0.1959  0.3527
15920TIP3    H169251   6.046   6.808  15.441 -0.3526 -0.3386 -0.4150
15920TIP3    H269252   5.997   6.676  15.497  1.7769 -0.2441  1.8536
15921TIP3   OH269253   1.621   0.235  11.130 -0.3800  0.7626  0.1609
15921TIP3    H169254   1.587   0.318  11.163 -1.7285  1.0167 -1.7090
15921TIP3    H269255   1.660   0.256  11.046 -2.4096 -0.7047 -1.2507
15922TIP3   OH269256   6.354   0.245   5.537 -0.1261 -0.2773 -0.0960
15922TIP3    H169257   6.432   0.252   5.592 -1.7108  0.6718  2.1760
15922TIP3    H269258   6.343   0.333   5.499 -1.8303  0.6034  2.2305
15923TIP3   OH269259   0.547   1.647   4.832  0.4666  0.1477 -0.3619
15923TIP3    H169260   0.501   1.730   4.817  2.2905  1.5639  1.2563
15923TIP3    H269261   0.482   1.592   4.876 -0.6884  0.8331 -1.1580
15924TIP3   OH269262   0.401   4.660   3.059 -0.3934 -0.3044  0.8419
15924TIP3    H169263   0.477   4.708   3.093 -1.1665  1.0875  0.6539
15924TIP3    H269264   0.436   4.574   3.036  1.6220  0.9608 -1.2521
15925TIP3   OH269265   3.694   1.832   4.220 -0.5943 -0.1168  0.2164
15925TIP3    H169266   3.651   1.760   4.266  1.1583 -3.0728 -2.3843
15925TIP3    H269267   3.665   1.824   4.130 -0.6902  2.8541 -0.1201
15926TIP3   OH269268   0.316   1.119   6.822  0.2732  0.0718  0.2373
15926TIP3    H169269   0.248   1.179   6.854  0.0048 -0.3585  0.5005
15926TIP3    H269270   0.269   1.058   6.764  0.4981 -0.0175  0.1472
15927TIP3   OH269271   6.184   1.897  15.841 -0.1768 -0.4715 -0.2626
15927TIP3    H169272   6.272   1.903  15.804 -0.4610  0.4467 -0.8556
15927TIP3    H269273   6.193   1.927  15.931 -0.0605  0.8259 -0.6778
15928TIP3   OH269274   4.361   0.521   5.314  0.4562  0.0249 -0.4404
15928TIP3    H169275   4.295   0.458   5.284 -0.4661  1.0609 -0.6456
15928TIP3    H269276   4.316   0.572   5.381  1.2510  0.3658 -0.1565
15929TIP3   OH269277   4.250   2.046   4.567  0.6812 -0.5343 -0.9806
15929TIP3    H169278   4.235   2.113   4.501 -2.9509  0.8286  0.9520
15929TIP3    H269279   4.208   1.967   4.532  0.1081 -0.2456 -0.9440
15930TIP3   OH269280   0.595   0.440  13.089 -0.1581 -0.4759 -0.2244
15930TIP3    H169281   0.687   0.413  13.095  0.6563  2.1317  1.0309
15930TIP3    H269282   0.560   0.426  13.177  0.4123  2.4728  0.6048
15931TIP3   OH269283   3.102   2.245   4.511 -0.2390 -0.6570 -0.1919
15931TIP3    H169284   3.173   2.190   4.545 -0.8538  0.1508  2.6295
15931TIP3    H269285   3.031   2.235   4.574 -0.3788  3.3672  0.5629
15932TIP3   OH269286   2.897   6.580   4.045 -0.4626  0.2333  0.4927
15932TIP3    H169287   2.976   6.611   4.090 -1.8175  2.7961  1.3299
15932TIP3    H269288   2.851   6.528   4.110 -0.7737  1.0693  0.9527
15933TIP3   OH269289   4.732   3.778   0.068  0.1221  0.5099 -0.5139
15933TIP3    H169290   4.648   3.747   0.036  0.5606 -0.3349 -0.8734
15933TIP3    H269291   4.782   3.798  -0.012  0.7986 -0.4648 -0.3472
15934TIP3   OH269292   2.292   5.092  15.311 -0.1300 -0.7259  0.0816
15934TIP3    H169293   2.248   5.008  15.326 -2.2135  0.2325 -0.3129
15934TIP3    H269294   2.259   5.148  15.382  0.4462  0.0312 -0.2436
15935TIP3   OH269295   1.785   4.221   4.917  0.5319 -0.0718  0.1700
15935TIP3    H169296   1.724   4.294   4.907 -0.7469 -1.3441 -2.3947
15935TIP3    H269297   1.742   4.161   4.977 -0.2188 -0.4242 -0.7072
15936TIP3   OH269298   3.855   5.984  15.896 -0.3596  0.1352 -0.3019
15936TIP3    H169299   3.770   5.958  15.930 -0.2592  0.9977  0.6423
15936TIP3    H269300   3.899   6.027  15.969 -0.8725  3.8512 -1.9499
15937TIP3   OH269301   4.638   0.343   1.553  0.5910  0.0422  0.6448
15937TIP3    H169302   4.728   0.308   1.556  0.5692  0.0496  1.7486
15937TIP3    H269303   4.639   0.417   1.614  0.2419  1.0532 -0.5466
15938TIP3   OH269304   0.189   0.632   5.792  0.3924  0.0990  0.2866
15938TIP3    H169305   0.273   0.594   5.767 -0.3311 -1.4713  0.1723
15938TIP3    H269306   0.183   0.712   5.739  1.6664  0.0877  0.0801
15939TIP3   OH269307   3.885   6.166  11.646  0.1642 -0.4477 -0.2312
15939TIP3    H169308   3.920   6.248  11.611 -0.3436  0.0994  0.5087
15939TIP3    H269309   3.819   6.193  11.710  1.1406 -1.3915  1.2468
15940TIP3   OH269310   5.142   6.213   4.476 -0.1230  0.1417  0.0886
15940TIP3    H169311   5.101   6.171   4.552  0.8674 -1.6546 -0.3103
15940TIP3    H269312   5.187   6.289   4.512  0.2805 -0.6528  1.2991
15941TIP3   OH269313   1.336   4.399   1.016 -0.4584  0.0514 -0.3553
15941TIP3    H169314   1.417   4.419   0.969  1.2705  0.1249  2.4317
15941TIP3    H269315   1.297   4.484   1.033  0.9079  0.3880  1.4901
15942TIP3   OH269316   3.410   0.261  14.057  0.6106 -0.0252  0.3702
15942TIP3    H169317   3.417   0.332  14.121  0.7760  0.4801 -0.2006
15942TIP3    H269318   3.497   0.256  14.017  0.2815  0.2239 -0.3972
15943TIP3   OH269319   4.594   1.353   0.412 -0.2803  0.1296  0.0776
15943TIP3    H169320   4.562   1.328   0.498 -1.5229  1.3720  0.0161
15943TIP3    H269321   4.522   1.332   0.352  0.4601 -0.4632 -0.6245
15944TIP3   OH269322   1.576   0.287   3.557 -0.4686  0.1100 -0.0464
15944TIP3    H169323   1.590   0.197   3.589 -1.1843  0.4112  1.1491
15944TIP3    H269324   1.511   0.277   3.488 -0.0321 -0.3693 -0.4001
15945TIP3   OH269325   4.673   2.532   4.926 -0.6211  0.1426  0.0643
15945TIP3    H169326   4.607   2.486   4.978 -0.8531  2.2546  1.8010
15945TIP3    H269327   4.659   2.502   4.836 -3.9274  0.4504  0.3645
15946TIP3   OH269328   5.800   5.168   2.709 -0.5864  0.3414 -0.0309
15946TIP3    H169329   5.821   5.261   2.697 -0.1208  0.2898  0.3202
15946TIP3    H269330   5.726   5.167   2.769 -0.4910  0.4840  0.0902
15947TIP3   OH269331   0.693   6.271  13.381  0.3196 -0.5386  0.1002
15947TIP3    H169332   0.724   6.326  13.308  0.6410 -1.1458 -0.2269
15947TIP3    H269333   0.598   6.276  13.375  0.3136  1.2598  1.0501
15948TIP3   OH269334   3.643   2.511   1.848 -0.1119 -0.3286 -0.2216
15948TIP3    H169335   3.724   2.465   1.823 -0.3250 -0.9018  0.1351
15948TIP3    H269336   3.579   2.441   1.861  0.3617 -0.2788  3.4931
15949TIP3   OH269337   1.171   5.836   3.565 -0.3669 -0.0817 -0.4704
15949TIP3    H169338   1.093   5.781   3.563  0.8213 -1.8516 -0.9788
15949TIP3    H269339   1.194   5.847   3.473 -0.4516  1.0939 -0.3576
15950TIP3   OH269340   0.182   5.904   1.389  0.4996 -0.4598  0.4770
15950TIP3    H169341   0.238   5.948   1.452 -0.1181 -0.0904  0.7829
15950TIP3    H269342   0.233   5.903   1.308  2.5110 -3.4975  1.6050
15951TIP3   OH269343   2.299   3.451   1.649 -0.1137  0.4608 -0.3623
15951TIP3    H169344   2.205   3.444   1.666 -0.2291  2.3053 -0.0522
15951TIP3    H269345   2.336   3.482   1.732  0.6670  0.3703 -0.6713
15952TIP3   OH269346   4.190   0.209  17.050  0.2470  0.2774  0.2803
15952TIP3    H169347   4.160   0.161  17.127 -0.2898 -0.7110 -0.5270
15952TIP3    H269348   4.112   0.251  17.016  0.1354 -0.6691 -0.6795
15953TIP3   OH269349   6.131   5.431   4.351 -0.0769 -0.4678 -0.4075
15953TIP3    H169350   6.052   5.376   4.350 -0.2184 -0.2660 -1.1129
15953TIP3    H269351   6.203   5.368   4.357 -0.2134 -0.7884 -1.7226
15954TIP3   OH269352   2.927   4.980  14.442 -0.3069 -0.1510 -0.3790
15954TIP3    H169353   2.929   5.069  14.408 -0.3269  0.4115  1.0440
15954TIP3    H269354   3.015   4.947  14.427  0.4969  1.0314  1.3675
15955TIP3   OH269355   1.388   3.358   0.795  0.7090  0.2828  0.1240
15955TIP3    H169356   1.367   3.357   0.889  1.0839  0.7523  0.2180
15955TIP3    H269357   1.366   3.447   0.768 -0.6870 -0.2337 -0.5401
15956TIP3   OH269358   5.634   1.066   2.619  0.1129  0.2876  0.0023
15956TIP3    H169359   5.541   1.061   2.640  0.1793  0.2643  0.2982
15956TIP3    H269360   5.669   0.981   2.645  0.4310  0.7026  0.9780
15957TIP3   OH269361   3.475   1.876  13.613  0.5270 -0.1913 -0.6818
15957TIP3    H169362   3.502   1.801  13.559 -1.9400 -0.2033 -2.0513
15957TIP3    H269363   3.446   1.942  13.550 -1.8692  0.0569  0.5740
15958TIP3   OH269364   0.104   5.135   0.889  0.0299 -0.3842 -0.5490
15958TIP3    H169365   0.195   5.145   0.917  0.1436 -0.3806 -0.9195
15958TIP3    H269366   0.092   5.040   0.884 -0.9525 -0.5701  2.6487
15959TIP3   OH269367   3.906   2.510  13.615 -0.0922 -0.4673  0.3361
15959TIP3    H169368   3.859   2.440  13.659  0.7984 -2.2896 -1.4313
15959TIP3    H269369   3.865   2.517  13.529  1.0152 -0.1544 -0.1969
15960TIP3   OH269370   3.309   4.756   1.112  0.0668 -0.2101  0.0628
15960TIP3    H169371   3.363   4.822   1.155  0.0374  0.4722 -0.9158
15960TIP3    H269372   3.269   4.707   1.184  0.0303  0.8832  0.8134
15961TIP3   OH269373   6.728   6.103  13.381 -0.2784  0.2582  0.2919
15961TIP3    H169374   6.679   6.022  13.370  1.2547 -0.6567 -0.1197
15961TIP3    H269375   6.763   6.121  13.293 -0.5000  1.3195  0.4038
15962TIP3   OH269376   5.932   6.213   5.382 -0.0418  0.0602  0.4656
15962TIP3    H169377   6.000   6.157   5.345  2.0158  1.2217  2.2451
15962TIP3    H269378   5.967   6.302   5.373 -1.7298  0.7823  0.6995
15963TIP3   OH269379   6.525   0.217  12.259  0.3706  0.2601  0.7123
15963TIP3    H169380   6.587   0.241  12.190 -0.6498 -3.0539 -1.5624
15963TIP3    H269381   6.560   0.136  12.295 -0.2614  0.8144  2.7344
15964TIP3   OH269382   2.428   5.382   4.407 -0.0380 -0.4936 -0.0642
15964TIP3    H169383   2.513   5.340   4.422  0.8249  1.3298  0.4704
15964TIP3    H269384   2.446   5.450   4.342 -0.1666  2.3486  2.6066
15965TIP3   OH269385   2.485   3.221  14.217  0.2591  0.4048  0.1683
15965TIP3    H169386   2.533   3.220  14.135  0.1847  1.3689  0.0945
15965TIP3    H269387   2.552   3.235  14.284  0.2331  0.4338  0.1889
15966TIP3   OH269388   4.849   0.229   1.156  0.1261  0.2022  0.0143
15966TIP3    H169389   4.922   0.247   1.098 -1.1399  2.5173 -0.9697
15966TIP3    H269390   4.846   0.303   1.216 -0.5204 -0.6007  1.0208
15967TIP3   OH269391   5.937   3.130   2.476 -0.1467 -0.2088  0.1386
15967TIP3    H169392   5.845   3.155   2.481 -0.7291 -1.9564 -0.9975
15967TIP3    H269393   5.938   3.036   2.494  1.8339  0.2638  3.3011
15968TIP3   OH269394   3.479   5.472  16.303 -0.2642 -0.0760 -0.1951
15968TIP3    H169395   3.540   5.436  16.239  1.6415  0.2118  1.3456
15968TIP3    H269396   3.428   5.397  16.333 -0.4642 -0.3855 -1.2599
15969TIP3   OH269397   3.732   6.140   5.818 -0.1691  0.9016  0.0631
15969TIP3    H169398   3.649   6.095   5.805 -1.1314  2.4855  0.4917
15969TIP3    H269399   3.709   6.233   5.820  1.4219  1.3130  1.4808
15970TIP3   OH269400   6.466   5.752  13.943 -0.5400 -0.1231  0.1495
15970TIP3    H169401   6.531   5.820  13.963  1.3242 -2.3209  2.3307
15970TIP3    H269402   6.486   5.724  13.854  0.0305  0.7376 -0.0031
15971TIP3   OH269403   0.238   2.587   0.066  0.0082 -0.7674  0.0104
15971TIP3    H169404   0.301   2.528   0.107  0.7862 -1.5996 -2.2399
15971TIP3    H269405   0.181   2.530   0.014 -0.0056  0.3280 -1.2333
15972TIP3   OH269406   3.894   6.555   0.011  0.2811 -0.3158 -0.0042
15972TIP3    H169407   3.946   6.568  -0.069  0.3828 -2.5983 -0.3959
15972TIP3    H269408   3.805   6.538  -0.021  0.0989 -0.1728  0.4273
15973TIP3   OH269409   0.040   2.244   1.744  0.5289  0.2755 -0.1606
15973TIP3    H169410  -0.053   2.236   1.768  0.2859 -1.3211 -1.4393
15973TIP3    H269411   0.078   2.160   1.769  1.0615 -0.0212 -1.8707
15974TIP3   OH269412   0.952   6.496   4.595 -0.7128  0.1342  0.0127
15974TIP3    H169413   0.871   6.447   4.607  0.8194 -2.6908 -0.4073
15974TIP3    H269414   0.967   6.539   4.680 -1.7140 -0.7521  0.6631
15975TIP3   OH269415   5.442   0.203  10.759 -0.1631  0.1965  0.2684
15975TIP3    H169416   5.378   0.135  10.781 -0.6611  0.8185  0.8034
15975TIP3    H269417   5.440   0.208  10.664 -0.1650 -0.4897  0.2218
15976TIP3   OH269418   4.396   1.165  11.208  0.1610  0.4079  0.7137
15976TIP3    H169419   4.352   1.247  11.232  0.5177  0.4428  1.2842
15976TIP3    H269420   4.484   1.175  11.244  0.2977 -0.1072  0.5246
15977TIP3   OH269421   4.616   0.440  11.280  0.0560  0.2293 -0.0569
15977TIP3    H169422   4.617   0.367  11.218  1.1440  1.7877 -1.9856
15977TIP3    H269423   4.525   0.468  11.284 -0.0576 -0.0022 -0.8637
15978TIP3   OH269424   1.851   6.445   0.040 -0.3474  0.0287  0.0121
15978TIP3    H169425   1.910   6.457  -0.034 -0.4743 -1.8913 -0.4590
15978TIP3    H269426   1.907   6.450   0.117  0.0621  0.3866 -0.3034
15979TIP3   OH269427   3.837   3.101  13.881  0.2975  0.8296 -0.0756
15979TIP3    H169428   3.775   3.059  13.822  0.3162  0.8102 -0.0815
15979TIP3    H269429   3.786   3.122  13.959  0.3949  0.3668  0.1183
15980TIP3   OH269430   4.002   6.584   2.073  0.0846 -0.0266  0.2064
15980TIP3    H169431   4.055   6.580   1.994  0.3480 -0.4873  0.4056
15980TIP3    H269432   4.064   6.601   2.144  0.0848 -1.4262  0.5572
15981TIP3   OH269433   3.229   6.348   2.799 -0.7841  0.0665 -0.0104
15981TIP3    H169434   3.166   6.277   2.804 -3.0527  2.0151  1.4742
15981TIP3    H269435   3.259   6.362   2.889  0.1123  0.5817 -0.3681
15982TIP3   OH269436   4.052   1.492  12.358  0.2521  0.0899  0.3211
15982TIP3    H169437   3.981   1.542  12.317 -0.8093  0.2343  2.2135
15982TIP3    H269438   4.054   1.409  12.310  0.6563  1.1015 -1.5126
15983TIP3   OH269439   5.455   1.851  12.207 -0.0976  0.2299  0.3048
15983TIP3    H169440   5.380   1.799  12.180 -0.1218  0.4052  0.0294
15983TIP3    H269441   5.483   1.812  12.290  1.0251 -1.3770 -0.7972
15984TIP3   OH269442   6.609   1.732   1.108 -0.5712  0.0688  0.3548
15984TIP3    H169443   6.698   1.704   1.089 -1.1356 -0.9179 -1.0068
15984TIP3    H269444   6.602   1.819   1.067  0.0444  0.6079  1.3483
15985TIP3   OH269445   4.273   2.515  10.865 -0.0659 -0.1885  0.0378
15985TIP3    H169446   4.245   2.430  10.830 -1.7009 -0.3752  1.6435
15985TIP3    H269447   4.200   2.574  10.845 -0.8846 -0.2112  2.5931
15986TIP3   OH269448   3.482   5.778   0.362  0.0545 -0.8330  0.3446
15986TIP3    H169449   3.388   5.785   0.379  0.1052  0.7110  0.1543
15986TIP3    H269450   3.516   5.722   0.433 -1.1218 -2.2155 -0.1318
15987TIP3   OH269451   4.363   5.833   1.589  0.2088 -0.6751  0.4444
15987TIP3    H169452   4.350   5.768   1.659  0.1686 -0.0528  1.0305
15987TIP3    H269453   4.274   5.863   1.569  0.3241  0.1894  1.1540
15988TIP3   OH269454   1.107   4.262  11.596  0.0505  0.8910  0.2673
15988TIP3    H169455   1.180   4.237  11.539  0.4032 -0.1159  1.1210
15988TIP3    H269456   1.078   4.346  11.562  0.6058  0.5827 -1.0508
15989TIP3   OH269457   0.072   0.506   5.482 -0.0087  0.0833  0.1118
15989TIP3    H169458   0.039   0.471   5.564 -1.5653 -1.4721 -1.1275
15989TIP3    H269459   0.162   0.473   5.476 -1.1830 -3.3327 -0.6819
15990TIP3   OH269460   0.003   0.988   3.245  0.4508  0.5636 -0.3470
15990TIP3    H169461   0.040   0.942   3.170 -3.4454 -3.3247 -0.3176
15990TIP3    H269462   0.049   0.951   3.321 -0.1785 -0.6797 -0.5444
15991TIP3   OH269463   3.582   5.353   5.396  0.2487  0.3309  0.0781
15991TIP3    H169464   3.493   5.375   5.424  0.5022  0.0988  1.1212
15991TIP3    H269465   3.591   5.396   5.311 -1.5337 -1.2772 -1.0131
15992TIP3   OH269466   5.623   0.028   3.395  0.2655 -0.2472 -0.1475
15992TIP3    H169467   5.626   0.102   3.334 -1.1133  0.0850  0.1564
15992TIP3    H269468   5.709  -0.014   3.386  0.2252 -0.0005 -2.0465
15993TIP3   OH269469   2.353   4.278   4.577 -0.1958 -0.6476  0.2682
15993TIP3    H169470   2.410   4.201   4.583  1.4875  0.5347  0.1906
15993TIP3    H269471   2.341   4.292   4.483  2.4182  1.1431  0.0899
15994TIP3   OH269472   4.142   1.820   1.529  0.0192 -0.0987 -0.4668
15994TIP3    H169473   4.194   1.900   1.529 -0.7680  0.4307 -0.2685
15994TIP3    H269474   4.206   1.750   1.521  1.0685  0.3320  2.7135
15995TIP3   OH269475   4.109   1.288  14.330 -0.5716  0.3766 -0.5497
15995TIP3    H169476   4.056   1.282  14.409 -1.2869  1.3262 -0.9482
15995TIP3    H269477   4.090   1.207  14.282 -1.0178  0.3263 -0.2912
15996TIP3   OH269478   4.046   2.028  11.688  0.0257 -0.6372 -0.0435
15996TIP3    H169479   4.078   2.019  11.778 -0.6299 -0.3230  0.2317
15996TIP3    H269480   4.125   2.045  11.636  0.3862 -0.5997  0.5052
15997TIP3   OH269481   2.101   1.747  15.653  0.7599  0.5206 -0.2407
15997TIP3    H169482   2.008   1.759  15.633  0.3164 -1.8930  0.0825
15997TIP3    H269483   2.136   1.698  15.579  1.6677  0.8901 -0.0782
15998TIP3   OH269484   4.176   0.420   1.412 -0.7944  0.3766 -0.1745
15998TIP3    H169485   4.104   0.360   1.433 -0.0438 -1.1868 -1.7523
15998TIP3    H269486   4.255   0.368   1.427 -0.0921  1.2349 -0.8117
15999TIP3   OH269487   1.981   1.204   4.968  0.3448  0.8724  0.1463
15999TIP3    H169488   1.946   1.279   4.921  1.3114  0.7358 -0.8174
15999TIP3    H269489   1.952   1.217   5.059  0.3168  2.2860 -0.0443
16000TIP3   OH269490   1.255   1.491  12.207 -0.2390 -0.1279  0.0118
16000TIP3    H169491   1.232   1.435  12.132 -1.6613 -0.4955  0.6823
16000TIP3    H269492   1.213   1.575  12.188 -1.1398 -0.4124  0.6575
16001TIP3   OH269493   0.436   0.442  15.826  0.1617  0.3515 -0.2519
16001TIP3    H169494   0.437   0.513  15.890  1.2265  0.6397 -0.5686
16001TIP3    H269495   0.527   0.414  15.820 -0.1699 -0.7200 -0.4945
16002TIP3   OH269496   4.572   3.880   2.201  0.3480  0.6938 -0.2430
16002TIP3    H169497   4.533   3.955   2.157  0.5132  0.6230 -0.5134
16002TIP3    H269498   4.583   3.814   2.131 -3.0365 -0.9439  0.5542
16003TIP3   OH269499   0.835   0.169   1.186 -0.1868  0.3720  0.2589
16003TIP3    H169500   0.873   0.161   1.274  0.7038  1.4722 -0.0103
16003TIP3    H269501   0.817   0.262   1.176 -1.4855  0.0798 -0.2454
16004TIP3   OH269502   0.815   4.082   2.850 -0.4398  0.3791  0.1148
16004TIP3    H169503   0.747   4.025   2.885  0.0492 -1.2920 -1.4851
16004TIP3    H269504   0.797   4.086   2.756 -0.0024  2.2932  0.0661
16005TIP3   OH269505   4.310   0.818   5.145 -0.2481 -0.6908  0.0698
16005TIP3    H169506   4.396   0.785   5.169 -0.5178 -0.1689  1.8801
16005TIP3    H269507   4.263   0.741   5.112  0.1083 -1.5091  1.4192
16006TIP3   OH269508   4.706   1.529   4.782 -0.7338  0.4872  0.2916
16006TIP3    H169509   4.663   1.614   4.776 -0.3270  0.6307 -1.0726
16006TIP3    H269510   4.686   1.497   4.870  0.0526  2.4815  1.2500
16007TIP3   OH269511   1.441   3.776  12.042  0.1110 -0.5637  0.0403
16007TIP3    H169512   1.356   3.814  12.020  0.0126 -0.9198 -0.1889
16007TIP3    H269513   1.478   3.837  12.106  0.5061  0.6210 -1.2621
16008TIP3   OH269514   3.964   1.075   6.460  0.1335 -0.4788 -0.0975
16008TIP3    H169515   3.976   1.170   6.462  1.1461 -0.5758 -0.8400
16008TIP3    H269516   3.985   1.050   6.370 -1.2933 -1.2770 -0.2245
16009TIP3   OH269517   2.381   3.331  15.664 -0.7226 -0.2458  0.1655
16009TIP3    H169518   2.362   3.356  15.573  0.1403  0.5724  0.1937
16009TIP3    H269519   2.295   3.321  15.704 -1.1150  0.4359 -0.4733
16010TIP3   OH269520   5.520   6.486  16.363 -0.1139  0.0123  0.0614
16010TIP3    H169521   5.474   6.547  16.306  0.7027 -1.4216 -2.2795
16010TIP3    H269522   5.581   6.540  16.413  0.0390  1.1989 -1.3612
16011TIP3   OH269523   0.309   1.426   4.235 -0.0644  0.0423  0.3272
16011TIP3    H169524   0.361   1.367   4.289 -0.2107 -1.1706 -0.8032
16011TIP3    H269525   0.319   1.393   4.146  1.0815  2.6178 -0.6171
16012TIP3   OH269526   1.681   2.025   2.946  0.2045 -0.1152 -0.9491
16012TIP3    H169527   1.663   2.035   2.852  1.1559  1.3873 -0.9974
16012TIP3    H269528   1.758   1.969   2.949  1.2965  1.3394 -1.1693
16013TIP3   OH269529   3.798   5.271  15.235 -0.1475  0.4897 -1.1648
16013TIP3    H169530   3.865   5.333  15.264 -0.8128 -0.4983  3.2761
16013TIP3    H269531   3.718   5.301  15.278 -0.5476 -3.0953  0.9961
16014TIP3   OH269532   4.796   0.709  11.865 -0.2735  0.2116 -0.0042
16014TIP3    H169533   4.858   0.645  11.829  0.5077  0.8490  0.1710
16014TIP3    H269534   4.846   0.753  11.934 -1.4811 -0.4306  1.3141
16015TIP3   OH269535   3.140   6.799   2.321  0.4599  0.3198 -0.4646
16015TIP3    H169536   3.191   6.778   2.399 -0.3731  1.2730  0.3673
16015TIP3    H269537   3.053   6.821   2.354 -0.3602 -0.7494 -1.8035
16016TIP3   OH269538   6.588   4.152   5.549 -0.1322  0.0689 -0.0353
16016TIP3    H169539   6.630   4.167   5.634  0.8921  1.6399 -0.7595
16016TIP3    H269540   6.540   4.232   5.532  0.3287  0.0971 -1.2856
16017TIP3   OH269541   6.236   3.959  15.068 -0.1610 -0.3215  0.3989
16017TIP3    H169542   6.157   3.958  15.121 -1.4100 -1.0161 -1.3820
16017TIP3    H269543   6.301   3.913  15.122 -1.1938 -0.4790  1.5551
16018TIP3   OH269544   3.825   3.389   5.849 -0.3148 -0.1347  0.1176
16018TIP3    H169545   3.743   3.431   5.875 -0.8873 -0.2988 -1.3357
16018TIP3    H269546   3.869   3.369   5.931 -1.1052  1.1856  0.8880
16019TIP3   OH269547   0.987   3.578   3.238 -0.4790  0.4241 -0.3029
16019TIP3    H169548   1.027   3.654   3.195 -1.0512  1.1954  0.4843
16019TIP3    H269549   1.046   3.558   3.311 -0.4585  0.2610 -0.3635
16020TIP3   OH269550   6.439   1.218   5.098  0.4998 -0.1240 -0.3579
16020TIP3    H169551   6.382   1.141   5.088  0.8378 -0.2372 -1.5603
16020TIP3    H269552   6.395   1.286   5.047  1.2318 -0.1010 -0.9709
16021TIP3   OH269553   3.121   1.207  15.065  0.3876  0.4675 -0.5197
16021TIP3    H169554   3.111   1.302  15.059 -3.5958  0.2348 -0.7217
16021TIP3    H269555   3.086   1.174  14.982  1.5202 -1.2199 -0.3838
16022TIP3   OH269556   2.031   2.925   2.510  0.6390 -0.4713  0.1959
16022TIP3    H169557   2.012   2.950   2.601 -0.2210  0.3759 -0.1955
16022TIP3    H269558   1.971   2.979   2.458  3.0808  1.2259 -1.0626
16023TIP3   OH269559   0.098   3.232   6.314 -0.5736 -0.7695  0.3427
16023TIP3    H169560   0.116   3.325   6.327  2.3782 -1.0695 -0.8066
16023TIP3    H269561   0.143   3.188   6.386 -0.8082 -1.3908  0.1231
16024TIP3   OH269562   2.189   2.536   2.671 -0.4155 -0.9536 -0.2874
16024TIP3    H169563   2.145   2.547   2.587  0.5252 -0.6532 -0.7606
16024TIP3    H269564   2.216   2.445   2.673  1.6289 -0.4430 -1.4041
16025TIP3   OH269565   6.840   0.267   5.182 -0.1262 -0.1669 -0.1645
16025TIP3    H169566   6.855   0.210   5.106 -0.8446  0.3388 -0.7035
16025TIP3    H269567   6.888   0.347   5.161 -1.2012  0.3839 -0.5991
16026TIP3   OH269568   0.051   5.632   5.007 -0.6210 -0.6141  0.2183
16026TIP3    H169569  -0.005   5.597   5.076 -0.9892 -0.0344  0.2181
16026TIP3    H269570  -0.006   5.689   4.956  0.4711  1.9565  1.6557
16027TIP3   OH269571   5.509   0.117   1.626 -0.0597 -0.0215 -0.0737
16027TIP3    H169572   5.488   0.052   1.693 -2.4256 -0.0594 -0.7764
16027TIP3    H269573   5.487   0.201   1.667 -1.8246 -0.0677 -0.8500
16028TIP3   OH269574   1.326   6.139  11.027 -0.0996  0.0519  0.5442
16028TIP3    H169575   1.414   6.158  11.061 -1.2242  1.5890  2.8323
16028TIP3    H269576   1.285   6.224  11.019 -0.5702 -0.3480 -3.2731
16029TIP3   OH269577   3.552   4.828  16.990  0.0467  0.1955  0.5629
16029TIP3    H169578   3.472   4.867  17.028  0.0446 -0.2356  1.0021
16029TIP3    H269579   3.533   4.823  16.897 -1.2725 -1.7724  0.8788
16030TIP3   OH269580   0.903   3.614  14.236 -0.0349 -0.3018 -0.1306
16030TIP3    H169581   0.930   3.528  14.205  3.8863  1.3952 -2.0016
16030TIP3    H269582   0.981   3.668  14.228 -1.3319  2.7224  4.1070
16031TIP3   OH269583   6.724   4.367   1.158 -0.0357 -0.3239 -0.3497
16031TIP3    H169584   6.673   4.405   1.229 -0.5626 -0.7359 -0.5007
16031TIP3    H269585   6.796   4.321   1.203 -0.6783 -1.0542 -0.0451
16032TIP3   OH269586   3.321   6.789  11.744 -0.2247  0.4797  0.3939
16032TIP3    H169587   3.267   6.724  11.699 -0.0294 -0.1719  1.0800
16032TIP3    H269588   3.281   6.873  11.722 -0.6562  0.1071 -0.2698
16033TIP3   OH269589   1.200   1.736  11.479 -0.0850 -0.0825  0.0658
16033TIP3    H169590   1.107   1.719  11.493  0.2297 -1.0744  1.1313
16033TIP3    H269591   1.245   1.675  11.539  1.2535  0.0759 -0.7334
16034TIP3   OH269592   3.811   6.203  15.730  0.2964 -0.4541 -0.3402
16034TIP3    H169593   3.771   6.269  15.787 -1.1419 -0.4914 -1.2504
16034TIP3    H269594   3.826   6.128  15.788  2.0177  0.6507  0.7178
16035TIP3   OH269595   0.311   5.140   4.164 -0.5519 -0.1691 -0.0529
16035TIP3    H169596   0.383   5.157   4.225 -0.1138 -0.3598 -0.5086
16035TIP3    H269597   0.321   5.207   4.096 -1.0198  0.0230  0.0682
16036TIP3   OH269598   5.439   0.764  16.313  0.1757  0.2110 -0.7799
16036TIP3    H169599   5.448   0.855  16.341 -0.0843  0.4558 -1.4773
16036TIP3    H269600   5.512   0.749  16.254  1.4677 -0.6875  0.9446
16037TIP3   OH269601   4.910   6.008  15.060 -0.2356 -0.9262  0.2814
16037TIP3    H169602   4.927   6.051  15.144 -2.4767  2.0912 -0.6523
16037TIP3    H269603   4.834   5.952  15.077 -1.4549  0.6116  0.0529
16038TIP3   OH269604   2.649   2.437   2.220 -0.1779  0.3835  0.0858
16038TIP3    H169605   2.569   2.415   2.268 -0.1752  1.0913  0.4259
16038TIP3    H269606   2.705   2.360   2.231 -1.2186 -0.5780 -1.0784
16039TIP3   OH269607   6.026   1.426   0.595 -0.1722 -0.0074 -0.1600
16039TIP3    H169608   6.066   1.443   0.681 -0.1990  0.0024 -0.1493
16039TIP3    H269609   5.933   1.443   0.609 -0.2020 -0.1832 -0.1434
16040TIP3   OH269610   6.519   2.595   5.460 -0.8647 -0.4281 -0.3831
16040TIP3    H169611   6.541   2.609   5.553  0.2650 -2.3383 -0.3214
16040TIP3    H269612   6.423   2.597   5.459 -0.8934  1.0705  0.5434
16041TIP3   OH269613   2.999   1.549   5.139 -0.6071  0.1219  0.3492
16041TIP3    H169614   3.091   1.566   5.155 -0.7299  0.1397  1.0733
16041TIP3    H269615   2.998   1.477   5.075 -0.0861  1.6145 -1.4251
16042TIP3   OH269616   5.938   1.312  13.252  0.0603 -0.4451 -0.7657
16042TIP3    H169617   5.967   1.327  13.161 -0.3424  0.6836 -0.7216
16042TIP3    H269618   6.019   1.308  13.302  0.2404  0.3801 -0.9764
16043TIP3   OH269619   3.059   6.774   1.967  0.3828 -0.3859  0.6396
16043TIP3    H169620   2.986   6.718   1.941  0.6415 -0.5155  0.1644
16043TIP3    H269621   3.137   6.722   1.947  0.6529  0.3898 -0.4635
16044TIP3   OH269622   3.078   4.775   2.405 -0.1769  0.0407  0.0575
16044TIP3    H169623   2.987   4.803   2.397  0.4521  2.3699  0.3754
16044TIP3    H269624   3.108   4.814   2.487  0.2371 -3.4937  1.8088
16045TIP3   OH269625   1.614   3.883  14.552  0.0239 -0.1799  0.3140
16045TIP3    H169626   1.605   3.927  14.637 -0.8924  1.7305 -0.7245
16045TIP3    H269627   1.687   3.927  14.509  0.1379 -0.7699 -0.1113
16046TIP3   OH269628   3.336   2.887  15.099  0.6960  0.2566 -0.5438
16046TIP3    H169629   3.301   2.819  15.042 -0.4375  0.5552 -0.2542
16046TIP3    H269630   3.284   2.965  15.077  1.1811  0.7203 -0.0703
16047TIP3   OH269631   0.073   5.128   4.578  0.2007  0.3305  0.1101
16047TIP3    H169632   0.158   5.157   4.611  1.0659 -0.0361 -1.6513
16047TIP3    H269633   0.021   5.113   4.656  1.2707  1.9854  1.2048
16048TIP3   OH269634   1.212   3.068   3.356  0.1923  0.2916  0.3305
16048TIP3    H169635   1.190   3.076   3.449  0.5216 -1.3531  0.5835
16048TIP3    H269636   1.303   3.039   3.356  0.6173  1.5280 -0.5675
16049TIP3   OH269637   4.589   5.762   0.540  0.3015 -0.5772 -0.8502
16049TIP3    H169638   4.678   5.762   0.505  0.9302 -1.2140  0.6373
16049TIP3    H269639   4.577   5.675   0.576 -0.1127  0.1388  0.8604
16050TIP3   OH269640   2.907   5.469  11.836  0.3036 -0.1140 -0.2747
16050TIP3    H169641   2.834   5.408  11.835 -0.6607  0.9828  0.5692
16050TIP3    H269642   2.969   5.434  11.771  0.0098 -2.1911  0.5006
16051TIP3   OH269643   1.184   5.654   0.144  0.3342  0.0198  0.3356
16051TIP3    H169644   1.189   5.747   0.167  1.9390 -0.2843  1.3496
16051TIP3    H269645   1.132   5.653   0.063  0.7665  1.8570 -0.0285
16052TIP3   OH269646   1.702   5.215   3.277 -0.9219  0.6953 -0.2717
16052TIP3    H169647   1.768   5.149   3.298  0.2667  2.2226  1.0397
16052TIP3    H269648   1.629   5.194   3.336 -0.6448  0.4140 -0.0236
16053TIP3   OH269649   6.548   1.916   5.197  0.8323  0.3785  0.2598
16053TIP3    H169650   6.632   1.942   5.159 -0.4571  1.0881 -2.3221
16053TIP3    H269651   6.484   1.973   5.154 -1.0007 -0.1457  2.1454
16054TIP3   OH269652   3.186   6.782  11.215 -0.6115  0.5067  0.2972
16054TIP3    H169653   3.206   6.689  11.210 -2.8855 -0.0887  0.7470
16054TIP3    H269654   3.189   6.814  11.125  1.7315  0.4127  0.3012
16055TIP3   OH269655   5.722   4.899   3.615  0.3894 -0.1486 -1.1581
16055TIP3    H169656   5.650   4.837   3.612 -1.9190  2.3767 -1.9242
16055TIP3    H269657   5.776   4.870   3.688 -2.5443 -0.9933  0.8413
16056TIP3   OH269658   0.338   4.714   5.607  0.3605 -0.1931  0.5282
16056TIP3    H169659   0.327   4.648   5.538 -0.6968  0.1148  0.3816
16056TIP3    H269660   0.417   4.687   5.654  1.2078 -0.2951 -0.9161
16057TIP3   OH269661   0.841   1.873  14.246  0.1960  0.2717  0.2562
16057TIP3    H169662   0.770   1.811  14.232  0.6130  0.1066 -1.3411
16057TIP3    H269663   0.904   1.825  14.300 -0.3389 -0.0098  0.6425
16058TIP3   OH269664   4.643   4.468  16.491 -0.2384  0.2688  0.0019
16058TIP3    H169665   4.640   4.501  16.581 -0.4535 -1.7338  0.7896
16058TIP3    H269666   4.726   4.420  16.486 -0.7368 -0.5522 -0.5140
16059TIP3   OH269667   6.280   4.014  16.951  0.0157 -0.4202 -0.0444
16059TIP3    H169668   6.242   3.998  17.037  0.8280 -0.3713  0.3376
16059TIP3    H269669   6.237   3.951  16.893 -1.0251  0.0022  0.2567
16060TIP3   OH269670   4.983   6.804  12.299 -0.0626 -0.1379 -0.0151
16060TIP3    H169671   5.068   6.848  12.304  0.0938 -0.5246  0.8135
16060TIP3    H269672   5.004   6.711  12.290 -0.3823 -0.3883  1.5665
16061TIP3   OH269673   4.646   2.490  16.650 -0.2540 -0.0201 -0.0577
16061TIP3    H169674   4.719   2.551  16.640  0.7078 -1.1299 -0.1043
16061TIP3    H269675   4.621   2.496  16.742  1.0781 -0.8772  0.3941
16062TIP3   OH269676   2.098   3.408   3.308 -0.2618 -0.0382 -0.6688
16062TIP3    H169677   2.183   3.389   3.268  0.7571  1.8390  0.4713
16062TIP3    H269678   2.093   3.348   3.383 -0.0891 -0.3531 -0.9064
16063TIP3   OH269679   4.632   6.695  15.908  0.2370  0.2043 -0.2272
16063TIP3    H169680   4.705   6.666  15.963 -0.1919 -2.5455 -0.9928
16063TIP3    H269681   4.674   6.732  15.831  0.8058  1.1576  0.5106
16064TIP3   OH269682   2.838   5.464   0.982  0.8192 -0.0525 -0.4776
16064TIP3    H169683   2.803   5.546   1.017  1.0443  0.2949 -1.0601
16064TIP3    H269684   2.890   5.491   0.906  2.1684 -0.5703  0.2321
16065TIP3   OH269685   4.195   5.865   4.608  0.0070 -0.5100  0.2968
16065TIP3    H169686   4.128   5.875   4.674  0.6387  1.6426  0.7234
16065TIP3    H269687   4.278   5.869   4.656  0.4511 -1.0613 -0.3997
16066TIP3   OH269688   3.108   2.301   3.990 -0.5645 -0.2534  0.2007
16066TIP3    H169689   3.138   2.211   3.996 -0.7383 -0.3542 -0.3465
16066TIP3    H269690   3.055   2.315   4.069 -0.1319 -0.4734  0.5288
16067TIP3   OH269691   2.384   1.930  11.480 -0.6773  0.1404 -0.6625
16067TIP3    H169692   2.452   1.992  11.453  0.0839 -0.5234 -0.3090
16067TIP3    H269693   2.414   1.845  11.448 -0.3880 -0.4636  1.0742
16068TIP3   OH269694   1.868   2.620  13.750 -0.1229  0.4948 -0.0740
16068TIP3    H169695   1.799   2.615  13.817 -1.5669  0.3657 -1.5004
16068TIP3    H269696   1.949   2.631  13.800 -0.8732 -1.6052  1.7752
16069TIP3   OH269697   0.514   6.437   3.411 -0.3041 -0.2123  0.2279
16069TIP3    H169698   0.591   6.490   3.431 -0.1348  0.1630 -1.3250
16069TIP3    H269699   0.472   6.481   3.337 -1.6208 -0.8133  0.5699
16070TIP3   OH269700   0.368   6.060  14.431 -0.2760  0.5953 -0.2561
16070TIP3    H169701   0.385   6.146  14.392 -1.9662  0.6025 -1.0803
16070TIP3    H269702   0.281   6.035  14.398 -1.4786  0.1865  2.8049
16071TIP3   OH269703   5.265   0.507   2.501  0.0581 -0.3167 -0.4234
16071TIP3    H169704   5.258   0.421   2.461  1.0494 -1.1519  1.0822
16071TIP3    H269705   5.180   0.522   2.542 -0.7974  0.3360 -2.3161
16072TIP3   OH269706   4.916   6.151   1.712 -0.0283  0.8247  0.2909
16072TIP3    H169707   4.830   6.191   1.697 -0.3133  0.4292  0.8378
16072TIP3    H269708   4.925   6.149   1.807 -0.7107 -1.8032  0.3804
16073TIP3   OH269709   6.702   1.916  15.689 -0.2503  0.0695  0.6689
16073TIP3    H169710   6.672   1.918  15.780 -2.3516 -1.5941  0.1139
16073TIP3    H269711   6.779   1.860  15.690  0.1656  0.6356  1.5030
16074TIP3   OH269712   4.950   1.391   3.898  0.0772 -0.3041 -0.2440
16074TIP3    H169713   4.858   1.372   3.917 -0.0425  0.5785  0.1285
16074TIP3    H269714   4.993   1.305   3.896  0.1450 -0.6399  4.3313
16075TIP3   OH269715   4.897   1.461  14.188  0.4826  0.0263  0.7043
16075TIP3    H169716   4.842   1.394  14.147  0.1015 -0.2620  1.6434
16075TIP3    H269717   4.874   1.456  14.281  2.5608 -0.5366  1.2440
16076TIP3   OH269718   4.489   1.694   0.834 -0.0962  0.7980  0.0664
16076TIP3    H169719   4.578   1.694   0.868  0.7696 -3.2450 -1.6349
16076TIP3    H269720   4.498   1.718   0.742 -0.4522 -1.0045 -0.4838
16077TIP3   OH269721   1.479   2.991   3.707  0.5380 -0.1361  0.2647
16077TIP3    H169722   1.546   2.923   3.705  0.9978  0.3333 -0.8993
16077TIP3    H269723   1.495   3.044   3.629  0.0575  1.1870  1.0257
16078TIP3   OH269724   2.594   1.522  15.893  0.0636  0.3787 -0.7873
16078TIP3    H169725   2.516   1.576  15.905  0.3451  0.8171 -0.9071
16078TIP3    H269726   2.560   1.435  15.872 -0.3951  0.7471 -1.6264
16079TIP3   OH269727   5.548   2.758   5.146 -0.2417 -0.6554 -0.2494
16079TIP3    H169728   5.552   2.840   5.194 -0.6738 -0.4794 -0.5063
16079TIP3    H269729   5.639   2.740   5.122 -0.1387 -0.2786 -0.1498
16080TIP3   OH269730   5.736   0.306   6.326  0.1644 -0.1169 -0.1074
16080TIP3    H169731   5.749   0.391   6.369 -0.0352 -0.1614  0.0380
16080TIP3    H269732   5.645   0.283   6.344 -0.1525  0.2168 -1.1761
16081TIP3   OH269733   6.648   5.697  15.137 -0.1343  0.6568 -0.2971
16081TIP3    H169734   6.703   5.772  15.160  1.1668 -0.7163  1.2796
16081TIP3    H269735   6.610   5.668  15.220 -0.8037 -0.3162 -0.9167
16082TIP3   OH269736   6.277   1.046  12.968 -0.0240 -0.1770  0.2107
16082TIP3    H169737   6.358   1.022  12.924 -0.6187 -0.6899 -0.6308
16082TIP3    H269738   6.297   1.130  13.010  1.8056 -1.6087  2.4651
16083TIP3   OH269739   4.901   4.539   2.402 -0.0763 -0.4270  0.3870
16083TIP3    H169740   4.992   4.532   2.373  0.4015  2.3705  0.9556
16083TIP3    H269741   4.903   4.513   2.494  0.1423 -0.3452  0.4051
16084TIP3   OH269742   2.445   2.023  15.888 -0.3430 -0.2407 -0.4242
16084TIP3    H169743   2.453   1.928  15.893  1.6769 -0.1701 -1.1596
16084TIP3    H269744   2.410   2.039  15.800 -1.2944 -0.3096 -0.0656
16085TIP3   OH269745   1.562   1.647  11.299 -0.2465 -0.4917  0.2632
16085TIP3    H169746   1.514   1.729  11.313  1.3948  0.2177  2.4584
16085TIP3    H269747   1.648   1.675  11.269 -0.0725 -1.5217 -0.2459
16086TIP3   OH269748   2.546   6.598   0.905 -0.0719  0.1749 -0.3599
16086TIP3    H169749   2.602   6.672   0.929 -2.0420  1.9016 -0.8833
16086TIP3    H269750   2.466   6.611   0.955 -0.3805 -1.8104 -0.2364
16087TIP3   OH269751   0.397   4.723  11.394  0.1896  0.1805 -0.3866
16087TIP3    H169752   0.435   4.748  11.478 -2.6244  0.0492  1.0436
16087TIP3    H269753   0.411   4.628  11.388 -0.8019 -0.0418  0.6289
16088TIP3   OH269754   2.409   3.918  11.834 -0.2728  0.2899 -0.2836
16088TIP3    H169755   2.444   3.835  11.864  0.0078  0.5131  0.0149
16088TIP3    H269756   2.359   3.896  11.756  0.8544  0.0230 -0.9515
16089TIP3   OH269757   1.302   0.901   4.973 -0.5650  0.2181  0.0557
16089TIP3    H169758   1.309   0.989   4.936  0.8944 -1.1413 -3.2961
16089TIP3    H269759   1.375   0.895   5.034 -2.4672  2.2099  2.7813
16090TIP3   OH269760   0.313   3.097   6.483 -0.1792  0.5798  0.7805
16090TIP3    H169761   0.321   3.061   6.572 -0.3109  1.6843  1.2509
16090TIP3    H269762   0.379   3.166   6.480  1.5292 -0.9890 -0.8080
16091TIP3   OH269763   4.562   6.407   0.677 -0.3049 -0.6477 -0.0845
16091TIP3    H169764   4.613   6.377   0.751  0.7391 -1.1316 -0.9707
16091TIP3    H269765   4.625   6.452   0.621 -0.7528 -1.5431 -1.3575
16092TIP3   OH269766   0.216   0.682  11.936  0.0717  0.4066 -0.3746
16092TIP3    H169767   0.296   0.632  11.918 -0.2604 -0.1364 -0.3715
16092TIP3    H269768   0.216   0.692  12.031 -0.5444 -0.7807 -0.2249
16093TIP3   OH269769   5.795   5.864   5.652  0.6063 -0.3355 -0.3989
16093TIP3    H169770   5.846   5.857   5.733  0.8843  1.0625 -0.4280
16093TIP3    H269771   5.794   5.958   5.633  0.1600 -0.6052 -1.7765
16094TIP3   OH269772   6.769   1.087  16.374 -0.2412 -0.6753  0.1373
16094TIP3    H169773   6.699   1.071  16.437 -0.0013 -0.9361  0.3442
16094TIP3    H269774   6.760   1.016  16.310 -0.3199 -0.5664  0.0291
16095TIP3   OH269775   5.639   3.353  14.676  0.1683  0.0736 -0.3547
16095TIP3    H169776   5.696   3.289  14.717 -2.5022 -2.5479 -0.3584
16095TIP3    H269777   5.627   3.421  14.742  0.2490 -1.3131  1.1671
16096TIP3   OH269778   5.341   4.674   3.237 -0.1822 -0.2674 -0.2858
16096TIP3    H169779   5.393   4.745   3.275 -0.0098 -1.4518  1.8924
16096TIP3    H269780   5.255   4.713   3.222 -1.0631 -0.1564  3.7264
16097TIP3   OH269781   2.663   4.631   6.682 -0.0317 -0.6135  0.2338
16097TIP3    H169782   2.689   4.580   6.605 -1.7249 -0.1262 -0.7170
16097TIP3    H269783   2.741   4.633   6.737  0.9049 -1.8785 -0.9781
16098TIP3   OH269784   0.293   4.946  14.638 -0.0046 -0.2106  0.0260
16098TIP3    H169785   0.249   4.941  14.553  0.5948  1.4267 -0.4167
16098TIP3    H269786   0.304   5.040  14.654  0.9543 -0.5194  1.3525
16099TIP3   OH269787   2.088   5.925   3.987 -0.1682  0.2883  0.4605
16099TIP3    H169788   1.994   5.909   3.975  0.0680 -1.6433  0.8563
16099TIP3    H269789   2.126   5.838   3.993  2.1946  0.8175 -3.4844
16100TIP3   OH269790   2.954   6.529   0.410  0.3361  0.2767  0.0505
16100TIP3    H169791   2.958   6.513   0.316  0.7774 -0.0892  0.1278
16100TIP3    H269792   2.930   6.622   0.418  0.7911  0.4361 -0.4226
16101TIP3   OH269793   5.340   6.764   2.563  0.1583  0.4275 -0.9632
16101TIP3    H169794   5.418   6.738   2.514 -0.3446 -0.1387 -1.4901
16101TIP3    H269795   5.304   6.682   2.598  0.5065  0.8218  0.3808
16102TIP3   OH269796   2.916   1.522   1.783 -0.8982 -0.3473 -0.0433
16102TIP3    H169797   2.887   1.482   1.701  1.1423 -1.4291 -0.3028
16102TIP3    H269798   2.923   1.449   1.844  0.4549 -0.0298  0.2162
16103TIP3   OH269799   6.764   1.949   0.722 -0.5522 -0.5188 -0.2111
16103TIP3    H169800   6.729   1.900   0.648 -1.9756  2.0253 -1.3823
16103TIP3    H269801   6.838   1.997   0.686 -0.0135 -0.7762  0.5428
16104TIP3   OH269802   5.990   4.237   0.063 -0.4490 -0.5782 -0.4410
16104TIP3    H169803   5.918   4.182   0.094  1.3345 -2.1516  1.1661
16104TIP3    H269804   5.992   4.222  -0.032 -2.3787 -0.2783 -0.5581
16105TIP3   OH269805   0.433   2.130   6.570  0.0223 -0.7304 -0.1593
16105TIP3    H169806   0.436   2.149   6.476  3.3623 -0.4685 -0.1110
16105TIP3    H269807   0.412   2.036   6.575 -1.0416 -0.5625 -1.0872
16106TIP3   OH269808   2.488   5.677  14.559 -0.2031 -0.1807 -0.0299
16106TIP3    H169809   2.527   5.707  14.477  0.6220 -3.0726 -0.7936
16106TIP3    H269810   2.394   5.689  14.548 -0.1189 -0.7738 -1.5383
16107TIP3   OH269811   5.465   0.595  10.728  0.1483  0.4685  0.0039
16107TIP3    H169812   5.396   0.627  10.786 -0.9842  0.3239 -1.2229
16107TIP3    H269813   5.499   0.674  10.686 -1.2724  0.3133 -1.5252
16108TIP3   OH269814   4.506   1.656   2.667 -0.0818  0.1689 -0.5143
16108TIP3    H169815   4.464   1.570   2.673  0.5656 -0.1784 -0.9379
16108TIP3    H269816   4.538   1.662   2.577 -1.7832  1.6473 -1.0892
16109TIP3   OH269817   1.483   3.911  13.738 -0.6938 -0.2436 -0.2912
16109TIP3    H169818   1.563   3.924  13.789 -1.7483 -1.9346  1.9742
16109TIP3    H269819   1.506   3.842  13.676 -0.5243 -1.1979  0.7888
16110TIP3   OH269820   5.590   4.492  14.551  0.8063  0.3009  0.1691
16110TIP3    H169821   5.501   4.504  14.519  0.3841 -2.5909 -0.0203
16110TIP3    H269822   5.587   4.520  14.643 -0.8149 -1.4145  0.6866
16111TIP3   OH269823   6.244   4.741  15.559  0.6531  0.3936 -0.1867
16111TIP3    H169824   6.190   4.789  15.497  0.3469 -1.2805 -1.2881
16111TIP3    H269825   6.192   4.664  15.581  1.3174  0.3079  1.1484
16112TIP3   OH269826   2.701   5.413  10.324  0.2549  0.7102  0.0787
16112TIP3    H169827   2.691   5.439  10.233  1.5628  0.1351 -0.2493
16112TIP3    H269828   2.786   5.370  10.328 -0.0224  0.2269  1.4606
16113TIP3   OH269829   2.154   5.416  10.931 -0.1842 -0.4460 -0.1014
16113TIP3    H169830   2.158   5.410  10.836  1.7948 -4.2442  0.0160
16113TIP3    H269831   2.237   5.455  10.957  0.0788 -1.0915  0.0636
16114TIP3   OH269832   4.755   4.588   3.114 -0.3277 -0.0932 -0.1745
16114TIP3    H169833   4.840   4.548   3.132 -0.6011 -0.0408  1.3904
16114TIP3    H269834   4.691   4.525   3.147 -0.9073 -0.0711 -1.2123
16115TIP3   OH269835   2.180   1.479   4.290 -0.1783 -0.1278  0.2768
16115TIP3    H169836   2.111   1.420   4.322  0.8802 -1.6471 -0.1014
16115TIP3    H269837   2.237   1.493   4.365  0.9043 -1.6173 -0.2240
16116TIP3   OH269838   0.831   0.478   2.568  0.4912  0.6333  0.5222
16116TIP3    H169839   0.853   0.478   2.474 -2.7497 -0.0122 -0.3805
16116TIP3    H269840   0.890   0.413   2.606  0.5829 -0.5632 -1.4768
16117TIP3   OH269841   2.965   5.787  15.053  0.1074  0.1695 -0.4284
16117TIP3    H169842   2.914   5.794  14.972 -2.2019  3.0890  1.0532
16117TIP3    H269843   2.904   5.748  15.116  1.4924 -1.0403  0.2000
16118TIP3   OH269844   0.545   0.269   3.816  0.4593  0.2711  0.2683
16118TIP3    H169845   0.637   0.290   3.799  0.6812 -0.2426  0.7875
16118TIP3    H269846   0.504   0.354   3.834  0.7715  0.5332 -0.2295
16119TIP3   OH269847   3.121   5.472   2.028  0.4446 -0.4172  0.4281
16119TIP3    H169848   3.099   5.417   2.103 -0.1763  1.0747  1.3806
16119TIP3    H269849   3.057   5.543   2.030 -0.2009 -0.8137 -2.0834
16120TIP3   OH269850   2.114   4.932  12.404 -0.0753 -0.5932 -0.1513
16120TIP3    H169851   2.121   5.010  12.458 -1.3346 -0.6400  0.1158
16120TIP3    H269852   2.204   4.899  12.396  0.5020  0.9933 -0.4698
16121TIP3   OH269853   5.253   5.263  13.186 -0.7357 -0.1058 -0.1192
16121TIP3    H169854   5.232   5.325  13.255  1.4098 -0.5963  1.0404
16121TIP3    H269855   5.189   5.192  13.197 -2.1244  1.0576 -0.4030
16122TIP3   OH269856   4.826   6.289   2.582 -0.0123  0.5035  0.0121
16122TIP3    H169857   4.764   6.355   2.614  0.2470  0.7357  0.0337
16122TIP3    H269858   4.847   6.236   2.658 -0.3104  0.3234 -0.0297
16123TIP3   OH269859   5.847   2.281   3.149 -0.0249  0.0766 -0.2536
16123TIP3    H169860   5.789   2.206   3.156 -0.0891  0.0315 -1.1450
16123TIP3    H269861   5.791   2.352   3.117  0.1820  0.3185 -0.0851
16124TIP3   OH269862   5.447   2.394   4.998  0.2748 -0.2702  0.0060
16124TIP3    H169863   5.359   2.357   4.997  1.1925 -2.6507 -0.8775
16124TIP3    H269864   5.485   2.361   5.080  1.1885 -1.5910 -0.9056
16125TIP3   OH269865   2.159   1.730  15.941 -0.0189 -0.1477 -0.2596
16125TIP3    H169866   2.119   1.743  15.855  0.3431 -0.4967 -0.4858
16125TIP3    H269867   2.115   1.793  15.998 -0.1263  0.2174 -0.7423
16126TIP3   OH269868   0.290   3.429  13.817 -0.1953  0.4357  0.3022
16126TIP3    H169869   0.282   3.478  13.899  1.8553  1.0645  0.1844
16126TIP3    H269870   0.310   3.340  13.845 -0.4690  0.4291  0.4843
16127TIP3   OH269871   1.434   5.486  14.734 -0.7869 -0.1888 -0.7057
16127TIP3    H169872   1.386   5.508  14.654 -0.4948 -1.7140 -1.3314
16127TIP3    H269873   1.506   5.431  14.704 -0.0959  0.0209  0.5068
16128TIP3   OH269874   3.700   3.017   0.040  0.1555  0.2677 -0.6387
16128TIP3    H169875   3.726   3.101   0.002  2.1279 -0.1569 -0.3413
16128TIP3    H269876   3.717   3.026   0.134  1.1591 -0.6937 -0.6993
16129TIP3   OH269877   4.243   4.902  16.077 -0.0098 -0.1259  0.4498
16129TIP3    H169878   4.336   4.888  16.090 -0.2756 -0.9832  1.5172
16129TIP3    H269879   4.217   4.834  16.014  0.3864  1.1963 -1.2351
16130TIP3   OH269880   3.311   3.106   4.590  0.7087 -0.3559 -0.1352
16130TIP3    H169881   3.328   3.038   4.525 -0.9996  0.7098 -1.7978
16130TIP3    H269882   3.216   3.114   4.591  0.8140  1.0872  1.0141
16131TIP3   OH269883   3.761   3.338   5.584 -0.3639  1.1503  0.1309
16131TIP3    H169884   3.800   3.346   5.670  0.2095 -1.4178  0.1833
16131TIP3    H269885   3.698   3.266   5.592  0.9289 -0.3276 -1.9575
16132TIP3   OH269886   2.180   5.564  15.186 -0.3464 -0.7558 -0.2351
16132TIP3    H169887   2.166   5.592  15.096  0.4029 -0.2341 -0.1967
16132TIP3    H269888   2.247   5.496  15.180  1.0545  0.5311  0.0708
16133TIP3   OH269889   3.789   4.796  13.831  0.4205 -0.3054  0.1305
16133TIP3    H169890   3.742   4.874  13.861 -0.3855 -1.3672  1.7433
16133TIP3    H269891   3.858   4.783  13.896  1.1583 -0.4028 -0.6608
16134TIP3   OH269892   3.188   3.235  13.273  0.5410 -0.6015  0.2511
16134TIP3    H169893   3.263   3.237  13.332 -0.7797  1.8613  2.0189
16134TIP3    H269894   3.191   3.319  13.228 -0.9670 -0.5878  0.1241
16135TIP3   OH269895   1.595   4.936   3.176 -0.4624  0.3978 -0.3379
16135TIP3    H169896   1.660   4.961   3.110 -0.9449 -0.3282 -1.1115
16135TIP3    H269897   1.637   4.865   3.225  0.4879  1.9082  1.1643
16136TIP3   OH269898   1.617   4.663   2.602  0.3486  0.2175 -0.3291
16136TIP3    H169899   1.684   4.662   2.534 -0.1835 -0.1766 -0.8510
16136TIP3    H269900   1.615   4.572   2.634  0.3518  0.3237 -0.0170
16137TIP3   OH269901   4.008   2.967  14.326 -0.5214  0.6116  0.0659
16137TIP3    H169902   3.921   2.928  14.320  0.4184 -1.4734 -0.6591
16137TIP3    H269903   4.024   3.002  14.239  0.1688 -0.8701 -0.4280
16138TIP3   OH269904   0.566   6.291  10.793  0.7855 -0.5044  0.2743
16138TIP3    H169905   0.514   6.333  10.724 -2.7743 -1.4418  2.0940
16138TIP3    H269906   0.583   6.203  10.761  1.8879  0.0116 -0.6062
16139TIP3   OH269907   2.899   5.787  17.135 -0.2791  0.1429 -0.1121
16139TIP3    H169908   2.895   5.749  17.223  0.2333 -0.8277 -0.4957
16139TIP3    H269909   2.809   5.808  17.113 -0.6005 -1.0229  0.0496
16140TIP3   OH269910   4.848   1.380   6.029  0.5880  0.4431 -0.0147
16140TIP3    H169911   4.855   1.298   6.078 -0.0491  0.5893  0.3372
16140TIP3    H269912   4.754   1.393   6.018  0.7030  0.1384 -1.7602
16141TIP3   OH269913   3.187   3.484  14.145  0.4142  0.5416  0.1444
16141TIP3    H169914   3.246   3.548  14.105 -0.4139  1.8743  0.9931
16141TIP3    H269915   3.111   3.535  14.172  0.7734 -0.3235  3.1101
16142TIP3   OH269916   6.806   0.025  10.733 -0.4457 -0.1525  0.5472
16142TIP3    H169917   6.841  -0.052  10.688  0.0160  0.0276  0.5891
16142TIP3    H269918   6.779  -0.006  10.819 -2.9618 -0.8792 -0.4278
16143TIP3   OH269919   6.467   6.273   3.386  0.1441  0.4617  0.4034
16143TIP3    H169920   6.425   6.280   3.472 -1.2908  2.9774 -0.3773
16143TIP3    H269921   6.544   6.219   3.401 -1.2365 -1.0147  2.7932
16144TIP3   OH269922   2.146   5.674  14.465  1.0265 -0.3233 -0.0797
16144TIP3    H169923   2.204   5.668  14.388  2.9679  4.1684  0.6878
16144TIP3    H269924   2.108   5.762  14.459 -2.2719 -1.4274  1.9368
16145TIP3   OH269925   3.618   5.291   1.431  0.4889 -0.1822  0.0606
16145TIP3    H169926   3.573   5.323   1.353 -0.0848 -1.3886 -0.1269
16145TIP3    H269927   3.560   5.316   1.503  0.7468  0.4364  0.0659
16146TIP3   OH269928   1.008   1.826  15.334  0.3317 -0.2598  0.1486
16146TIP3    H169929   0.944   1.897  15.332  1.0384  0.3954  0.5753
16146TIP3    H269930   1.089   1.865  15.301  0.6503 -0.9457  0.1019
16147TIP3   OH269931   3.778   3.163   0.565  0.5809  0.4259  0.1417
16147TIP3    H169932   3.744   3.237   0.616  0.4264 -0.4447  1.3561
16147TIP3    H269933   3.799   3.097   0.631  2.4359  0.0565 -0.7604
16148TIP3   OH269934   3.890   1.947  11.390  0.3244 -0.2238  0.2033
16148TIP3    H169935   3.812   1.924  11.339  0.4643 -0.2686  0.0062
16148TIP3    H269936   3.857   1.997  11.464  0.0589 -0.7283  0.4209
16149TIP3   OH269937   4.115   0.345  15.817  0.2239  0.3631 -0.3155
16149TIP3    H169938   4.058   0.400  15.764  2.1103  0.5047 -2.3248
16149TIP3    H269939   4.185   0.318  15.758  2.3015  0.2641  2.0072
16150TIP3   OH269940   1.124   6.649  12.274 -0.6260  0.2362  0.1040
16150TIP3    H169941   1.149   6.647  12.366  0.3853  0.7780 -0.1358
16150TIP3    H269942   1.044   6.597  12.269  0.6152 -1.8601  0.9075
16151TIP3   OH269943   3.048   5.842   4.713  0.3231  0.4302 -0.2838
16151TIP3    H169944   3.032   5.924   4.759  1.3770  0.3909  0.1749
16151TIP3    H269945   3.052   5.867   4.621 -0.7493  0.6721 -0.2744
16152TIP3   OH269946   6.836   2.861  11.849  0.1173  0.0613 -0.1910
16152TIP3    H169947   6.912   2.804  11.839  1.7507  2.1286 -0.1746
16152TIP3    H269948   6.830   2.907  11.765 -2.0519 -1.0623 -0.7282
16153TIP3   OH269949   0.799   5.541  12.173  0.1848  0.3967 -0.7180
16153TIP3    H169950   0.824   5.563  12.083  2.3184  1.2546  0.0399
16153TIP3    H269951   0.881   5.535  12.221 -0.9460  1.7498  1.5883
16154TIP3   OH269952   6.239   3.734  12.647  0.0284 -0.0987  0.4055
16154TIP3    H169953   6.170   3.731  12.581 -0.5165 -0.3161  0.9721
16154TIP3    H269954   6.320   3.743  12.597 -0.2381 -1.7782 -0.3882
16155TIP3   OH269955   0.398   4.445  11.348 -0.1216 -0.0323  0.4475
16155TIP3    H169956   0.423   4.418  11.259  1.2146 -1.7338  1.2963
16155TIP3    H269957   0.416   4.369  11.403  0.1797  1.3614  2.3743
16156TIP3   OH269958   5.248   5.437  15.108  0.2509  0.0821 -0.4411
16156TIP3    H169959   5.226   5.440  15.015  1.7981 -1.2045 -0.8982
16156TIP3    H269960   5.278   5.347  15.123 -1.5130 -0.2310  1.7052
16157TIP3   OH269961   6.751   1.684  11.417 -0.2427  0.2579  0.5374
16157TIP3    H169962   6.810   1.652  11.485  1.0704  0.3470 -0.5039
16157TIP3    H269963   6.807   1.690  11.339 -1.6606  0.2780 -0.5082
16158TIP3   OH269964   2.611   0.806   4.003  0.2334  0.5247  0.3697
16158TIP3    H169965   2.621   0.828   4.096 -1.0363  2.6884  0.0671
16158TIP3    H269966   2.519   0.780   3.995  0.3363  0.3522 -0.3046
16159TIP3   OH269967   1.714   1.243   0.384 -0.1118  0.6509  0.2026
16159TIP3    H169968   1.696   1.334   0.408 -0.2843  0.8384 -0.6057
16159TIP3    H269969   1.633   1.196   0.403 -0.4988  0.9402 -0.7189
16160TIP3   OH269970   0.327   5.586   5.433 -0.5498  0.5639 -0.4308
16160TIP3    H169971   0.344   5.598   5.340  0.1484 -0.4747 -0.4596
16160TIP3    H269972   0.247   5.533   5.437  0.3371 -0.8517 -0.5208
16161TIP3   OH269973   3.517   1.527  16.817 -0.4148  0.0609 -0.1045
16161TIP3    H169974   3.427   1.527  16.784 -0.9126  0.8069  1.1706
16161TIP3    H269975   3.558   1.451  16.775 -1.5066 -0.0446 -1.0312
16162TIP3   OH269976   6.060   1.062   1.876  0.1230  0.2595 -0.6810
16162TIP3    H169977   6.064   0.975   1.838 -1.7418  0.9187 -2.5214
16162TIP3    H269978   6.151   1.094   1.874  0.6469 -1.2037 -0.9487
16163TIP3   OH269979   5.761   6.244  15.922 -0.1101 -0.3169  0.3882
16163TIP3    H169980   5.727   6.280  16.004  0.0950  1.5660 -0.3005
16163TIP3    H269981   5.837   6.193  15.948 -0.8520 -0.9138  1.4918
16164TIP3   OH269982   6.146   0.160   3.206  0.0674  0.1293  0.0902
16164TIP3    H169983   6.077   0.223   3.223  1.4163  1.3073  1.4170
16164TIP3    H269984   6.227   0.205   3.229  1.1029 -1.9960  0.8664
16165TIP3   OH269985   5.230   0.100   4.934  0.1523  0.0575 -0.0817
16165TIP3    H169986   5.180   0.041   4.877 -1.2040  0.5535  0.5480
16165TIP3    H269987   5.286   0.149   4.874 -0.1574 -0.4816 -0.8294
16166TIP3   OH269988   5.650   5.507  16.050 -0.2751 -0.1340  0.1581
16166TIP3    H169989   5.598   5.548  16.119 -2.8974 -1.0580 -1.1631
16166TIP3    H269990   5.586   5.475  15.987  1.9240 -1.4092 -1.5668
16167TIP3   OH269991   4.690   2.001  12.400 -0.0909  0.3936 -1.0361
16167TIP3    H169992   4.670   1.908  12.390  2.5470 -0.1759 -1.7748
16167TIP3    H269993   4.786   2.005  12.402 -0.1055  3.1800 -1.8420
16168TIP3   OH269994   3.251   2.065  13.844  0.2589 -0.3753  0.1686
16168TIP3    H169995   3.213   2.046  13.758  3.9251 -0.4212 -1.6348
16168TIP3    H269996   3.233   2.158  13.858  1.0569  0.0716 -1.5187
16169TIP3   OH269997   4.269   6.708  14.278  0.8455  0.1863  0.3640
16169TIP3    H169998   4.363   6.700  14.294  0.6204 -0.8479  1.3065
16169TIP3    H269999   4.261   6.785  14.221  2.2936  0.0055 -0.1448
16170TIP3   OH270000   2.828   0.675  11.620  0.0554  0.5614 -0.0067
16170TIP3    H170001   2.739   0.708  11.608  0.2163  1.0155  0.0492
16170TIP3    H270002   2.821   0.581  11.601 -0.3713  0.6496 -0.2966
16171TIP3   OH270003   1.120   3.843   2.097 -1.2893  0.5265  0.5968
16171TIP3    H170004   1.033   3.827   2.060 -0.4295 -1.5785 -0.6953
16171TIP3    H270005   1.111   3.822   2.190 -2.2713  0.8288  0.5814
16172TIP3   OH270006   0.958   2.149  11.745 -0.4348  0.0205 -0.4252
16172TIP3    H170007   1.028   2.210  11.769 -0.3212  0.1237 -1.0033
16172TIP3    H270008   1.004   2.071  11.713 -0.5766  0.1637 -0.9956
16173TIP3   OH270009   5.737   0.360  12.735  0.1856 -0.0643  0.0174
16173TIP3    H170010   5.706   0.338  12.823  2.1691  2.3187  1.4452
16173TIP3    H270011   5.812   0.302  12.721  0.9168  0.6958  0.6721
16174TIP3   OH270012   2.806   6.127  17.063  0.0578 -0.0356 -0.1053
16174TIP3    H170013   2.838   6.102  17.150  1.7196 -0.8172 -0.8937
16174TIP3    H270014   2.856   6.072  17.002  1.1872  2.5775 -1.7158
16175TIP3   OH270015   5.103   6.593   5.409  0.1092 -0.5569 -0.2095
16175TIP3    H170016   5.019   6.562   5.374  0.1357 -0.1533 -0.6390
16175TIP3    H270017   5.134   6.656   5.344  0.1389  0.2356  0.5592
16176TIP3   OH270018   4.942   5.735   3.951  0.0763 -0.2334  0.3820
16176TIP3    H170019   4.934   5.677   4.027  0.3377  0.0999  0.6746
16176TIP3    H270020   4.853   5.743   3.917 -0.1431  0.0793  1.0107
16177TIP3   OH270021   5.101   4.267   0.703  0.4811 -0.0709 -0.7508
16177TIP3    H170022   5.006   4.259   0.695  0.2833  0.1651  1.0207
16177TIP3    H270023   5.114   4.331   0.772  1.9064 -1.4063  0.2845
16178TIP3   OH270024   6.563   5.972   3.227 -0.2637 -0.5593  0.7453
16178TIP3    H170025   6.638   5.918   3.254 -0.0178 -0.1428  0.9077
16178TIP3    H270026   6.564   6.047   3.287  1.1821  1.1609 -1.2689
16179TIP3   OH270027   1.453   6.426  11.125  0.5737 -0.1389 -0.9128
16179TIP3    H170028   1.432   6.434  11.032 -0.6688  0.6233 -0.5863
16179TIP3    H270029   1.513   6.351  11.130  0.1055 -0.6222 -2.2378
16180TIP3   OH270030   4.002   1.497   5.784 -0.0425 -0.6251 -0.1155
16180TIP3    H170031   3.915   1.467   5.758 -0.0257  0.1643 -1.1312
16180TIP3    H270032   3.992   1.523   5.875 -0.9236 -0.3661 -0.2760
16181TIP3   OH270033   3.235   0.443  12.907 -0.5958 -0.3180  0.0588
16181TIP3    H170034   3.284   0.518  12.940  0.7584 -1.7112  1.3329
16181TIP3    H270035   3.144   0.474  12.903  0.1256  1.8211 -0.8615
16182TIP3   OH270036   3.685   6.516   4.708  0.2550 -0.1168 -0.2384
16182TIP3    H170037   3.684   6.456   4.633 -0.1440  0.0905 -0.3996
16182TIP3    H270038   3.655   6.462   4.781  0.3657 -0.2430 -0.2842
16183TIP3   OH270039   6.791   5.678   5.333  0.1238  0.0047  0.1277
16183TIP3    H170040   6.714   5.681   5.276 -0.7209 -0.1806  1.2187
16183TIP3    H270041   6.767   5.616   5.402  0.9264  0.5783  0.9487
16184TIP3   OH270042   4.087   0.148  14.806  0.3607 -1.0445 -0.3532
16184TIP3    H170043   4.013   0.159  14.746 -0.3278 -2.0570  0.2725
16184TIP3    H270044   4.147   0.089  14.761  1.1374  0.2870 -1.1386
16185TIP3   OH270045   0.503   6.751   5.307 -0.3589  0.4211  0.5966
16185TIP3    H170046   0.505   6.739   5.402  0.9048  0.0197  0.5376
16185TIP3    H270047   0.552   6.832   5.293  1.6680 -0.8054  0.1479
16186TIP3   OH270048   2.902   6.373   5.104  0.1727 -0.3294 -0.0024
16186TIP3    H170049   2.879   6.458   5.069  1.2301  0.6532  1.5707
16186TIP3    H270050   2.995   6.362   5.082  0.4390 -0.3844  1.0667
16187TIP3   OH270051   0.112   6.744   3.171 -0.1263 -0.3117  0.0257
16187TIP3    H170052   0.173   6.782   3.108 -0.9419 -0.5608 -0.9398
16187TIP3    H270053   0.056   6.817   3.196 -1.2214 -0.6751 -1.2651
16188TIP3   OH270054   1.620   2.280  13.455  0.1794 -0.1664 -0.2467
16188TIP3    H170055   1.562   2.241  13.389 -2.3112 -0.6729  2.0352
16188TIP3    H270056   1.635   2.369  13.424 -0.3389 -0.5940 -1.8220
16189TIP3   OH270057   3.319   3.624  14.786  0.2020  0.5713  0.1202
16189TIP3    H170058   3.356   3.640  14.873 -0.8283 -3.9593  1.7059
16189TIP3    H270059   3.393   3.592  14.734  0.1290 -0.6537  0.7218
16190TIP3   OH270060   2.199   1.815  11.216  0.6480 -0.4225 -0.4697
16190TIP3    H170061   2.286   1.781  11.197 -0.2559 -2.5125 -1.1083
16190TIP3    H270062   2.153   1.813  11.132 -0.1741  0.1820 -0.0517
16191TIP3   OH270063   0.948   2.080  15.554  0.1048 -0.3282 -0.0340
16191TIP3    H170064   0.974   2.171  15.543  3.0120 -1.1789 -1.0478
16191TIP3    H270065   0.900   2.060  15.473  0.7997 -0.1129 -0.5059
16192TIP3   OH270066   4.031   3.839   4.931 -0.6513 -0.3337  0.0797
16192TIP3    H170067   4.060   3.928   4.950 -0.1882 -0.2971 -0.7523
16192TIP3    H270068   4.067   3.786   5.002 -1.0245  0.1547  0.6405
16193TIP3   OH270069   3.321   1.419   0.024  0.1815  0.5131  0.1377
16193TIP3    H170070   3.288   1.443  -0.062  0.5409  0.0766 -0.1225
16193TIP3    H270071   3.386   1.486   0.045  1.3159 -0.3012 -0.6658
16194TIP3   OH270072   5.868   6.199  16.921 -0.1083 -0.0395 -0.2659
16194TIP3    H170073   5.810   6.261  16.965  2.3378  0.9508  1.7563
16194TIP3    H270074   5.842   6.114  16.956  0.3052  0.4963  1.4385
16195TIP3   OH270075   0.419   5.869  17.042  0.0760  0.1598  0.0113
16195TIP3    H170076   0.411   5.907  17.130  0.6247 -0.3206  0.2747
16195TIP3    H270077   0.334   5.888  17.001 -0.1455  0.4936  0.6003
16196TIP3   OH270078   0.398   2.081   2.047 -0.4744  0.5075 -0.9496
16196TIP3    H170079   0.390   2.011   1.982 -0.8803 -1.2064  0.8535
16196TIP3    H270080   0.470   2.054   2.103 -1.4372  0.8636  0.5283
16197TIP3   OH270081   2.319   1.505   3.236 -0.5770  0.5911  0.3985
16197TIP3    H170082   2.359   1.418   3.233  0.3730  1.0299 -0.5119
16197TIP3    H270083   2.372   1.557   3.175 -1.7709  1.5383  0.1380
16198TIP3   OH270084   1.262   4.641   1.211 -0.3113  0.1013  0.2388
16198TIP3    H170085   1.353   4.661   1.230 -0.8172  0.1539  2.9598
16198TIP3    H270086   1.248   4.554   1.249 -1.8903  0.9857  1.8329
16199TIP3   OH270087   5.547   3.982  16.133  0.0235  0.5647 -0.6068
16199TIP3    H170088   5.583   4.035  16.063  0.0324 -0.1463 -1.1457
16199TIP3    H270089   5.605   3.999  16.208 -0.7279  2.3204 -0.3608
16200TIP3   OH270090   1.937   4.729  13.307  0.0707 -0.8486  0.1497
16200TIP3    H170091   1.878   4.791  13.350  2.0740  1.0724  0.2583
16200TIP3    H270092   1.968   4.774  13.229 -0.1207 -2.6140 -1.0047
16201TIP3   OH270093   2.732   4.315   4.878 -0.9143 -0.3190  0.1376
16201TIP3    H170094   2.765   4.229   4.852 -0.2658  0.1374 -0.5783
16201TIP3    H270095   2.677   4.343   4.804 -1.1301 -0.1200  0.3706
16202TIP3   OH270096   5.480   3.965  11.101 -0.1880 -0.1207 -0.1092
16202TIP3    H170097   5.503   3.947  11.009  1.3379 -0.0067  0.2118
16202TIP3    H270098   5.402   3.913  11.117 -0.2453 -0.4610 -1.3620
16203TIP3   OH270099   1.474   6.407   1.746  0.6415  0.1848 -0.2870
16203TIP3    H170100   1.419   6.428   1.671 -0.1826 -1.4437 -0.1859
16203TIP3    H270101   1.537   6.343   1.713  0.7369 -0.0023  0.2367
16204TIP3   OH270102   4.975   4.047  11.687 -0.8262 -0.3383 -0.5490
16204TIP3    H170103   4.964   4.003  11.771 -2.5997 -1.1762 -1.1694
16204TIP3    H270104   4.900   4.105  11.680 -0.8030 -0.4146 -1.6349
16205TIP3   OH270105   0.987   2.359  13.187  0.7311 -0.1434  0.1436
16205TIP3    H170106   0.926   2.431  13.204  1.5433  0.5330  0.3270
16205TIP3    H270107   1.005   2.322  13.274  0.9940  0.0149  0.1582
16206TIP3   OH270108   4.687   4.566   1.631  0.2825  0.2408 -0.2525
16206TIP3    H170109   4.761   4.546   1.573  0.7490 -1.0560  0.7585
16206TIP3    H270110   4.726   4.574   1.718 -0.4611  1.8184 -0.0187
16207TIP3   OH270111   2.330   4.399   4.038 -0.2568 -0.5299 -0.1477
16207TIP3    H170112   2.353   4.469   3.976  0.7362  0.1750  0.9688
16207TIP3    H270113   2.330   4.319   3.985  1.8666 -0.1415 -0.8461
16208TIP3   OH270114   0.198   4.643  15.481 -0.2734  0.0436 -0.1884
16208TIP3    H170115   0.221   4.551  15.470  0.8520  0.4265 -1.2029
16208TIP3    H270116   0.216   4.661  15.574  0.6016 -0.4729 -0.2477
16209TIP3   OH270117   0.246   1.959   2.902  0.4579  0.4782  0.1290
16209TIP3    H170118   0.295   2.009   2.968  1.2642 -0.8336  0.5739
16209TIP3    H270119   0.311   1.937   2.835  0.0489  0.2852 -0.2092
16210TIP3   OH270120   4.110   5.112  15.949 -0.0064 -0.1105 -0.5514
16210TIP3    H170121   4.165   5.064  16.010  0.2355 -0.5947 -1.1417
16210TIP3    H270122   4.021   5.084  15.968 -0.0520  0.5954  0.3369
16211TIP3   OH270123   6.130   2.874   1.630  0.2492 -0.0513  0.1050
16211TIP3    H170124   6.113   2.838   1.717  0.5604  0.4434  0.3761
16211TIP3    H270125   6.221   2.850   1.613  0.4504  0.5795  0.2776
16212TIP3   OH270126   0.900   2.416   5.333  0.1641 -0.5199  0.2078
16212TIP3    H170127   0.816   2.404   5.378 -0.2666 -0.9053 -0.6702
16212TIP3    H270128   0.960   2.358   5.379 -0.0809 -0.3415  0.7616
16213TIP3   OH270129   5.067   4.239   0.366 -0.3612 -0.3651 -0.2223
16213TIP3    H170130   5.047   4.303   0.298 -3.5719 -2.0120 -1.0375
16213TIP3    H270131   5.045   4.285   0.448 -2.1204 -0.1485 -0.7547
16214TIP3   OH270132   4.917   5.412  16.598  0.0666  0.1715  0.2693
16214TIP3    H170133   4.827   5.387  16.580 -0.1042  1.8012 -1.4618
16214TIP3    H270134   4.971   5.348  16.552 -0.2610  0.2445 -0.2202
16215TIP3   OH270135   6.442   4.495  16.881 -0.1971 -0.3154  0.5108
16215TIP3    H170136   6.500   4.482  16.807  0.3778  0.2550  0.8506
16215TIP3    H270137   6.362   4.448  16.858  0.3497 -0.9971 -0.0164
16216TIP3   OH270138   2.544   2.120  13.536  0.2152  0.3016 -0.1131
16216TIP3    H170139   2.543   2.181  13.462  0.4686  1.3560  0.7347
16216TIP3    H270140   2.588   2.167  13.606 -2.2711  0.3153  1.5609
16217TIP3   OH270141   2.877   3.052   4.805  0.1427 -0.2501 -0.2789
16217TIP3    H170142   2.868   2.966   4.764 -0.0008 -0.2410 -0.2685
16217TIP3    H270143   2.798   3.100   4.778 -2.3432 -1.6876  3.5129
16218TIP3   OH270144   5.978   0.491  12.085  0.8943  0.7760  0.0064
16218TIP3    H170145   5.911   0.422  12.087  0.9332  0.6927 -1.0266
16218TIP3    H270146   6.060   0.446  12.103  0.6916  0.8716  1.2413
16219TIP3   OH270147   2.482   1.357  10.744 -0.1462  0.5703  0.2386
16219TIP3    H170148   2.509   1.350  10.836 -0.7362  0.9599  0.4470
16219TIP3    H270149   2.418   1.286  10.733  1.2976 -0.6957 -0.3988
16220TIP3   OH270150   5.989   3.126   0.694 -0.1704 -0.3310  0.0258
16220TIP3    H170151   6.065   3.165   0.651 -0.4432  0.0848 -0.0784
16220TIP3    H270152   5.979   3.176   0.775 -0.3097 -0.4092  0.0566
16221TIP3   OH270153   1.257   6.432   3.760 -0.3425  0.1673 -0.2928
16221TIP3    H170154   1.264   6.398   3.670 -0.5808 -1.7877  0.3687
16221TIP3    H270155   1.347   6.433   3.792 -0.1459  1.7515 -0.8205
16222TIP3   OH270156   1.363   6.647  12.073 -0.0530  0.5260  0.5774
16222TIP3    H170157   1.363   6.702  11.995 -0.2414  0.4894  0.5502
16222TIP3    H270158   1.286   6.676  12.122  0.0025  0.4732  0.6958
16223TIP3   OH270159   4.882   2.245  14.289  0.8495  0.7125  0.4922
16223TIP3    H170160   4.908   2.267  14.379  1.6472 -1.9690  1.0112
16223TIP3    H270161   4.797   2.201  14.299  0.6223  0.9970 -0.1444
16224TIP3   OH270162   3.680   4.630   2.132  0.5754 -0.0210 -0.1422
16224TIP3    H170163   3.607   4.690   2.116  0.0460 -0.7674 -0.6696
16224TIP3    H270164   3.637   4.548   2.159  1.0821 -0.9803 -2.0178
16225TIP3   OH270165   6.240   0.458  14.486 -0.3253  0.3274 -0.0616
16225TIP3    H170166   6.165   0.405  14.461  0.0353  0.0497 -0.5804
16225TIP3    H270167   6.216   0.497  14.569 -0.9051 -0.0340 -0.0583
16226TIP3   OH270168   2.903   6.712   5.802  0.9035  0.6499  0.0200
16226TIP3    H170169   2.882   6.655   5.876  0.3423 -0.0881 -0.6958
16226TIP3    H270170   2.969   6.772   5.837  0.3387  0.5965  1.2395
16227TIP3   OH270171   0.372   5.195   0.531 -0.5672 -0.3957 -0.4119
16227TIP3    H170172   0.390   5.233   0.444  0.9081  0.5944  0.2763
16227TIP3    H270173   0.321   5.262   0.576 -0.6985 -0.5928 -0.2658
16228TIP3   OH270174   6.610   2.405   0.765 -0.8176 -0.2940  0.3696
16228TIP3    H170175   6.589   2.406   0.672 -1.0210 -1.9039  0.3709
16228TIP3    H270176   6.563   2.329   0.800  0.7843 -0.8722  1.3989
16229TIP3   OH270177   5.438   1.355   5.159  0.6166  0.4000 -0.1735
16229TIP3    H170178   5.414   1.433   5.208 -0.5836 -1.1001  1.8009
16229TIP3    H270179   5.415   1.282   5.217  0.2103 -1.4768 -2.5200
16230TIP3   OH270180   4.818   6.642   2.308 -0.2183 -0.5750  1.0538
16230TIP3    H170181   4.815   6.669   2.216 -0.7151 -0.7783  1.0072
16230TIP3    H270182   4.906   6.667   2.338 -0.5383  0.8059  0.9276
16231TIP3   OH270183   3.695   0.889   0.775 -0.0287  0.9157  0.4860
16231TIP3    H170184   3.676   0.797   0.754 -0.1544  0.6363  1.7265
16231TIP3    H270185   3.735   0.924   0.695  3.0123 -1.0813  0.9228
16232TIP3   OH270186   6.001   1.817   5.192  0.3647  0.2040 -0.0321
16232TIP3    H170187   5.945   1.818   5.114  0.5180  0.6277 -0.1376
16232TIP3    H270188   5.947   1.775   5.259  0.3880 -0.5633 -0.4797
16233TIP3   OH270189   0.815   2.689  16.516 -0.6311 -0.2665 -0.4824
16233TIP3    H170190   0.781   2.778  16.531 -0.8328 -0.0107 -2.2727
16233TIP3    H270191   0.752   2.632  16.559 -1.9823  0.3329 -1.5971
16234TIP3   OH270192   2.108   1.923   5.553 -0.3019  0.1355  0.8084
16234TIP3    H170193   2.144   2.010   5.534  3.4681 -0.9051  2.2897
16234TIP3    H270194   2.119   1.913   5.648 -2.7062 -1.1683  1.0049
16235TIP3   OH270195   5.834   1.106   3.136 -0.4384 -0.2518  0.0237
16235TIP3    H170196   5.762   1.043   3.130 -0.2730 -0.5106  0.6619
16235TIP3    H270197   5.890   1.086   3.061 -0.9556 -0.1387 -0.3992
16236TIP3   OH270198   0.730   2.938  16.608  0.7037  0.1267 -0.0850
16236TIP3    H170199   0.746   3.010  16.669  0.0779  0.7810 -0.6710
16236TIP3    H270200   0.771   2.966  16.527 -0.9103  0.5757 -0.7884
16237TIP3   OH270201   3.439   1.628  12.388 -0.0963  0.2650 -0.4507
16237TIP3    H170202   3.447   1.704  12.445 -2.7348 -0.3269  0.8622
16237TIP3    H270203   3.395   1.662  12.310 -1.1091  0.1626  0.0593
16238TIP3   OH270204   6.361   2.421  15.030  0.2317 -0.1548 -0.2053
16238TIP3    H170205   6.392   2.508  15.055  1.2217 -1.0000  1.7585
16238TIP3    H270206   6.406   2.361  15.090 -0.7415 -1.9995 -1.2105
16239TIP3   OH270207   3.550   5.250   0.397 -0.3534  0.0130 -0.0225
16239TIP3    H170208   3.493   5.302   0.340 -3.1709 -0.2731  2.2851
16239TIP3    H270209   3.545   5.161   0.361  2.4355  0.6711 -2.4606
16240TIP3   OH270210   4.240   5.240  13.924 -0.1445 -0.1203  0.0284
16240TIP3    H170211   4.173   5.272  13.864  1.5797  1.3197 -1.2299
16240TIP3    H270212   4.261   5.315  13.980 -0.1215 -0.7933  0.9611
16241TIP3   OH270213   5.758   3.922  14.294  0.2112  0.4490  0.4314
16241TIP3    H170214   5.837   3.869  14.288 -0.8080 -1.0781 -0.3008
16241TIP3    H270215   5.694   3.864  14.336 -0.8534  1.2105 -0.0937
16242TIP3   OH270216   1.242   2.758  12.465 -0.1754 -0.4831 -0.2951
16242TIP3    H170217   1.151   2.783  12.479 -0.1379  0.3120 -1.3237
16242TIP3    H270218   1.238   2.696  12.391  0.1465 -0.1202 -0.6197
16243TIP3   OH270219   5.845   6.639  11.747 -0.5353  0.2004  0.1443
16243TIP3    H170220   5.774   6.576  11.732  0.4660 -0.4939 -2.2284
16243TIP3    H270221   5.813   6.721  11.711 -0.6392  0.2570  0.3596
16244TIP3   OH270222   0.139   3.463   0.994  0.4352  0.5625 -0.3841
16244TIP3    H170223   0.099   3.454   0.908 -0.1175  0.4676 -0.1199
16244TIP3    H270224   0.131   3.376   1.033 -0.1868  0.8410  0.1346
16245TIP3   OH270225   4.019   3.483   2.869  0.1818 -0.2807  0.2875
16245TIP3    H170226   3.942   3.539   2.862 -0.6817 -1.4818 -0.1007
16245TIP3    H270227   4.028   3.444   2.782  1.9351  0.7145 -0.0303
16246TIP3   OH270228   5.372   0.725   0.918 -0.4675 -0.3054 -0.5364
16246TIP3    H170229   5.332   0.810   0.902  0.2895  0.0658 -0.4730
16246TIP3    H270230   5.343   0.670   0.845  0.0696  0.3680 -1.2650
16247TIP3   OH270231   3.662   5.838   2.771 -0.3285 -0.1266 -0.1772
16247TIP3    H170232   3.757   5.830   2.761 -0.4801 -1.4060 -0.8247
16247TIP3    H270233   3.629   5.843   2.682 -0.9163 -0.3221  0.0250
16248TIP3   OH270234   5.308   5.212  16.933  0.1759 -0.3811  0.0270
16248TIP3    H170235   5.341   5.292  16.972  0.3893  0.6622 -2.1395
16248TIP3    H270236   5.214   5.227  16.923  0.5563  0.7307 -2.6654
16249TIP3   OH270237   2.215   3.584  11.815  0.1747  0.6359 -0.2044
16249TIP3    H170238   2.285   3.640  11.781  1.7584 -1.5416 -0.7820
16249TIP3    H270239   2.142   3.597  11.754  1.3375  0.3607 -1.7458
16250TIP3   OH270240   5.177   4.948  13.387 -0.2313 -0.0113  1.1341
16250TIP3    H170241   5.201   5.002  13.462  1.8131 -0.1372  0.6217
16250TIP3    H270242   5.196   4.858  13.415 -2.4124 -0.4027  1.5306
16251TIP3   OH270243   3.396   5.063   1.523 -0.4851 -0.6962 -0.2437
16251TIP3    H170244   3.426   5.131   1.584 -1.1812  1.4482 -2.1254
16251TIP3    H270245   3.338   5.008   1.575  1.7668 -1.1946  1.8964
16252TIP3   OH270246   6.311   1.005   0.101 -0.5796  0.2275 -0.3110
16252TIP3    H170247   6.273   1.093   0.098 -1.2712 -0.0782 -3.0403
16252TIP3    H270248   6.240   0.950   0.134 -0.6453  0.4610 -0.0523
16253TIP3   OH270249   0.655   4.475   5.264 -0.2364 -0.3411 -0.0003
16253TIP3    H170250   0.666   4.525   5.183  2.2081 -0.0344  0.4322
16253TIP3    H270251   0.590   4.408   5.243 -0.2039  0.1931 -1.9930
16254TIP3   OH270252   5.375   6.027  11.204 -0.8231  0.1525  0.1719
16254TIP3    H170253   5.412   6.090  11.266  0.9252  0.9997 -1.6190
16254TIP3    H270254   5.354   5.950  11.257 -1.0293  1.4554  2.0713
16255TIP3   OH270255   4.914   2.958   5.527  0.5198 -0.1622  0.0519
16255TIP3    H170256   4.896   3.007   5.607 -1.3097 -0.5923 -0.0448
16255TIP3    H270257   4.837   2.902   5.516  1.3454 -1.0836 -1.2889
16256TIP3   OH270258   3.716   3.654   3.427 -0.0945  0.0699 -0.0100
16256TIP3    H170259   3.742   3.701   3.506  0.7920  2.9258 -1.8505
16256TIP3    H270260   3.798   3.623   3.388 -0.3853 -0.0851 -0.5190
16257TIP3   OH270261   0.197   0.456  17.101  0.1651  0.3270 -0.7031
16257TIP3    H170262   0.286   0.445  17.135  0.0643 -0.2133 -0.6105
16257TIP3    H270263   0.208   0.459  17.006  0.4171  1.5680 -0.6480
16258TIP3   OH270264   3.085   4.586   4.510  0.0895  0.5230 -0.3402
16258TIP3    H170265   3.011   4.540   4.471  0.4919  1.5025 -2.3997
16258TIP3    H270266   3.149   4.517   4.528 -1.0449 -0.2535  0.8779
16259TIP3   OH270267   2.306   2.100   5.748  0.5823 -0.7393 -0.4380
16259TIP3    H170268   2.359   2.102   5.828 -0.3218  0.2768  0.1692
16259TIP3    H270269   2.248   2.025   5.759  0.0311 -0.2346  0.1593
16260TIP3   OH270270   0.047   4.310   0.741  0.1976  0.3997  0.2103
16260TIP3    H170271   0.096   4.371   0.796 -0.2535  1.9678 -1.0730
16260TIP3    H270272   0.112   4.275   0.680  0.1419  0.9039 -0.1461
16261TIP3   OH270273   6.074   2.561  17.128 -0.6234 -0.6463 -0.6600
16261TIP3    H170274   6.048   2.550  17.219  1.0654  1.2563  0.1501
16261TIP3    H270275   6.026   2.639  17.098 -0.4418 -0.6919 -1.0857
16262TIP3   OH270276   3.446   5.069   3.801 -0.0446 -0.5534  0.2242
16262TIP3    H170277   3.426   5.136   3.866 -1.9123 -0.8058 -0.0490
16262TIP3    H270278   3.532   5.095   3.766 -0.1933  1.0283  0.9451
16263TIP3   OH270279   5.809   4.945   1.376 -0.3984 -0.4315  0.0260
16263TIP3    H170280   5.865   4.871   1.353  1.5870  1.0486 -0.1120
16263TIP3    H270281   5.824   4.959   1.470 -1.6167 -0.8514  0.3081
16264TIP3   OH270282   6.065   2.614  14.981  0.2795 -0.0537  0.1215
16264TIP3    H170283   6.088   2.532  15.025 -1.7276 -0.4525  0.5488
16264TIP3    H270284   6.130   2.677  15.012  2.0533 -1.5203 -0.4495
16265TIP3   OH270285   4.829   2.417   5.607  0.2513  0.9496 -0.9829
16265TIP3    H170286   4.751   2.429   5.661  0.4512 -1.0039 -0.1516
16265TIP3    H270287   4.799   2.362   5.534  0.6261  1.0201 -1.1930
16266TIP3   OH270288   1.487   2.308   5.738 -0.0001  0.0209  0.0301
16266TIP3    H170289   1.394   2.305   5.761  0.1798 -0.6271  0.7021
16266TIP3    H270290   1.491   2.364   5.661 -0.9535  0.0220 -0.0238
16267TIP3   OH270291   1.575   3.966   5.881  0.2013  0.0781 -0.0583
16267TIP3    H170292   1.646   4.030   5.883  0.7362 -0.4651 -1.0313
16267TIP3    H270293   1.562   3.942   5.973  1.0424  0.4364  0.1639
16268TIP3   OH270294   6.228   0.966  16.047 -0.4615  0.3316 -0.3053
16268TIP3    H170295   6.135   0.985  16.061 -0.3665  0.3681  0.3143
16268TIP3    H270296   6.261   1.043  16.001 -0.8008  0.1827 -0.8067
16269TIP3   OH270297   2.101   1.642  12.044  0.1912  0.2446 -0.7031
16269TIP3    H170298   2.072   1.696  11.971  0.3174 -0.4356 -1.2720
16269TIP3    H270299   2.022   1.594  12.071 -0.3463  1.9039  0.9087
16270TIP3   OH270300   0.858   3.567   4.405  0.1537  0.4144  0.1275
16270TIP3    H170301   0.842   3.503   4.475  1.4318  1.9656  1.9460
16270TIP3    H270302   0.951   3.558   4.385 -0.0605  0.4638 -0.9098
16271TIP3   OH270303   2.053   5.851  16.061 -0.1775  0.3388  0.4453
16271TIP3    H170304   2.133   5.848  16.113 -0.2217 -1.1254  0.4726
16271TIP3    H270305   1.982   5.841  16.125 -0.3203  0.4354  0.3044
16272TIP3   OH270306   3.810   4.065  15.462  0.0946 -0.1606  0.7939
16272TIP3    H170307   3.898   4.069  15.424 -0.2044  0.8145  0.1621
16272TIP3    H270308   3.808   4.137  15.525 -0.8139  1.0280 -0.5105
16273TIP3   OH270309   6.496   3.414  16.412 -0.1548  0.4405  0.6875
16273TIP3    H170310   6.438   3.345  16.445  1.2383 -1.2365 -0.2228
16273TIP3    H270311   6.461   3.437  16.326 -0.0224  0.1020  0.5415
16274TIP3   OH270312   3.302   2.437   5.463  0.5271 -0.0489  0.5906
16274TIP3    H170313   3.384   2.388   5.450  0.4447 -0.3088  1.0235
16274TIP3    H270314   3.330   2.519   5.504  0.6906  0.3784 -0.3535
16275TIP3   OH270315   4.711   6.232   4.784  0.4505 -0.0908 -0.1555
16275TIP3    H170316   4.740   6.148   4.820  0.6062 -0.7238 -1.6609
16275TIP3    H270317   4.635   6.209   4.730 -0.3176  0.9446  0.4596
16276TIP3   OH270318   0.833   1.379   2.164 -0.2141 -0.3315 -0.8353
16276TIP3    H170319   0.740   1.396   2.145 -0.3056 -1.0442 -1.0547
16276TIP3    H270320   0.838   1.284   2.174 -0.4813 -0.1192  4.1701
16277TIP3   OH270321   6.453   2.302  12.319  0.1352  0.8285 -0.0631
16277TIP3    H170322   6.426   2.329  12.232  0.7249 -0.7977 -0.7825
16277TIP3    H270323   6.377   2.320  12.375 -0.3318  1.6491 -0.9474
16278TIP3   OH270324   5.550   1.770   1.674  0.1162 -0.2892 -0.0035
16278TIP3    H170325   5.571   1.785   1.582 -3.6170  0.8592 -0.8653
16278TIP3    H270326   5.631   1.789   1.722  1.7434  0.6308 -2.9077
16279TIP3   OH270327   1.025   4.945   2.364 -0.6200 -0.6151 -0.1238
16279TIP3    H170328   1.023   5.018   2.425 -1.6854 -0.1571 -0.6794
16279TIP3    H270329   1.092   4.968   2.301 -2.2374  0.8331 -1.3978
16280TIP3   OH270330   4.591   0.500   0.547 -0.7620 -1.1008 -0.0606
16280TIP3    H170331   4.523   0.567   0.555 -1.6029 -1.9376 -0.0408
16280TIP3    H270332   4.575   0.441   0.621  0.8725 -0.5488  0.7744
16281TIP3   OH270333   5.831   6.500   5.023 -0.3657  0.3803 -0.0293
16281TIP3    H170334   5.815   6.492   4.929  0.3141 -0.6018 -0.0696
16281TIP3    H270335   5.924   6.479   5.033 -0.4298  0.4995  0.8634
16282TIP3   OH270336   2.594   3.087  12.533  0.1457 -0.2415 -0.0696
16282TIP3    H170337   2.569   3.124  12.448 -0.4888 -0.2184  0.1236
16282TIP3    H270338   2.512   3.080  12.581  0.5332 -0.0137  0.6405
16283TIP3   OH270339   1.297   1.282   1.255 -0.1068  0.2770  0.1442
16283TIP3    H170340   1.310   1.291   1.161  3.7849 -0.8189  0.4315
16283TIP3    H270341   1.266   1.368   1.284  0.9690  1.3890 -1.8177
16284TIP3   OH270342   0.511   2.728   7.123  0.2271 -0.2392  0.3471
16284TIP3    H170343   0.465   2.661   7.174 -0.5274 -0.5948 -0.7469
16284TIP3    H270344   0.451   2.803   7.122  0.8656  0.2903  1.1754
16285TIP3   OH270345   2.527   4.705  14.644 -0.1559  0.4295  0.2977
16285TIP3    H170346   2.621   4.723  14.644 -0.0427 -0.0128  1.9857
16285TIP3    H270347   2.505   4.692  14.551  1.2993  1.2228 -0.1874
16286TIP3   OH270348   4.519   1.229  17.018  0.0378  0.5132 -0.4198
16286TIP3    H170349   4.484   1.308  16.977 -2.0083 -0.1549 -0.0967
16286TIP3    H270350   4.566   1.260  17.095 -0.0697  1.4656 -0.7292
16287TIP3   OH270351   0.194   2.958   3.031 -0.7343  0.8987  0.1110
16287TIP3    H170352   0.278   2.997   3.057  1.1646 -1.9454 -1.1694
16287TIP3    H270353   0.177   2.994   2.944  1.7872 -1.8597 -1.7364
16288TIP3   OH270354   0.887   3.403   4.690  0.0658 -0.5695  0.1147
16288TIP3    H170355   0.906   3.323   4.740  0.4411 -0.4520  0.1543
16288TIP3    H270356   0.900   3.474   4.752 -2.4824 -0.5584  0.7862
16289TIP3   OH270357   1.863   6.803   0.838  0.7315 -0.1321 -0.1878
16289TIP3    H170358   1.850   6.858   0.915  0.5059  0.9414 -0.9780
16289TIP3    H270359   1.958   6.802   0.825  0.7202  0.2898 -0.3184
16290TIP3   OH270360   5.686   0.802  15.147  0.0482  0.3613  0.1675
16290TIP3    H170361   5.648   0.728  15.194 -1.0751  1.1460  0.5117
16290TIP3    H270362   5.779   0.799  15.170 -0.1838 -0.2777  1.0573
16291TIP3   OH270363   1.481   1.644   6.264 -0.1470 -0.4992 -0.0733
16291TIP3    H170364   1.468   1.559   6.222  1.0815 -0.8832  0.2719
16291TIP3    H270365   1.475   1.625   6.358 -1.2280  0.0500 -0.0258
16292TIP3   OH270366   2.561   1.079  11.837 -0.1092 -0.6145 -0.8486
16292TIP3    H170367   2.487   1.066  11.897 -0.7551  1.1091 -1.2134
16292TIP3    H270368   2.636   1.094  11.893 -0.4642 -0.2424 -0.4709
16293TIP3   OH270369   1.614   1.188   0.125 -0.0833  0.4732  0.2661
16293TIP3    H170370   1.675   1.129   0.082 -0.6629  0.0334  0.0347
16293TIP3    H270371   1.655   1.209   0.209  0.3496  0.1302  0.1372
16294TIP3   OH270372   3.649   1.729   1.709 -0.3854 -0.5284  0.2018
16294TIP3    H170373   3.626   1.822   1.708 -0.5759 -0.5761  0.0994
16294TIP3    H270374   3.741   1.726   1.682 -0.7223 -0.4707 -0.9710
16295TIP3   OH270375   0.456   3.802   4.544 -0.0928 -0.1780  0.0769
16295TIP3    H170376   0.377   3.803   4.490 -0.4859 -1.0706  0.6039
16295TIP3    H270377   0.499   3.885   4.526  0.0013 -0.6024 -1.9159
16296TIP3   OH270378   1.991   5.291   0.360 -0.6348  0.2557  0.0877
16296TIP3    H170379   1.918   5.313   0.417 -0.7670  1.7673 -0.5947
16296TIP3    H270380   1.999   5.196   0.365 -1.3728  0.2584  1.6947
16297TIP3   OH270381   4.879   0.650   2.022  0.7419 -0.0625  0.6478
16297TIP3    H170382   4.963   0.691   2.044  0.4340  0.1990  1.3719
16297TIP3    H270383   4.895   0.556   2.032  0.8454  0.0079  1.1593
16298TIP3   OH270384   4.023   5.672  11.847 -1.0681  0.6118 -0.0874
16298TIP3    H170385   4.041   5.746  11.906  0.1826  2.4040 -2.5372
16298TIP3    H270386   3.982   5.712  11.771 -0.5973 -1.2645 -1.3924
16299TIP3   OH270387   1.135   5.293   4.118 -0.2924  0.5099  0.2831
16299TIP3    H170388   1.208   5.299   4.056 -2.5560  1.4022 -2.5533
16299TIP3    H270389   1.109   5.201   4.116 -0.0514  0.4413  0.2896
16300TIP3   OH270390   1.793   2.722   0.626 -0.5583 -0.6317 -0.6466
16300TIP3    H170391   1.828   2.641   0.664  1.4355  0.3762 -0.1647
16300TIP3    H270392   1.737   2.758   0.695 -1.5565 -1.6349 -0.9103
16301TIP3   OH270393   6.188   5.418  16.760 -0.0562  0.0357 -0.3133
16301TIP3    H170394   6.158   5.329  16.780 -0.2645 -0.0157 -0.8393
16301TIP3    H270395   6.260   5.405  16.698  0.4436  0.2007  0.2282
16302TIP3   OH270396   4.943   4.835  11.123  0.0266  0.3729  0.3984
16302TIP3    H170397   4.961   4.926  11.099  0.9081  0.4752  1.4036
16302TIP3    H270398   4.869   4.810  11.067 -0.3117  1.7422  0.1964
16303TIP3   OH270399   3.087   1.451  14.940  0.3779  0.6399  0.0365
16303TIP3    H170400   3.167   1.454  14.887  0.9985  0.6647  0.9418
16303TIP3    H270401   3.039   1.530  14.915  0.7810  0.7821 -0.3047
16304TIP3   OH270402   0.012   6.807   6.166 -0.2313 -0.2163  0.0716
16304TIP3    H170403  -0.060   6.849   6.213 -0.9042 -1.8979  0.6221
16304TIP3    H270404   0.030   6.866   6.093 -1.6187  0.6532  0.3830
16305TIP3   OH270405   1.095   5.004  15.721 -0.0151  0.0825  0.4773
16305TIP3    H170406   1.175   5.005  15.669  1.1664 -0.7688  2.1521
16305TIP3    H270407   1.024   5.002  15.657  1.3110  0.4714 -1.0609
16306TIP3   OH270408   2.776   2.345  12.471  0.0510 -0.1871 -0.4919
16306TIP3    H170409   2.710   2.335  12.541  0.6295 -0.1641  0.0654
16306TIP3    H270410   2.728   2.387  12.400 -0.6840 -0.6929 -0.3088
16307TIP3   OH270411   6.481   4.897  14.096  0.0857  0.2634  0.2220
16307TIP3    H170412   6.399   4.855  14.122 -0.3678  0.7812 -0.3538
16307TIP3    H270413   6.468   4.989  14.115  1.8935 -0.0097  3.6467
16308TIP3   OH270414   6.525   3.756   3.315  0.0146  0.1744 -0.2346
16308TIP3    H170415   6.530   3.730   3.223  1.3262  0.0210 -0.1290
16308TIP3    H270416   6.604   3.719   3.355 -0.6610  0.0238  1.0134
16309TIP3   OH270417   5.251   5.465  12.015  0.6494 -0.5377  0.0489
16309TIP3    H170418   5.284   5.545  11.973 -0.6308  0.0443  0.1061
16309TIP3    H270419   5.156   5.472  12.007  0.4678 -1.3757  1.3275
16310TIP3   OH270420   4.481   1.059   0.819  0.1945  0.2015  0.3276
16310TIP3    H170421   4.550   1.073   0.755 -0.2512 -1.5308 -0.5932
16310TIP3    H270422   4.401   1.086   0.774 -0.0931 -0.8147  0.2127
16311TIP3   OH270423   2.597   2.407   1.922 -0.0361  0.4889 -0.0433
16311TIP3    H170424   2.612   2.450   2.006  0.3184  0.5948 -0.1605
16311TIP3    H270425   2.514   2.443   1.891 -0.3678  0.1642  0.4390
16312TIP3   OH270426   5.583   3.536  14.923  0.4760 -0.6213  0.6508
16312TIP3    H170427   5.634   3.457  14.942 -0.6519 -1.8262 -1.0374
16312TIP3    H270428   5.503   3.526  14.976 -0.9125 -2.0690 -1.5288
16313TIP3   OH270429   5.228   1.695  11.596  0.0849 -0.5039 -0.0856
16313TIP3    H170430   5.296   1.666  11.657  0.5431  0.0781 -0.3178
16313TIP3    H270431   5.152   1.712  11.651  0.7592  0.8868  0.4650
16314TIP3   OH270432   6.467   1.166   6.009 -0.1889 -0.0653  0.6024
16314TIP3    H170433   6.499   1.161   6.099  1.2687  0.3016  0.1241
16314TIP3    H270434   6.487   1.081   5.971  0.9421  0.4152  0.0825
16315TIP3   OH270435   4.045   6.072  13.227  0.5428 -0.0659  0.0251
16315TIP3    H170436   4.074   5.983  13.246  1.4856  0.0147 -0.9188
16315TIP3    H270437   4.044   6.077  13.132 -2.2870  0.0784 -0.0203
16316TIP3   OH270438   0.866   3.879   5.803  0.6380  0.2412  0.1549
16316TIP3    H170439   0.907   3.794   5.815  2.0189  0.3056 -2.9253
16316TIP3    H270440   0.930   3.942   5.838  1.0284  0.1181 -0.3217
16317TIP3   OH270441   2.736   0.277  14.614  0.0264 -0.1343 -0.3716
16317TIP3    H170442   2.687   0.195  14.625 -0.1356  0.0113  0.0194
16317TIP3    H270443   2.784   0.287  14.696  0.8932 -0.3903 -0.8319
16318TIP3   OH270444   6.379   1.886   0.504  0.1883  0.2122  0.0315
16318TIP3    H170445   6.355   1.895   0.412  2.0737 -1.8583 -0.7687
16318TIP3    H270446   6.325   1.950   0.550  1.4213  3.6769 -2.8500
16319TIP3   OH270447   3.755   3.341   2.735 -0.2001 -0.2538  0.1009
16319TIP3    H170448   3.830   3.321   2.679 -0.7987 -0.3617 -0.6961
16319TIP3    H270449   3.757   3.436   2.745 -1.5984  0.1499 -2.4223
16320TIP3   OH270450   4.646   0.882  15.645  0.3190  0.0102 -0.0344
16320TIP3    H170451   4.739   0.895  15.628  0.5838 -0.7841  0.7324
16320TIP3    H270452   4.643   0.832  15.727 -0.7053 -1.7939 -1.0993
16321TIP3   OH270453   2.071   6.302  15.716  0.1503  0.8231 -0.1936
16321TIP3    H170454   2.075   6.207  15.726  0.4419  0.7762 -0.6788
16321TIP3    H270455   2.117   6.337  15.792 -0.0030  0.5791  0.0128
16322TIP3   OH270456   0.652   3.570  13.366 -1.1012  0.2442 -0.4313
16322TIP3    H170457   0.615   3.658  13.360 -0.3704  0.6808  1.0617
16322TIP3    H270458   0.576   3.512  13.371 -1.6027  0.9533  0.4589
16323TIP3   OH270459   3.386   5.896  13.227  0.3249 -0.6023 -0.2408
16323TIP3    H170460   3.440   5.924  13.300 -0.3345  1.1301 -0.3870
16323TIP3    H270461   3.349   5.976  13.191 -0.2055 -1.5051 -1.8301
16324TIP3   OH270462   4.170   6.526   3.131 -0.1990  0.1799  0.3768
16324TIP3    H170463   4.205   6.482   3.053  2.0265  1.9227  0.2972
16324TIP3    H270464   4.103   6.466   3.164  1.2155 -2.2607 -0.8794
16325TIP3   OH270465   1.142   4.291   0.791  0.1107  0.1029 -0.1619
16325TIP3    H170466   1.185   4.324   0.712 -1.5599 -1.1833 -1.7085
16325TIP3    H270467   1.212   4.250   0.841  0.9330 -0.7984 -1.9478
16326TIP3   OH270468   2.739   6.693  14.676  0.7321  0.4268 -0.8478
16326TIP3    H170469   2.816   6.704  14.621  0.4590 -0.0277 -1.3259
16326TIP3    H270470   2.675   6.754  14.640  0.6345  0.3067 -0.8741
16327TIP3   OH270471   1.431   5.965   0.830  0.2394 -0.3819  0.3988
16327TIP3    H170472   1.518   5.942   0.798  1.2403  3.5362 -0.2664
16327TIP3    H270473   1.382   5.987   0.750 -0.1575  0.8651  0.9603
16328TIP3   OH270474   2.482   3.233   0.131  0.4209 -0.3383  0.3558
16328TIP3    H170475   2.459   3.260   0.220  0.5518 -0.7611  0.5195
16328TIP3    H270476   2.489   3.315   0.082 -0.0087 -0.1203  0.6478
16329TIP3   OH270477   1.461   0.550   4.057 -0.1891  0.1401 -0.4130
16329TIP3    H170478   1.415   0.622   4.100  0.7417 -0.4883  1.7912
16329TIP3    H270479   1.553   0.570   4.069  0.1464  0.1841 -2.6758
16330TIP3   OH270480   3.738   4.650  16.121 -0.0771 -0.1840  0.2092
16330TIP3    H170481   3.753   4.598  16.042  1.8869  0.3579  0.1862
16330TIP3    H270482   3.821   4.694  16.137 -1.0273  1.2334  1.4929
16331TIP3   OH270483   5.303   0.437   1.563  0.7493  0.1330 -0.0680
16331TIP3    H170484   5.353   0.412   1.641 -0.1991 -1.8148 -0.0221
16331TIP3    H270485   5.323   0.530   1.551  2.7996 -0.0883  1.0722
16332TIP3   OH270486   2.922   3.943  13.136  0.0495  0.0151 -0.2597
16332TIP3    H170487   2.895   3.977  13.051 -2.2004  0.7294  0.6391
16332TIP3    H270488   2.854   3.974  13.196  2.1197  0.4331  2.0008
16333TIP3   OH270489   3.174   4.780   3.841  0.1837 -0.0784  0.6843
16333TIP3    H170490   3.091   4.820   3.867  0.4713  0.3214  0.9978
16333TIP3    H270491   3.193   4.817   3.755  0.0171 -0.1973  0.5971
16334TIP3   OH270492   2.826   4.226  11.056  0.4153 -0.6245  0.1309
16334TIP3    H170493   2.872   4.155  11.011  2.1030  0.2335  0.4141
16334TIP3    H270494   2.789   4.186  11.134  1.3152 -1.2023  0.2722
16335TIP3   OH270495   0.091   5.125  12.560 -0.3140  0.9800 -0.5022
16335TIP3    H170496   0.157   5.155  12.497 -0.2526 -1.3547 -1.6654
16335TIP3    H270497   0.129   5.144  12.645  0.0581  3.3001 -1.1110
16336TIP3   OH270498   0.524   2.223  12.712 -0.1308  0.2341  0.6631
16336TIP3    H170499   0.570   2.141  12.727  1.2066  1.0344  1.1049
16336TIP3    H270500   0.506   2.257  12.799 -0.4806  0.5110  0.4836
16337TIP3   OH270501   0.776   2.548  15.787 -0.5145 -0.1696 -0.1763
16337TIP3    H170502   0.777   2.556  15.883 -2.3928  0.2138 -0.1666
16337TIP3    H270503   0.868   2.529  15.764  0.6874  3.0544  1.3975
16338TIP3   OH270504   1.374   1.068  16.602  0.2230  0.4599 -1.1050
16338TIP3    H170505   1.367   1.010  16.678  2.0858  0.9307 -0.5205
16338TIP3    H270506   1.336   1.151  16.633  3.1702  1.4388  0.2778
16339TIP3   OH270507   6.402   3.542   0.849  0.2791 -0.1103 -0.2233
16339TIP3    H170508   6.430   3.547   0.757  0.1146 -0.1597 -0.2759
16339TIP3    H270509   6.472   3.586   0.897 -0.8364  2.2459 -0.6117
16340TIP3   OH270510   6.724   5.160   0.139  0.1899 -0.3146  0.3051
16340TIP3    H170511   6.720   5.255   0.153  2.9673 -0.1714  0.6750
16340TIP3    H270512   6.745   5.150   0.046 -0.1291 -0.5923  0.2581
16341TIP3   OH270513   0.731   1.126  13.109 -0.1786 -0.5406  0.7833
16341TIP3    H170514   0.700   1.080  13.031 -0.5347 -0.6278  0.9709
16341TIP3    H270515   0.803   1.072  13.142 -0.2024 -0.6461  0.6647
16342TIP3   OH270516   2.795   0.851   1.320 -0.0671  0.4536  0.2164
16342TIP3    H170517   2.852   0.924   1.348 -0.3353  0.5115  0.6193
16342TIP3    H270518   2.850   0.773   1.330 -0.3129  0.4169  1.3927
16343TIP3   OH270519   5.036   3.805  14.844  0.1665  0.0200  0.0478
16343TIP3    H170520   4.962   3.786  14.785  1.2989 -0.1960 -1.3574
16343TIP3    H270521   5.098   3.734  14.829  0.8853  0.4580  0.8459
16344TIP3   OH270522   2.994   0.341  10.471 -0.3537 -0.3771  0.5350
16344TIP3    H170523   2.987   0.422  10.521  1.4577  0.6017 -0.6710
16344TIP3    H270524   2.906   0.326  10.437 -1.0663  0.2034  2.0411
16345TIP3   OH270525   5.432   1.347  13.404  0.5099 -0.2715  0.0056
16345TIP3    H170526   5.500   1.413  13.389  0.3604  0.6213  2.7986
16345TIP3    H270527   5.407   1.319  13.316  3.7810  0.0491 -1.1573
16346TIP3   OH270528   3.160   0.722  14.556  0.7723  0.4488  0.5465
16346TIP3    H170529   3.224   0.674  14.503 -1.0072  0.1031 -1.4262
16346TIP3    H270530   3.112   0.776  14.493 -0.4692  1.1644  2.0398
16347TIP3   OH270531   1.600   6.814   0.482  0.1786 -0.2243 -0.4525
16347TIP3    H170532   1.515   6.819   0.439 -0.4741 -3.1005  0.3288
16347TIP3    H270533   1.656   6.768   0.419  1.5430  2.4115 -1.3464
16348TIP3   OH270534   0.507   6.101   5.826 -0.4644 -0.3915  0.8096
16348TIP3    H170535   0.562   6.068   5.897  0.5978  1.8476  1.1235
16348TIP3    H270536   0.569   6.124   5.757 -1.2769 -0.3323  0.0853
16349TIP3   OH270537   6.656   6.760   4.559 -0.6535  0.2783  0.0219
16349TIP3    H170538   6.588   6.694   4.575 -0.8377  0.7638  1.3103
16349TIP3    H270539   6.608   6.840   4.541 -0.4193  0.3005 -0.5231
16350TIP3   OH270540   4.605   2.805   2.904 -0.4226  1.0539 -0.2316
16350TIP3    H170541   4.607   2.710   2.911  1.9938  0.9181 -1.8241
16350TIP3    H270542   4.533   2.823   2.843  0.5220  0.0618 -1.6923
16351TIP3   OH270543   5.284   4.554   6.645 -0.3194 -0.0739 -0.0564
16351TIP3    H170544   5.298   4.646   6.668 -0.0095 -0.3163  0.7808
16351TIP3    H270545   5.264   4.555   6.552 -1.0480  0.9172  0.0953
16352TIP3   OH270546   3.914   1.421   1.244 -0.1186 -0.2709  0.0079
16352TIP3    H170547   3.942   1.512   1.242 -0.1861 -0.2618 -0.6081
16352TIP3    H270548   3.819   1.425   1.253  0.0008 -0.2989  1.5325
16353TIP3   OH270549   6.283   6.339  16.854 -0.0707 -0.2437 -0.0383
16353TIP3    H170550   6.220   6.377  16.794  0.7163  0.3848 -0.4896
16353TIP3    H270551   6.329   6.273  16.802 -0.6744 -1.0461  0.4264
16354TIP3   OH270552   2.935   4.890   3.240 -0.1621 -0.5296  0.3098
16354TIP3    H170553   2.879   4.813   3.238  1.1690 -1.6455 -4.1709
16354TIP3    H270554   3.023   4.857   3.219  0.5395  2.1043 -1.3251
16355TIP3   OH270555   1.314   3.935  11.006  0.6340 -0.6008  0.3722
16355TIP3    H170556   1.336   4.023  11.038 -0.4776 -0.9390  2.2141
16355TIP3    H270557   1.391   3.908  10.956  1.6342  0.8247  1.0654
16356TIP3   OH270558   3.047   6.193  14.758  0.2521 -0.4792  0.1996
16356TIP3    H170559   3.092   6.181  14.841  1.3845  1.5805 -0.0463
16356TIP3    H270560   2.978   6.127  14.758 -0.1684 -0.1464  3.0370
16357TIP3   OH270561   4.045   3.062   0.416  0.0707 -0.4896 -0.6660
16357TIP3    H170562   4.019   2.977   0.452 -2.4661  0.0157 -1.1092
16357TIP3    H270563   4.037   3.123   0.490 -1.3410 -0.1135 -1.1039
16358TIP3   OH270564   4.952   4.805  15.520 -0.4747 -0.2018  0.4733
16358TIP3    H170565   4.913   4.722  15.495 -0.8795 -0.4566  1.8521
16358TIP3    H270566   4.899   4.835  15.594 -1.0621  1.8647 -0.7107
16359TIP3   OH270567   6.248   1.925  14.543 -0.0325  0.1593  0.6575
16359TIP3    H170568   6.268   1.848  14.491  2.4299  1.1645 -0.0258
16359TIP3    H270569   6.152   1.927  14.547 -0.1840 -2.9233  0.7995
16360TIP3   OH270570   0.555   6.524   2.075  0.0683 -0.0565 -0.1449
16360TIP3    H170571   0.493   6.490   2.140  0.0718  2.5894  1.4074
16360TIP3    H270572   0.499   6.566   2.009  0.1323 -0.8300 -0.7008
16361TIP3   OH270573   2.653   5.293   0.247 -0.4498 -0.3827  0.0395
16361TIP3    H170574   2.590   5.221   0.241  3.0197 -3.5739 -1.4834
16361TIP3    H270575   2.680   5.294   0.339 -0.7879 -0.7712  0.1458
16362TIP3   OH270576   5.661   2.890   5.481  0.0165 -0.6743 -1.0703
16362TIP3    H170577   5.749   2.852   5.488 -0.7268 -2.5710 -1.5027
16362TIP3    H270578   5.610   2.846   5.549 -0.2479  1.6164  0.3155
16363TIP3   OH270579   4.318   3.158   2.552  0.4309 -0.2031 -0.3351
16363TIP3    H170580   4.300   3.103   2.628 -0.6829 -0.5037 -0.8035
16363TIP3    H270581   4.236   3.205   2.536  1.1467  1.1192 -0.3499
16364TIP3   OH270582   5.451   4.160  12.665 -0.6516  0.2497 -0.3778
16364TIP3    H170583   5.362   4.168  12.699 -0.2730 -0.9162  0.9912
16364TIP3    H270584   5.505   4.214  12.722 -0.3265  0.0638 -0.5027
16365TIP3   OH270585   2.412   2.881   4.244  0.2833  0.3784 -0.1843
16365TIP3    H170586   2.467   2.940   4.192  0.6431  0.7500  0.6011
16365TIP3    H270587   2.467   2.804   4.258  0.1541  0.2419 -0.4221
16366TIP3   OH270588   6.540   1.547   6.777 -0.6074 -0.4660 -0.3109
16366TIP3    H170589   6.550   1.470   6.721 -1.5683 -0.4420 -0.5322
16366TIP3    H270590   6.572   1.620   6.724  0.7561 -0.7508  0.0722
16367TIP3   OH270591   6.499   2.941   3.457 -0.3218  0.1453  0.4333
16367TIP3    H170592   6.546   2.863   3.428 -0.4190  0.6595 -1.2413
16367TIP3    H270593   6.415   2.908   3.490 -1.0543 -0.3934 -1.7878
16368TIP3   OH270594   1.041   1.349  10.768 -0.4297 -0.0380  0.0317
16368TIP3    H170595   1.026   1.403  10.691 -1.0019 -0.4169 -0.1224
16368TIP3    H270596   0.988   1.271  10.754 -0.6499 -0.0508  0.8717
16369TIP3   OH270597   0.560   2.137  15.466  0.2113 -0.0228  0.1054
16369TIP3    H170598   0.617   2.207  15.500  1.1122 -1.5469  1.9182
16369TIP3    H270599   0.497   2.122  15.536 -1.5294  0.5778 -1.2668
16370TIP3   OH270600   1.347   4.940  11.988 -0.2003 -0.6884  0.2829
16370TIP3    H170601   1.399   4.897  11.920  0.5837  1.1285 -0.3124
16370TIP3    H270602   1.259   4.904  11.976 -0.1851 -0.1589 -1.9848
16371TIP3   OH270603   0.222   6.143  11.887  0.3740  0.0066  0.1863
16371TIP3    H170604   0.203   6.124  11.795 -1.4969  0.1740  0.4891
16371TIP3    H270605   0.311   6.178  11.886  1.2097 -1.9540 -1.2650
16372TIP3   OH270606   2.423   6.044   2.056 -0.0049  0.4828 -0.1312
16372TIP3    H170607   2.394   6.081   2.139 -0.9680  0.9256 -0.6463
16372TIP3    H270608   2.506   6.001   2.077 -1.9767 -2.7557  1.9020
16373TIP3   OH270609   4.459   1.960  17.029  0.2419 -0.3587  0.1006
16373TIP3    H170610   4.503   1.944  17.113 -0.0408 -0.2972  0.2596
16373TIP3    H270611   4.381   1.905  17.032  0.0015 -0.0226  0.0595
16374TIP3   OH270612   3.553   5.473  12.481  0.2737  0.3906 -0.1318
16374TIP3    H170613   3.520   5.394  12.525 -0.2084  0.4767 -0.3397
16374TIP3    H270614   3.618   5.439  12.419  0.4691  0.2070  0.1683
16375TIP3   OH270615   3.438   0.988   1.932 -0.2135  0.2566 -0.0060
16375TIP3    H170616   3.362   0.932   1.947 -0.0527 -0.4979 -1.7837
16375TIP3    H270617   3.499   0.966   2.003 -0.0099 -2.1026 -0.8317
16376TIP3   OH270618   0.962   4.591   4.337  0.3548  0.4953 -0.0384
16376TIP3    H170619   0.886   4.631   4.296  0.5784  0.9216 -0.0406
16376TIP3    H270620   0.940   4.498   4.342  0.6241  0.2880 -1.8453
16377TIP3   OH270621   4.930   5.544   6.146  0.3469 -0.2904  0.2503
16377TIP3    H170622   4.916   5.457   6.183 -1.7057  0.3580  1.1407
16377TIP3    H270623   4.947   5.600   6.222  0.6384  0.2632 -0.2141
16378TIP3   OH270624   4.371   1.220  13.713  0.5248  0.0489  0.2297
16378TIP3    H170625   4.355   1.239  13.620  1.3020 -1.5866 -0.2820
16378TIP3    H270626   4.322   1.287  13.760  1.5364  2.0197 -1.3662
16379TIP3   OH270627   1.074   1.330   2.493 -0.6332  0.0810 -0.0709
16379TIP3    H170628   1.135   1.385   2.541  1.3345  0.0478 -2.3250
16379TIP3    H270629   1.129   1.280   2.432 -2.7681 -1.1935 -1.0905
16380TIP3   OH270630   4.181   6.603  14.510  0.5733 -0.2968  0.1612
16380TIP3    H170631   4.208   6.514  14.487  2.5858  0.2817  0.1263
16380TIP3    H270632   4.213   6.657  14.438  0.8382  0.6612  0.9748
16381TIP3   OH270633   0.333   2.237   2.691  0.4644 -0.2917  0.3100
16381TIP3    H170634   0.238   2.250   2.684  0.6847  1.7164  0.3782
16381TIP3    H270635   0.351   2.162   2.635 -1.0366 -0.0177 -0.5972
16382TIP3   OH270636   5.923   1.387   5.253  0.1053 -0.0340  0.1123
16382TIP3    H170637   5.879   1.472   5.255 -0.3109 -0.2520  0.3160
16382TIP3    H270638   5.866   1.332   5.200  0.5983 -0.0688 -0.4001
16383TIP3   OH270639   5.809   1.606   2.343  0.7582 -0.0320 -0.3517
16383TIP3    H170640   5.786   1.541   2.278  2.2832  0.5902 -1.5861
16383TIP3    H270641   5.834   1.555   2.420  2.5634 -1.0059 -1.4989
16384TIP3   OH270642   6.214   2.161  10.897 -0.4399 -0.3650  0.7873
16384TIP3    H170643   6.266   2.241  10.891 -1.0551  0.0018  0.1844
16384TIP3    H270644   6.133   2.181  10.850 -0.3698 -1.5314  0.1374
16385TIP3   OH270645   5.654   6.405  11.738  0.1778 -0.0867  0.0987
16385TIP3    H170646   5.702   6.340  11.687  0.5234 -2.3185  2.9567
16385TIP3    H270647   5.562   6.382  11.725  0.2102  0.0578 -0.3810
16386TIP3   OH270648   3.587   2.415   2.487 -0.1173 -0.1928  0.0966
16386TIP3    H170649   3.548   2.372   2.563 -0.6603  0.5650  0.2626
16386TIP3    H270650   3.517   2.471   2.452  0.1928 -0.3685 -0.8342
16387TIP3   OH270651   6.438   1.610  15.797  0.6031  0.3416 -0.3425
16387TIP3    H170652   6.406   1.674  15.860  0.5659  0.7210 -0.7389
16387TIP3    H270653   6.491   1.549  15.849  1.5498  1.3176 -0.1142
16388TIP3   OH270654   2.234   6.298  15.476 -0.0210 -0.0587 -0.4940
16388TIP3    H170655   2.162   6.268  15.532 -1.0574 -1.9602 -2.6770
16388TIP3    H270656   2.225   6.393  15.474 -0.4520  0.0025  1.8362
16389TIP3   OH270657   5.651   6.563   3.042  0.0721 -0.2483  0.6065
16389TIP3    H170658   5.590   6.549   3.115  1.1427 -1.3468  1.3311
16389TIP3    H270659   5.648   6.658   3.027 -0.4878 -0.0517  1.7924
16390TIP3   OH270660   1.372   6.587   2.930 -0.2364  0.3489  0.4812
16390TIP3    H170661   1.377   6.636   2.848  0.3889 -1.3078 -0.5218
16390TIP3    H270662   1.354   6.653   2.997 -2.0527  1.5958 -1.1389
16391TIP3   OH270663   0.047   0.861  11.320  0.0565 -0.8717 -0.1031
16391TIP3    H170664   0.026   0.952  11.342 -0.2511 -0.4639 -1.8980
16391TIP3    H270665   0.049   0.816  11.404 -3.0558  0.1118  0.6491
16392TIP3   OH270666   6.569   2.123   0.482 -0.4939  0.4144  0.6679
16392TIP3    H170667   6.573   2.028   0.485 -1.4528  0.3975  2.8329
16392TIP3    H270668   6.476   2.143   0.475 -0.4314  1.1890  1.8266
16393TIP3   OH270669   6.118   6.220   0.941  0.0487 -0.0019  0.4799
16393TIP3    H170670   6.120   6.138   0.892  0.0009 -0.4939  1.2866
16393TIP3    H270671   6.128   6.194   1.032 -0.7747  0.8253  0.8272
16394TIP3   OH270672   3.548   4.056   1.469  0.0668  0.2129  0.8219
16394TIP3    H170673   3.523   4.001   1.544  2.2925  0.9345  2.1775
16394TIP3    H270674   3.569   4.141   1.508  0.2033  0.9408 -0.7820
16395TIP3   OH270675   1.097   1.301   2.872  0.0558  0.7155 -0.2599
16395TIP3    H170676   1.075   1.223   2.822 -0.0406  1.2596 -1.0798
16395TIP3    H270677   1.012   1.340   2.894  0.0759  0.1833  0.8235
16396TIP3   OH270678   6.641   0.023  14.903  0.1321  0.2602  0.1078
16396TIP3    H170679   6.628   0.078  14.826  0.0904 -0.1875 -0.2124
16396TIP3    H270680   6.565  -0.034  14.905  0.5008 -0.2443  0.0392
16397TIP3   OH270681   2.670   4.258   5.249  0.0399  0.3483 -0.7125
16397TIP3    H170682   2.666   4.312   5.328 -0.8635  0.2350 -0.6720
16397TIP3    H270683   2.729   4.306   5.191  0.3342  0.6746 -0.1503
16398TIP3   OH270684   2.030   4.806  11.516 -0.1986  1.3265  0.4078
16398TIP3    H170685   1.990   4.762  11.591  2.0090 -0.4322  0.6450
16398TIP3    H270686   2.053   4.893  11.549 -0.4787  1.0553  1.3662
16399TIP3   OH270687   3.513   3.610  15.788 -0.6892  0.5350  0.1737
16399TIP3    H170688   3.594   3.576  15.826  0.3915 -0.3382 -2.6261
16399TIP3    H270689   3.446   3.547  15.813  0.3669 -1.0985 -0.9623
16400TIP3   OH270690   2.995   2.389  16.849  0.0667  0.3450 -0.0180
16400TIP3    H170691   3.050   2.347  16.915 -0.5102 -1.4197 -0.5819
16400TIP3    H270692   3.012   2.482  16.859 -0.2432  0.1904  2.8268
16401TIP3   OH270693   0.712   2.069   3.811  0.4083 -0.9945  0.5894
16401TIP3    H170694   0.777   2.072   3.882  1.0354  0.0730  0.0021
16401TIP3    H270695   0.664   2.151   3.819  0.2184 -1.0485  0.0334
16402TIP3   OH270696   2.235   0.837   1.135 -0.2306  0.5287  0.2246
16402TIP3    H170697   2.149   0.876   1.121 -0.0866  0.6733 -0.2744
16402TIP3    H270698   2.277   0.840   1.049 -0.1789 -0.6269  0.1946
16403TIP3   OH270699   3.440   4.441  15.256 -0.5076  0.1892 -0.9819
16403TIP3    H170700   3.377   4.501  15.296  0.3842  0.2686  0.3760
16403TIP3    H270701   3.388   4.369  15.223 -1.2455 -0.3566  1.2185
16404TIP3   OH270702   2.064   5.319  11.183  0.1063  0.2236 -0.2641
16404TIP3    H170703   2.064   5.223  11.186  1.8006  0.2069  0.1673
16404TIP3    H270704   2.120   5.340  11.108 -0.2117  0.8925 -0.3195
16405TIP3   OH270705   0.193   0.900   6.700 -0.4674  0.1222 -0.2708
16405TIP3    H170706   0.201   0.815   6.744 -1.7190  0.8638  1.5366
16405TIP3    H270707   0.100   0.907   6.679 -0.8474  1.9403  1.6967
16406TIP3   OH270708   1.436   0.978  11.283  0.0496 -0.1733 -0.8060
16406TIP3    H170709   1.503   0.912  11.268 -0.0065 -0.3119 -0.4688
16406TIP3    H270710   1.426   1.023  11.199 -0.7601 -1.3800 -1.3886
16407TIP3   OH270711   3.459   2.570  11.311  0.3677 -0.2810  0.1041
16407TIP3    H170712   3.515   2.593  11.385  0.3329 -1.7588  0.6133
16407TIP3    H270713   3.373   2.553  11.351 -0.0904  0.5361 -0.4944
16408TIP3   OH270714   6.715   0.891   1.223  0.4634 -0.1071 -0.0641
16408TIP3    H170715   6.655   0.956   1.261  3.7127  4.1260 -1.3056
16408TIP3    H270716   6.685   0.882   1.132 -0.1949 -0.6142  0.1995
16409TIP3   OH270717   4.265   0.992   5.560  0.3187 -0.7608 -0.4894
16409TIP3    H170718   4.284   1.085   5.575  1.5422 -0.7397 -1.8761
16409TIP3    H270719   4.170   0.985   5.571  0.4445  0.2153  1.6552
16410TIP3   OH270720   4.523   4.449   1.370 -0.0945 -0.1140 -0.6575
16410TIP3    H170721   4.484   4.529   1.336 -1.2183 -0.8620 -1.1906
16410TIP3    H270722   4.596   4.479   1.425 -2.0699  1.4199  1.3047
16411TIP3   OH270723   0.440   1.588   2.845  0.1310  0.0307 -0.2240
16411TIP3    H170724   0.534   1.596   2.826  0.4579 -1.1520  0.8113
16411TIP3    H270725   0.404   1.549   2.766  1.0831 -2.5655  0.5178
16412TIP3   OH270726   6.451   2.350  15.739 -0.1495 -0.7228 -0.3641
16412TIP3    H170727   6.513   2.293  15.693  0.3047 -1.7071  1.3854
16412TIP3    H270728   6.498   2.433  15.747 -0.1315 -0.6146 -1.4016
16413TIP3   OH270729   3.682   5.607   2.355  0.2335 -0.4274 -0.7040
16413TIP3    H170730   3.778   5.611   2.358  0.3307 -2.0485 -0.7630
16413TIP3    H270731   3.661   5.617   2.262  0.3737 -0.5062 -0.7442
16414TIP3   OH270732   3.732   4.966  12.744 -0.0783  0.1708 -0.2219
16414TIP3    H170733   3.775   5.017  12.675 -0.4989  1.3859  0.3965
16414TIP3    H270734   3.675   5.029  12.789  1.2120 -0.2482  2.1395
16415TIP3   OH270735   1.552   1.672  16.697  0.5695 -0.0333  0.5380
16415TIP3    H170736   1.487   1.734  16.730  0.6835 -0.4428  1.5890
16415TIP3    H270737   1.576   1.705  16.611 -1.6915 -0.3605 -0.2740
16416TIP3   OH270738   2.912   4.668  12.064  0.2826  0.0766  0.1401
16416TIP3    H170739   2.839   4.698  12.119  0.0480  2.5719 -1.3517
16416TIP3    H270740   2.988   4.669  12.123 -0.6207 -1.4682  1.4308
16417TIP3   OH270741   1.915   3.941  13.283 -0.1788  0.0713 -0.0819
16417TIP3    H170742   1.887   3.997  13.355  1.2789  0.3425  0.2961
16417TIP3    H270743   2.006   3.918  13.303  0.0898 -0.2864 -1.5512
16418TIP3   OH270744   4.604   1.768   2.429 -0.3453  0.3135 -0.1368
16418TIP3    H170745   4.541   1.779   2.358 -0.8621 -2.3484 -0.1957
16418TIP3    H270746   4.688   1.757   2.386 -0.3744  0.5490 -0.2497
16419TIP3   OH270747   3.090   5.202   1.553  0.1180  0.0544  0.1950
16419TIP3    H170748   3.068   5.156   1.472  0.8988 -1.3732  0.7543
16419TIP3    H270749   3.163   5.152   1.590  0.9750  1.7278  0.8838
16420TIP3   OH270750   4.743   1.917  16.113  0.2396 -0.3280 -0.1022
16420TIP3    H170751   4.833   1.949  16.120 -0.2512  1.2642 -0.6606
16420TIP3    H270752   4.689   1.988  16.147 -0.8189 -1.3103  0.3509
16421TIP3   OH270753   3.270   2.226  14.331 -0.1189 -0.5954 -0.2490
16421TIP3    H170754   3.227   2.150  14.292  1.8171 -1.3676 -0.9955
16421TIP3    H270755   3.300   2.196  14.417  1.6014 -1.0734 -0.9750
16422TIP3   OH270756   5.609   3.252   1.885 -0.0719  0.3457  0.2943
16422TIP3    H170757   5.606   3.347   1.889  0.5277  0.3655  0.2743
16422TIP3    H270758   5.526   3.227   1.844 -1.4770  0.6947  2.7647
16423TIP3   OH270759   3.076   3.316   1.069 -0.0525 -0.4532 -0.7599
16423TIP3    H170760   3.131   3.382   1.113 -0.8490 -0.0483 -0.3445
16423TIP3    H270761   3.040   3.264   1.141  1.0626 -1.7756 -1.1123
16424TIP3   OH270762   3.106   1.416  13.600 -0.2214  0.0117 -0.3977
16424TIP3    H170763   3.077   1.439  13.688 -0.1852 -0.1840 -0.3346
16424TIP3    H270764   3.162   1.339  13.612  1.1530  0.9812 -0.4022
16425TIP3   OH270765   5.021   3.346  14.688 -0.6772  0.1951  0.6180
16425TIP3    H170766   4.960   3.273  14.679  0.3379 -0.5843 -0.1584
16425TIP3    H270767   5.022   3.386  14.601  1.0669 -0.7496  0.1757
16426TIP3   OH270768   4.735   6.812   4.632  0.0694 -0.0829  0.0771
16426TIP3    H170769   4.693   6.887   4.589 -0.4774 -0.3328  0.1726
16426TIP3    H270770   4.728   6.741   4.569  0.6319 -0.0476 -0.0324
16427TIP3   OH270771   1.083   4.483  16.780 -0.0848 -0.3200  0.3347
16427TIP3    H170772   1.160   4.451  16.828  0.5101  0.2406 -0.2111
16427TIP3    H270773   1.070   4.419  16.710  0.1421 -0.2028  0.1842
16428TIP3   OH270774   5.632   6.605  10.677  0.6224  0.0169  0.1196
16428TIP3    H170775   5.656   6.512  10.684 -0.5168 -0.3497 -0.5074
16428TIP3    H270776   5.715   6.651  10.677  1.3217 -1.1467 -1.3184
16429TIP3   OH270777   0.465   5.290   2.288  0.3017 -0.1393  0.2230
16429TIP3    H170778   0.470   5.303   2.194  0.5416 -3.0753 -0.2749
16429TIP3    H270779   0.373   5.270   2.305  0.5819 -1.5409  0.2406
16430TIP3   OH270780   3.302   0.593   2.494 -0.2212  0.0290 -0.2925
16430TIP3    H170781   3.292   0.688   2.489 -1.1898 -0.0531 -0.1022
16430TIP3    H270782   3.393   0.580   2.521  0.3890  0.8557 -1.8384
16431TIP3   OH270783   3.839   3.114  11.025  0.0825  0.3048 -0.2459
16431TIP3    H170784   3.849   3.019  11.030  0.3900  0.3175 -0.5815
16431TIP3    H270785   3.859   3.145  11.113 -0.8288 -0.0089  0.0890
16432TIP3   OH270786   0.290   3.096   4.180 -0.2719  0.2968  0.1177
16432TIP3    H170787   0.366   3.041   4.158 -1.0869 -0.4426 -0.9195
16432TIP3    H270788   0.215   3.049   4.144 -1.0573  1.8252 -0.3262
16433TIP3   OH270789   4.003   3.257   4.569 -0.1299 -0.3099 -0.2865
16433TIP3    H170790   3.908   3.263   4.566 -0.0467  1.1447 -1.4548
16433TIP3    H270791   4.032   3.342   4.601  0.8337  0.6649 -3.3162
16434TIP3   OH270792   3.013   2.513   0.282 -0.0337 -0.0240 -0.1359
16434TIP3    H170793   2.964   2.431   0.287 -1.2321  0.6304 -0.7723
16434TIP3    H270794   3.001   2.542   0.192  0.9558  0.5123 -0.1055
16435TIP3   OH270795   5.785   5.644  12.541 -0.5925 -0.2460 -0.0023
16435TIP3    H170796   5.741   5.631  12.457  0.1375  0.2939 -0.4855
16435TIP3    H270797   5.798   5.555  12.575 -1.7932 -0.4171  0.0279
16436TIP3   OH270798   1.203   3.758   5.612  0.2070 -0.1976  0.6476
16436TIP3    H170799   1.228   3.835   5.662  0.5521 -0.4289  0.8328
16436TIP3    H270800   1.164   3.793   5.532  3.2641  0.2091 -0.8017
16437TIP3   OH270801   1.379   2.317  12.645 -0.3876  0.2812 -0.0284
16437TIP3    H170802   1.355   2.230  12.675  2.1245 -0.6958 -0.5940
16437TIP3    H270803   1.382   2.310  12.549  0.7580  0.6830 -0.0405
16438TIP3   OH270804   4.449   1.762   4.352  0.4178 -0.1750 -0.1725
16438TIP3    H170805   4.510   1.835   4.365  0.3602 -0.2186  0.3595
16438TIP3    H270806   4.500   1.684   4.375 -0.0887 -0.1421  1.1392
16439TIP3   OH270807   0.196   2.744  16.212  0.1930  0.4528 -0.2964
16439TIP3    H170808   0.182   2.823  16.264  1.3916  0.4308  0.0970
16439TIP3    H270809   0.286   2.751  16.182  0.3392 -0.8020 -0.1909
16440TIP3   OH270810   1.591   1.069   4.057  0.1623 -0.0370  0.0357
16440TIP3    H170811   1.593   1.024   3.973  2.7264  0.2697 -0.1550
16440TIP3    H270812   1.598   0.999   4.122 -1.0322 -0.2224 -0.0241
16441TIP3   OH270813   6.067   0.605  15.421  0.0937  0.3692 -0.2136
16441TIP3    H170814   6.096   0.514  15.414 -0.8290 -0.1204  1.6836
16441TIP3    H270815   6.140   0.655  15.384  0.7284 -1.0954 -1.0806
16442TIP3   OH270816   3.083   3.286   5.826 -0.6775 -0.1111 -0.0222
16442TIP3    H170817   2.996   3.280   5.785 -0.8594 -1.3385  0.5221
16442TIP3    H270818   3.067   3.270   5.919 -0.1640  1.9139  0.4859
16443TIP3   OH270819   4.295   0.943  16.126  0.2239  0.7884 -0.2948
16443TIP3    H170820   4.220   0.930  16.068 -0.9609  2.9719  0.6114
16443TIP3    H270821   4.352   1.003  16.078  1.8401 -1.4211 -1.2842
16444TIP3   OH270822   3.293   1.211  13.700  0.2554  0.0652 -0.3082
16444TIP3    H170823   3.382   1.233  13.673  0.6985  0.8253  1.5936
16444TIP3    H270824   3.304   1.168  13.785 -1.2469  1.5920  0.7324
16445TIP3   OH270825   3.877   4.573  14.573  0.2716 -0.0023  0.1024
16445TIP3    H170826   3.814   4.527  14.518 -0.3268  1.4766 -0.5102
16445TIP3    H270827   3.898   4.652  14.523  0.4972  0.8766  1.5477
16446TIP3   OH270828   4.982   5.802   3.236 -0.4897 -0.2410  0.1142
16446TIP3    H170829   5.050   5.743   3.267 -1.4116 -1.4219 -0.0369
16446TIP3    H270830   5.019   5.843   3.158  0.3920 -0.1394  0.5823
16447TIP3   OH270831   3.520   2.993   6.294  0.4094  0.4391 -1.3467
16447TIP3    H170832   3.584   2.971   6.362 -0.2974 -0.0938 -0.8263
16447TIP3    H270833   3.523   3.088   6.289 -1.8104  0.8600  1.8461
16448TIP3   OH270834   5.432   1.951  14.706 -0.0083  1.0572 -0.0354
16448TIP3    H170835   5.413   1.938  14.799 -0.9371 -0.5659 -0.4082
16448TIP3    H270836   5.507   1.893  14.688  0.5380  1.7975 -0.1836
16449TIP3   OH270837   2.378   1.087  12.044 -0.3298  0.4745  0.7001
16449TIP3    H170838   2.440   1.105  12.115  1.4026  0.2202 -0.6809
16449TIP3    H270839   2.312   1.156  12.052  1.3138  2.1079  0.9131
16450TIP3   OH270840   4.287   0.668  15.482  0.0168 -0.4722 -0.1781
16450TIP3    H170841   4.216   0.722  15.447  0.5834 -0.8815 -2.0917
16450TIP3    H270842   4.343   0.651  15.406  0.7892 -2.2828  0.7469
16451TIP3   OH270843   5.717   0.229   0.192 -0.1519  0.1353  0.0799
16451TIP3    H170844   5.728   0.143   0.232 -0.8171  0.0264  0.0330
16451TIP3    H270845   5.684   0.284   0.263 -1.9128 -0.2013 -0.4429
16452TIP3   OH270846   4.164   6.282  12.793  0.2857  0.8882 -0.6736
16452TIP3    H170847   4.079   6.315  12.824  0.0879 -0.0814 -0.1236
16452TIP3    H270848   4.153   6.272  12.699 -0.8772 -0.9497 -0.4049
16453TIP3   OH270849   6.102   3.789   6.055 -0.1176 -0.4130 -0.1881
16453TIP3    H170850   6.174   3.759   6.000 -0.2633  1.4994 -1.4998
16453TIP3    H270851   6.028   3.796   5.995 -0.4454  1.1165  0.3609
16454TIP3   OH270852   6.717   4.504   6.652  0.3790  0.8328  0.3885
16454TIP3    H170853   6.621   4.511   6.655  0.0125 -1.8620 -1.4208
16454TIP3    H270854   6.741   4.535   6.565  0.7802 -0.8485 -0.1522
16455TIP3   OH270855   0.143   6.029   1.122 -0.3263  0.3624 -0.0583
16455TIP3    H170856   0.212   6.083   1.161 -0.0421  0.4244 -0.6261
16455TIP3    H270857   0.141   6.056   1.030  0.0537 -0.8188 -0.4335
16456TIP3   OH270858   6.214   4.090   2.778 -0.3474 -0.0131 -0.1150
16456TIP3    H170859   6.195   4.172   2.732 -0.0237  0.7698  1.1007
16456TIP3    H270860   6.164   4.097   2.859 -1.3901 -1.6402 -0.5734
16457TIP3   OH270861   1.489   5.544  15.813  0.2352 -0.3960 -0.1210
16457TIP3    H170862   1.584   5.549  15.804  0.4276 -2.6218 -0.0797
16457TIP3    H270863   1.459   5.508  15.729 -0.1030 -3.0710  1.0316
16458TIP3   OH270864   2.347   2.502   1.858 -0.6915 -0.2289  0.2655
16458TIP3    H170865   2.314   2.477   1.771  1.4987  0.9093 -0.9747
16458TIP3    H270866   2.353   2.597   1.855 -2.2995  0.0085  2.3871
16459TIP3   OH270867   5.522   4.106   5.736  0.2063  0.9193 -0.4882
16459TIP3    H170868   5.563   4.179   5.782 -1.5122  1.4916  0.2373
16459TIP3    H270869   5.433   4.102   5.772  0.4267 -1.9716 -0.0083
16460TIP3   OH270870   6.330   6.600  13.493 -0.1394  0.8349  0.0129
16460TIP3    H170871   6.404   6.569  13.544 -1.1239  0.0169  0.9897
16460TIP3    H270872   6.334   6.696  13.501  0.5004  0.7752  0.4951
16461TIP3   OH270873   5.337   4.992  14.840  0.1591  0.3666  0.3199
16461TIP3    H170874   5.345   4.900  14.818  0.5542  0.5166 -0.1904
16461TIP3    H270875   5.267   5.024  14.783  1.2473  0.7770 -0.8445
16462TIP3   OH270876   6.556   4.741   3.702  0.0057 -0.1508  0.4357
16462TIP3    H170877   6.483   4.756   3.642 -0.1323  0.0223  0.6446
16462TIP3    H270878   6.634   4.755   3.649 -0.1024 -0.8982  0.0637
16463TIP3   OH270879   0.192   0.216   6.357 -0.3879 -0.7203 -0.0732
16463TIP3    H170880   0.269   0.177   6.317  0.5788  1.1608 -0.1745
16463TIP3    H270881   0.223   0.250   6.441 -0.5231  1.8234 -0.9545
16464TIP3   OH270882   5.177   6.575  15.440  0.1349  0.2536 -0.9021
16464TIP3    H170883   5.205   6.612  15.357  0.9905 -0.5629 -0.9890
16464TIP3    H270884   5.083   6.559  15.428 -0.3696  2.6960 -0.7165
16465TIP3   OH270885   6.000   3.200  15.927  0.5195  0.2631  0.5204
16465TIP3    H170886   5.977   3.271  15.868  0.3465  0.5925  0.9778
16465TIP3    H270887   5.921   3.183  15.977  0.2210 -0.9968 -0.3257
16466TIP3   OH270888   6.582   4.946  15.012  0.7999 -0.1113  0.4710
16466TIP3    H170889   6.572   5.040  14.998  2.2065 -0.1206 -0.9454
16466TIP3    H270890   6.517   4.907  14.954 -0.7936 -0.0387  2.1336
16467TIP3   OH270891   5.161   1.069  12.748 -0.4493 -0.7177 -0.2275
16467TIP3    H170892   5.077   1.108  12.773  0.6366  0.2716  2.2448
16467TIP3    H270893   5.156   0.979  12.782  0.4819  0.2036  2.6872
16468TIP3   OH270894   1.990   4.213  15.130 -0.1489  0.1424  0.4129
16468TIP3    H170895   1.900   4.198  15.100  0.0468  0.6636 -0.4434
16468TIP3    H270896   2.025   4.125  15.144 -0.3473 -0.1155 -0.6057
16469TIP3   OH270897   4.952   3.656  11.065 -0.0244 -0.2112 -1.1388
16469TIP3    H170898   4.998   3.572  11.058 -0.5458 -0.7710  1.2429
16469TIP3    H270899   5.006   3.708  11.124 -0.6034  0.4738 -1.2010
16470TIP3   OH270900   5.133   2.806   6.027  0.5587 -0.4021 -0.0372
16470TIP3    H170901   5.041   2.785   6.015 -0.1208  1.6770  0.9901
16470TIP3    H270902   5.164   2.831   5.940 -0.6127  1.4485  0.0275
16471TIP3   OH270903   6.325   4.420   4.489 -0.4925 -0.0730  0.0414
16471TIP3    H170904   6.343   4.513   4.500 -3.2225  0.4619  0.5421
16471TIP3    H270905   6.250   4.416   4.430 -0.4424 -1.9714  0.0232
16472TIP3   OH270906   5.316   4.156  14.368  0.7292 -0.6696  0.5535
16472TIP3    H170907   5.275   4.202  14.441  1.5802  1.0897 -0.0429
16472TIP3    H270908   5.253   4.164  14.296  0.7987 -0.6329  0.4979
16473TIP3   OH270909   5.821   4.188  13.929 -0.1926  1.0586  0.6121
16473TIP3    H170910   5.811   4.094  13.913  1.1195  1.2121 -1.4274
16473TIP3    H270911   5.893   4.194  13.991 -0.0484  0.7390  0.4782
16474TIP3   OH270912   1.353   0.724   3.508 -0.1742  0.0939  0.3113
16474TIP3    H170913   1.447   0.742   3.504  0.2421 -1.3874  2.3066
16474TIP3    H270914   1.317   0.798   3.555  0.0153  0.5119 -0.1832
16475TIP3   OH270915   5.641   0.375  16.806  0.3709  0.6944 -0.6182
16475TIP3    H170916   5.733   0.347  16.806  0.5258  0.7282  3.1667
16475TIP3    H270917   5.645   0.468  16.827 -0.5265  0.5670  0.1543
16476TIP3   OH270918   3.616   5.606   6.401 -0.0915  0.4539  0.4117
16476TIP3    H170919   3.643   5.585   6.312 -1.4368  0.6519 -0.0641
16476TIP3    H270920   3.642   5.698   6.413 -1.0009  0.8163 -0.2432
16477TIP3   OH270921   5.226   4.235  13.529  0.4354  0.7806 -0.4353
16477TIP3    H170922   5.146   4.190  13.502  0.0756  1.3905 -0.3877
16477TIP3    H270923   5.199   4.294  13.600  0.7081  1.8200 -1.1724
16478TIP3   OH270924   4.691   2.813   5.524 -0.5132  0.3428 -0.0215
16478TIP3    H170925   4.685   2.775   5.436  1.1946 -0.1093  0.0196
16478TIP3    H270926   4.630   2.887   5.522 -2.0506 -0.8774 -0.8989
16479TIP3   OH270927   4.828   2.940  15.161  0.0236  0.0387  0.1345
16479TIP3    H170928   4.876   2.938  15.244  0.6967  1.0696 -0.2068
16479TIP3    H270929   4.892   2.972  15.098 -1.0522  1.2436 -0.3815
16480TIP3   OH270930   4.065   1.957   0.598 -0.2514 -0.0929  0.3357
16480TIP3    H170931   3.985   1.913   0.570 -0.3496  0.5136 -0.3723
16480TIP3    H270932   4.058   1.962   0.694 -1.0582 -0.0513  0.2793
16481TIP3   OH270933   2.040   4.999   4.744 -0.1303  0.5486 -0.6473
16481TIP3    H170934   2.021   5.010   4.837  0.0147  2.1209 -0.7784
16481TIP3    H270935   1.988   4.922   4.718 -0.8406  0.6070  0.5315
16482TIP3   OH270936   2.406   0.409  11.887 -0.2255 -0.2748 -0.1196
16482TIP3    H170937   2.366   0.332  11.848  1.3356 -2.5248  2.3527
16482TIP3    H270938   2.500   0.391  11.886  0.0054 -0.2896  3.8163
16483TIP3   OH270939   0.460   0.146   1.342  0.1888 -0.6289 -0.2347
16483TIP3    H170940   0.524   0.128   1.411  0.9317  0.6122 -0.5700
16483TIP3    H270941   0.495   0.221   1.295 -1.9965  0.7682  0.2115
16484TIP3   OH270942   1.090   1.137   5.432 -0.5834  0.5459  0.2572
16484TIP3    H170943   1.104   1.057   5.483  0.1776  0.7466  0.3837
16484TIP3    H270944   0.995   1.146   5.426 -0.7242  0.8623  2.1989
16485TIP3   OH270945   5.774   6.803   4.919 -0.1753 -0.6664  0.7494
16485TIP3    H170946   5.680   6.798   4.901  0.2422 -1.9302 -1.5382
16485TIP3    H270947   5.800   6.712   4.934  0.8531 -0.4696  0.2164
16486TIP3   OH270948   5.663   1.159   1.710 -0.1351  0.2800 -0.1349
16486TIP3    H170949   5.739   1.145   1.654 -1.0079 -0.1121 -1.2730
16486TIP3    H270950   5.623   1.239   1.675 -0.5665  0.1562  0.0648
16487TIP3   OH270951   4.731   5.843   4.301 -0.3412 -0.0415 -0.2678
16487TIP3    H170952   4.734   5.840   4.396  3.0219 -0.7543 -0.2765
16487TIP3    H270953   4.746   5.935   4.279  2.0465 -0.3227 -0.0398
16488TIP3   OH270954   5.221   0.778   5.879  0.2369  0.0071 -0.1869
16488TIP3    H170955   5.296   0.789   5.937  0.9457  0.2735 -1.1354
16488TIP3    H270956   5.222   0.685   5.856 -0.4886 -0.2626  0.7901
16489TIP3   OH270957   2.906   2.497  12.183 -0.1374 -0.4570 -0.4850
16489TIP3    H170958   2.980   2.474  12.239 -0.1020 -1.0732 -0.7729
16489TIP3    H270959   2.938   2.570  12.129  0.0730 -0.3502 -0.2163
16490TIP3   OH270960   1.353   2.890   4.514  0.0403  0.6437  0.0824
16490TIP3    H170961   1.361   2.895   4.609  1.8557 -0.1510  0.0144
16490TIP3    H270962   1.352   2.797   4.495 -2.1743  0.7450 -0.6037
16491TIP3   OH270963   2.969   1.685  14.925  0.2539 -0.3395 -0.7838
16491TIP3    H170964   2.944   1.741  14.851  0.1296  0.6147 -0.0333
16491TIP3    H270965   2.970   1.744  15.001 -0.2020 -1.4189  0.0872
16492TIP3   OH270966   3.680   5.733   5.611  0.0192 -0.1056 -0.2749
16492TIP3    H170967   3.729   5.803   5.568  0.8160 -0.0455  0.6895
16492TIP3    H270968   3.654   5.770   5.696 -0.9956 -0.4242 -0.4255
16493TIP3   OH270969   1.063   5.033   4.140 -0.2022 -0.0734 -0.1686
16493TIP3    H170970   1.008   5.051   4.216 -1.2163 -1.4715 -0.5238
16493TIP3    H270971   1.002   4.996   4.075  1.2620 -2.4781 -0.2767
16494TIP3   OH270972   6.227   1.817   3.531  0.4081 -0.4462  0.4019
16494TIP3    H170973   6.166   1.745   3.547  2.1258 -1.9860  0.3704
16494TIP3    H270974   6.217   1.873   3.608  0.5288 -1.8553  1.4966
16495TIP3   OH270975   2.064   3.865   4.776 -0.1203  0.2135 -0.0558
16495TIP3    H170976   1.986   3.824   4.814 -0.2770  0.7065  0.1726
16495TIP3    H270977   2.071   3.949   4.822  0.0187  0.5710 -0.7184
16496TIP3   OH270978   1.248   0.405  10.277  0.1402  0.2752 -0.7000
16496TIP3    H170979   1.172   0.394  10.220 -0.0082 -0.9963 -0.2846
16496TIP3    H270980   1.211   0.424  10.363  0.1227 -2.8028  0.0802
16497TIP3   OH270981   1.722   5.893   5.978 -0.5751  0.1396  0.5424
16497TIP3    H170982   1.767   5.969   5.940  2.5093 -1.4323  0.7202
16497TIP3    H270983   1.726   5.907   6.072  0.1114 -0.2496  0.5811
16498TIP3   OH270984   2.226   5.819   2.552 -0.4870  0.0522 -0.3710
16498TIP3    H170985   2.263   5.875   2.483  0.8110  0.0082  0.2630
16498TIP3    H270986   2.214   5.734   2.509  3.4839 -1.0042  0.1639
16499TIP3   OH270987   4.477   2.277   4.524 -0.0231 -0.3605 -0.0221
16499TIP3    H170988   4.397   2.266   4.473  0.6859 -0.3474 -1.1765
16499TIP3    H270989   4.546   2.288   4.458  0.7201  1.1714  0.9523
16500TIP3   OH270990   5.330   2.868  14.402  0.1025 -0.1267  0.1371
16500TIP3    H170991   5.290   2.830  14.324 -0.9804  2.6490 -0.8013
16500TIP3    H270992   5.302   2.811  14.474 -0.6027 -1.5960 -1.2418
16501TIP3   OH270993   4.324   6.514   0.647  0.4370 -0.2476 -0.0143
16501TIP3    H170994   4.409   6.482   0.675  0.6170 -0.6717 -0.9997
16501TIP3    H270995   4.264   6.441   0.664 -0.0843  0.6095  2.2209
16502TIP3   OH270996   3.091   2.938   2.067  0.3243 -0.1553 -0.2119
16502TIP3    H170997   2.996   2.944   2.065  0.4186  4.0777 -1.3426
16502TIP3    H270998   3.110   2.875   2.137 -3.2187 -1.4632 -0.2439
16503TIP3   OH270999   0.306   3.334   2.867 -0.1703  0.1202 -0.1038
16503TIP3    H171000   0.302   3.420   2.909  0.9792 -0.2852  0.8926
16503TIP3    H271001   0.285   3.351   2.775 -0.8629  1.3152  0.2617
16504TIP3   OH271002   5.713   3.162   4.619  0.5675  0.7987  0.0666
16504TIP3    H171003   5.682   3.207   4.697 -0.2089 -0.5400  0.5595
16504TIP3    H271004   5.648   3.093   4.603 -0.0807  1.8712 -2.5748
16505TIP3   OH271005   3.502   5.500  12.824  0.0973 -0.1721 -0.4243
16505TIP3    H171006   3.594   5.483  12.843 -0.2270 -0.0369  1.4562
16505TIP3    H271007   3.481   5.442  12.751  1.3202 -1.1942  0.0048
16506TIP3   OH271008   1.703   5.986   3.962 -0.2617  0.0998  0.2926
16506TIP3    H171009   1.786   5.938   3.966  0.4110  1.3312  2.8566
16506TIP3    H271010   1.639   5.927   4.002 -0.3225 -0.2448 -0.2996
16507TIP3   OH271011   2.733   1.521  17.143 -0.2357 -0.2598 -0.2892
16507TIP3    H171012   2.762   1.597  17.193  1.7637 -0.2662 -1.3592
16507TIP3    H271013   2.672   1.557  17.078 -2.3715 -0.1727  1.6425
16508TIP3   OH271014   2.127   3.342  15.783  0.4671 -0.3816 -0.2716
16508TIP3    H171015   2.111   3.326  15.876  0.4269 -0.6199 -0.3205
16508TIP3    H271016   2.056   3.297  15.738  0.2899  0.0228 -0.4040
16509TIP3   OH271017   4.489   2.974   0.211  0.1669  0.0306  0.0132
16509TIP3    H171018   4.487   3.070   0.217  1.4628  0.0834 -0.1541
16509TIP3    H271019   4.578   2.954   0.185 -0.1349 -1.2295 -0.0883
16510TIP3   OH271020   3.434   1.344   4.462 -0.0671 -0.0979 -0.0255
16510TIP3    H171021   3.371   1.329   4.532  0.1191 -0.5896  0.0417
16510TIP3    H271022   3.475   1.258   4.448  2.0251  0.5775  1.3468
16511TIP3   OH271023   2.617   2.253  11.702  0.4447 -0.2243  0.2171
16511TIP3    H171024   2.680   2.315  11.666  0.4602 -0.3796 -0.0230
16511TIP3    H271025   2.664   2.169  11.704  0.3669 -0.2645  0.3791
16512TIP3   OH271026   3.605   4.546   5.043  0.1094 -0.3357  0.1046
16512TIP3    H171027   3.672   4.590   4.991 -0.7863  0.3679 -0.4926
16512TIP3    H271028   3.651   4.474   5.087  0.8521 -1.1815 -1.9171
16513TIP3   OH271029   4.642   1.514   3.743  0.7176  0.2997  0.4225
16513TIP3    H171030   4.661   1.605   3.719  0.5312  0.3045  0.2837
16513TIP3    H271031   4.639   1.467   3.659 -1.7052  0.6575  0.2200
16514TIP3   OH271032   3.690   5.647  15.667  0.2610 -0.4077 -0.0489
16514TIP3    H171033   3.722   5.568  15.624 -1.1270 -0.0615 -1.8211
16514TIP3    H271034   3.769   5.699  15.684  0.8918  0.7232 -4.8463
16515TIP3   OH271035   1.009   6.440   5.337 -0.7518  0.0702 -0.3000
16515TIP3    H171036   1.047   6.486   5.411  1.2310  0.2776 -1.3788
16515TIP3    H271037   1.007   6.505   5.267 -2.8269 -0.0472 -0.4216
16516TIP3   OH271038   2.691   3.089  15.656  0.1133  0.2048  0.3280
16516TIP3    H171039   2.679   3.093  15.562 -0.3011  0.0037  0.3724
16516TIP3    H271040   2.782   3.062  15.667  0.4213  1.0542 -0.0059
16517TIP3   OH271041   5.539   3.762  16.361  0.4299  0.1758  0.4330
16517TIP3    H171042   5.565   3.809  16.440 -1.2809 -0.7684  1.6356
16517TIP3    H271043   5.451   3.794  16.342  0.3880 -0.4295 -0.4544
16518TIP3   OH271044   3.805   6.569  16.495 -0.2810 -0.2755 -0.0052
16518TIP3    H171045   3.883   6.539  16.448 -0.2332 -1.4726  0.8133
16518TIP3    H271046   3.837   6.592  16.582 -0.8559 -0.9146  0.3832
16519TIP3   OH271047   4.938   4.149   5.010  0.5720  0.4844  0.6210
16519TIP3    H171048   4.972   4.221   4.957 -0.5876  0.5598 -0.0700
16519TIP3    H271049   4.849   4.178   5.034  0.6154 -0.1093  1.5288
16520TIP3   OH271050   0.125   6.218   2.838  0.3909  0.5253  0.6433
16520TIP3    H171051   0.040   6.216   2.794  0.3999  1.8576  0.5220
16520TIP3    H271052   0.183   6.169   2.780 -0.4784 -1.2524  1.2022
16521TIP3   OH271053   1.936   1.077  14.514  0.0357 -0.3619  0.7968
16521TIP3    H171054   1.859   1.092  14.460  1.4552  1.0345 -0.9811
16521TIP3    H271055   1.982   1.005  14.472  0.5313 -0.0769  0.8327
16522TIP3   OH271056   4.120   5.122  14.158 -0.0922  0.0916  0.3432
16522TIP3    H171057   4.129   5.127  14.063  0.8000  1.7805  0.4841
16522TIP3    H271058   4.205   5.150  14.192 -1.0930  1.7159  1.6468
16523TIP3   OH271059   4.224   5.700  16.999 -0.2355 -0.4624  0.6203
16523TIP3    H171060   4.298   5.715  16.941 -2.0699  1.6160 -1.4058
16523TIP3    H271061   4.193   5.612  16.976 -0.5731  0.0984 -1.2172
16524TIP3   OH271062   1.966   0.091   3.622  0.8313  0.5427 -0.0295
16524TIP3    H171063   2.032   0.055   3.562 -0.1653  0.3379 -1.0415
16524TIP3    H271064   1.922   0.014   3.657 -0.1929  0.7033 -0.9139
16525TIP3   OH271065   1.757   2.170  11.962 -0.4075  0.1705  0.4704
16525TIP3    H171066   1.733   2.230  12.034 -0.8568 -0.4680  0.8615
16525TIP3    H271067   1.813   2.223  11.905 -0.4105  0.8270  1.0558
16526TIP3   OH271068   0.715   2.732   0.943  0.5293 -0.2902 -0.1916
16526TIP3    H171069   0.650   2.800   0.927 -0.3667 -0.6956  1.4644
16526TIP3    H271070   0.669   2.650   0.924  1.7024 -0.4967 -2.5129
16527TIP3   OH271071   3.359   4.654   4.651 -0.1860 -0.0366 -1.0410
16527TIP3    H171072   3.289   4.590   4.642  0.1980 -0.2099 -3.0725
16527TIP3    H271073   3.336   4.724   4.589  0.5203  0.7636 -0.4285
16528TIP3   OH271074   3.610   5.626  17.206 -0.7065 -0.1353 -0.0408
16528TIP3    H171075   3.601   5.713  17.245  1.3339 -0.7106  1.9287
16528TIP3    H271076   3.703   5.620  17.184 -1.1010 -1.3038 -1.5354
16529TIP3   OH271077   1.980   2.440  16.170 -0.8439 -0.4099  0.9530
16529TIP3    H171078   2.068   2.402  16.170 -0.5021  0.3668  1.2281
16529TIP3    H271079   1.956   2.444  16.077  0.2464  1.2460  0.7037
16530TIP3   OH271080   1.353   5.598  13.700  0.4954 -0.1289  0.7330
16530TIP3    H171081   1.292   5.670  13.717  1.2044  1.0517 -1.3613
16530TIP3    H271082   1.440   5.636  13.714  0.8571 -1.2396  1.7426
16531TIP3   OH271083   0.708   4.851  16.938  0.0772 -0.8049 -0.0818
16531TIP3    H171084   0.669   4.920  16.992  0.0576 -0.0996 -0.9756
16531TIP3    H271085   0.634   4.796  16.912  0.4841 -4.0551  4.4062
16532TIP3   OH271086   2.940   0.571  10.594  0.3264  0.1835 -0.2035
16532TIP3    H171087   2.995   0.641  10.629 -0.8270  1.3252 -0.5869
16532TIP3    H271088   2.884   0.615  10.529 -0.6121 -1.0428 -0.2548
16533TIP3   OH271089   3.085   6.278   5.637  0.2885  0.1998  0.0547
16533TIP3    H171090   3.078   6.370   5.610 -0.6941 -0.1865 -1.0921
16533TIP3    H271091   3.029   6.231   5.576  1.0169 -1.2151  0.4400
16534TIP3   OH271092   5.001   0.841   1.079  0.4877 -0.5468  0.4978
16534TIP3    H171093   5.058   0.806   1.147  1.3497  0.8790  0.5416
16534TIP3    H271094   4.913   0.811   1.103  1.0703 -1.9514  0.9615
16535TIP3   OH271095   6.072   3.343   2.385  0.0940 -0.2889 -0.3335
16535TIP3    H171096   6.113   3.338   2.299  1.4608 -1.0812  0.3387
16535TIP3    H271097   6.033   3.257   2.398 -0.1807 -0.1435 -0.1819
16536TIP3   OH271098   3.711   0.001  13.524 -0.3268  0.3805 -0.2204
16536TIP3    H171099   3.804  -0.008  13.503 -0.4009  0.8619 -0.7811
16536TIP3    H271100   3.709   0.025  13.617  0.2014  2.1000 -0.6261
16537TIP3   OH271101   3.984   4.517   5.713  0.2566 -0.0681  0.0703
16537TIP3    H171102   4.077   4.532   5.692  0.0184  0.3853 -0.7120
16537TIP3    H271103   3.943   4.603   5.702 -0.1291 -0.0967  1.1646
16538TIP3   OH271104   2.072   3.370   2.172  0.5365  0.3894  0.3703
16538TIP3    H171105   1.983   3.389   2.202  0.1508 -0.8629  0.0725
16538TIP3    H271106   2.128   3.390   2.247 -0.2417 -1.0793  1.3694
16539TIP3   OH271107   3.883   5.500  13.546  0.3161 -0.1997 -0.4615
16539TIP3    H171108   3.901   5.537  13.632 -2.5338  1.1453 -0.3416
16539TIP3    H271109   3.822   5.428  13.563 -0.4519  0.2255 -1.3367
16540TIP3   OH271110   2.694   4.305   1.564  0.3982  0.2323 -0.0075
16540TIP3    H171111   2.747   4.370   1.610 -0.1015 -0.3546  1.4631
16540TIP3    H271112   2.643   4.262   1.633  0.1067 -1.1565 -1.0392
16541TIP3   OH271113   2.059   0.302   1.067  0.4601 -0.3153  0.0981
16541TIP3    H171114   2.138   0.355   1.080  0.4528 -0.4871  0.8546
16541TIP3    H271115   1.987   0.359   1.092  0.3292 -0.1488 -0.6198
16542TIP3   OH271116   2.327   1.580   4.501  0.8066  0.0722  0.8068
16542TIP3    H171117   2.381   1.658   4.488  0.2574  0.6540  1.9130
16542TIP3    H271118   2.241   1.614   4.527 -0.4081 -0.7957 -1.7216
16543TIP3   OH271119   1.441   5.107   0.768 -0.1762 -0.6803 -0.0769
16543TIP3    H171120   1.411   5.055   0.693  0.1561 -1.3119  0.2215
16543TIP3    H271121   1.402   5.065   0.844 -0.4997 -0.0497  0.1125
16544TIP3   OH271122   1.687   3.601  14.522 -0.0532 -0.0436 -0.0773
16544TIP3    H171123   1.653   3.690  14.532  2.1174  1.3759 -3.5926
16544TIP3    H271124   1.757   3.595  14.587 -1.3192  0.0885  1.3653
16545TIP3   OH271125   4.078   5.704  14.921 -0.0295  0.1779 -0.1072
16545TIP3    H171126   4.068   5.774  14.856 -1.1151  1.1084  1.0058
16545TIP3    H271127   4.157   5.727  14.969 -0.8941  1.2041  0.8736
16546TIP3   OH271128   0.025   5.016   1.836  0.2195  0.8225 -0.0121
16546TIP3    H171129   0.098   4.958   1.815 -2.0741 -1.8832 -1.1819
16546TIP3    H271130  -0.008   5.046   1.751 -0.5027  1.3915  0.4514
16547TIP3   OH271131   4.855   0.627  13.115  0.3576  0.5913  0.7105
16547TIP3    H171132   4.771   0.593  13.146  0.5112  0.2354  0.7354
16547TIP3    H271133   4.851   0.616  13.020  0.1118  1.1775  0.6473
16548TIP3   OH271134   3.098   4.769  12.818 -0.4735  0.0982 -0.2247
16548TIP3    H171135   3.008   4.762  12.786  0.3675 -1.7486 -2.5432
16548TIP3    H271136   3.127   4.855  12.789 -0.9779  0.0043 -1.0574
16549TIP3   OH271137   6.442   0.409   0.023 -0.9363  0.1818 -0.2444
16549TIP3    H171138   6.389   0.341   0.065  0.7730 -1.4848 -0.6344
16549TIP3    H271139   6.458   0.376  -0.065  1.2404  0.2860  0.0520
16550TIP3   OH271140   4.624   0.756   1.187 -0.2128 -0.4303 -0.2489
16550TIP3    H171141   4.616   0.794   1.100  1.4685 -0.5294 -0.4830
16550TIP3    H271142   4.564   0.806   1.241 -1.7732 -0.7816 -1.5741
16551TIP3   OH271143   5.238   2.398  16.315  0.4873 -0.2925 -0.2402
16551TIP3    H171144   5.171   2.418  16.250 -0.5840  0.4572  1.0374
16551TIP3    H271145   5.275   2.484  16.337  0.3206 -0.4458  0.6623
16552TIP3   OH271146   1.268   6.480  11.780 -0.1647  0.1585 -0.4188
16552TIP3    H171147   1.319   6.404  11.810 -0.5068  0.8966  2.2511
16552TIP3    H271148   1.194   6.485  11.840 -1.1007  1.6059 -1.6283
16553TIP3   OH271149   5.681   5.084   6.269  0.0551 -0.3149 -0.0794
16553TIP3    H171150   5.605   5.025   6.265  0.3290 -0.6715 -0.0842
16553TIP3    H271151   5.687   5.121   6.181 -0.0886 -0.3169 -0.0909
16554TIP3   OH271152   2.262   5.279  16.114 -0.3003 -0.3185 -0.0381
16554TIP3    H171153   2.216   5.195  16.122  1.3868 -1.4640 -1.4718
16554TIP3    H271154   2.301   5.276  16.026  2.3907  0.5757  1.0188
16555TIP3   OH271155   3.582   4.272   0.390 -0.2388 -0.0419 -0.4506
16555TIP3    H171156   3.673   4.284   0.419 -0.5966 -0.8973  1.1423
16555TIP3    H271157   3.538   4.352   0.417 -0.7652 -1.1656  2.4081
16556TIP3   OH271158   1.810   3.022  11.425  0.0595  0.2593 -0.0795
16556TIP3    H171159   1.852   3.105  11.401 -0.8518  0.5040 -0.8475
16556TIP3    H271160   1.851   2.957  11.368 -0.2115  0.4037 -0.4363
16557TIP3   OH271161   3.114   0.212   3.005 -0.3831 -0.1034 -0.2475
16557TIP3    H171162   3.104   0.127   3.049  1.1116 -0.3553 -0.3553
16557TIP3    H271163   3.118   0.190   2.912  1.3584 -0.0919 -0.2118
16558TIP3   OH271164   2.566   0.163   2.893  0.3370 -0.4716 -0.0584
16558TIP3    H171165   2.502   0.114   2.842  0.3548  0.1442 -0.6712
16558TIP3    H271166   2.650   0.121   2.874  0.3725 -0.1261 -0.6980
16559TIP3   OH271167   3.594   2.240   1.083  0.3577  0.1626 -0.3527
16559TIP3    H171168   3.668   2.184   1.060 -0.1149 -0.7550  0.3123
16559TIP3    H271169   3.517   2.187   1.064 -0.0874  0.1670  1.2936
16560TIP3   OH271170   0.454   2.437   5.081  0.5260  0.0990 -0.9404
16560TIP3    H171171   0.386   2.461   5.143 -0.6342 -1.7529 -1.4093
16560TIP3    H271172   0.409   2.385   5.014  2.1257  0.1334 -2.1234
16561TIP3   OH271173   2.721   4.615  13.747  0.3584 -0.3316 -0.1523
16561TIP3    H171174   2.628   4.595  13.738 -0.4772  2.0653  1.8387
16561TIP3    H271175   2.749   4.641  13.659 -1.0783 -0.2880 -0.6180
16562TIP3   OH271176   4.239   2.962   4.463  0.1967  0.7067  0.1541
16562TIP3    H171177   4.304   2.913   4.413  0.1837  0.9822 -0.1324
16562TIP3    H271178   4.249   3.053   4.434  1.3081  1.1741  1.8270
16563TIP3   OH271179   5.207   4.203  15.659  0.0865 -0.2289  0.6010
16563TIP3    H171180   5.125   4.219  15.707  0.6913  2.1022  0.9830
16563TIP3    H271181   5.261   4.153  15.720 -0.7220 -1.0557  0.6627
16564TIP3   OH271182   0.571   1.799  15.405  0.0996  0.2520  0.5817
16564TIP3    H171183   0.498   1.854  15.432  0.1108  0.2287  0.6581
16564TIP3    H271184   0.535   1.710  15.406 -0.7632  0.4697 -2.2170
16565TIP3   OH271185   5.880   2.921  13.833 -0.4378  0.6123  0.0408
16565TIP3    H171186   5.835   2.982  13.775 -1.8622  1.5098  1.9758
16565TIP3    H271187   5.813   2.859  13.859  0.5302 -0.6399 -0.3529
16566TIP3   OH271188   5.010   0.712  15.254 -0.2739 -0.3925  0.3272
16566TIP3    H171189   4.960   0.794  15.252  0.5947  0.1728 -1.9014
16566TIP3    H271190   5.084   0.730  15.312  0.4331  0.7761 -0.8843
16567TIP3   OH271191   3.320   0.653  13.037 -0.6269  0.2073  0.7741
16567TIP3    H171192   3.351   0.624  13.123 -1.6768  1.2062  1.5231
16567TIP3    H271193   3.256   0.722  13.057 -1.8090 -0.3868 -0.7603
16568TIP3   OH271194   2.780   5.760  10.868  0.8506  0.1988 -0.4372
16568TIP3    H171195   2.825   5.779  10.786  1.4164 -2.0732 -0.7154
16568TIP3    H271196   2.702   5.815  10.866  0.5619 -0.1932 -2.7852
16569TIP3   OH271197   5.883   4.568  16.430 -0.0079 -0.1530 -0.6144
16569TIP3    H171198   5.791   4.543  16.438  0.0218  0.3435  2.3680
16569TIP3    H271199   5.931   4.486  16.430 -0.3894 -0.3783 -0.7540
16570TIP3   OH271200   0.065   6.125  15.773 -0.1225  0.4595 -0.1588
16570TIP3    H171201   0.036   6.127  15.865  0.1098  1.1349 -0.0935
16570TIP3    H271202   0.059   6.033  15.748 -1.5381  0.4585  0.1039
16571TIP3   OH271203   5.000   4.397  12.117 -0.1785 -0.1755  0.2807
16571TIP3    H171204   4.956   4.314  12.134 -0.3819  0.1197  1.2844
16571TIP3    H271205   4.980   4.451  12.194  0.3181  0.6462 -0.1499
16572TIP3   OH271206   1.330   3.922  14.749  0.3368  0.2345  0.2760
16572TIP3    H171207   1.378   3.907  14.831 -1.6337  0.2425  1.4818
16572TIP3    H271208   1.324   3.836  14.709  1.2989  0.2267  0.1118
16573TIP3   OH271209   5.063   1.374  12.820 -0.4418  0.2499 -0.0394
16573TIP3    H171210   5.104   1.396  12.737  0.7046  0.4901  0.5717
16573TIP3    H271211   5.130   1.326  12.869  0.0741  2.7959  1.9719
16574TIP3   OH271212   2.320   1.493   2.326 -0.1645 -0.4122  0.6280
16574TIP3    H171213   2.414   1.510   2.328 -0.4456  1.4279  0.0698
16574TIP3    H271214   2.281   1.568   2.372 -1.3075 -1.7565  1.9706
16575TIP3   OH271215   2.490   1.380  16.186 -0.5546  0.2620  0.7718
16575TIP3    H171216   2.419   1.433  16.151  0.5611  2.2684  1.4305
16575TIP3    H271217   2.567   1.435  16.179  0.8335 -1.5866  0.7483
16576TIP3   OH271218   4.839   6.075   0.277  1.0874 -0.3844 -0.5319
16576TIP3    H171219   4.748   6.095   0.256  1.3268 -1.8296 -3.5150
16576TIP3    H271220   4.864   6.140   0.343 -1.6026  1.0636 -0.8204
16577TIP3   OH271221   4.041   4.033  15.720  0.2644  0.1195  0.2098
16577TIP3    H171222   4.060   4.066  15.632  0.1642 -1.7738 -0.5659
16577TIP3    H271223   4.109   3.967  15.736 -2.6220 -3.4289 -0.7340
16578TIP3   OH271224   3.439   0.707  13.313  0.2821 -0.1193  0.1396
16578TIP3    H171225   3.420   0.639  13.377  0.6513 -0.6089 -0.2644
16578TIP3    H271226   3.533   0.703  13.300  0.1226 -0.5793 -1.0362
16579TIP3   OH271227   3.970   1.843  15.590  0.0824 -0.3457 -0.0845
16579TIP3    H171228   3.987   1.795  15.671 -1.9487  1.0415  1.2616
16579TIP3    H271229   3.876   1.831  15.574  0.0012  1.2502 -0.9768
16580TIP3   OH271230   3.560   1.020   0.034  0.0420 -0.0070 -0.3532
16580TIP3    H171231   3.491   0.966   0.070  1.0117  0.1338  1.8896
16580TIP3    H271232   3.641   0.986   0.074  0.8065  2.2730  0.2111
16581TIP3   OH271233   6.433   4.569  15.013 -0.4675 -0.4032 -0.2813
16581TIP3    H171234   6.494   4.620  15.067  1.7280 -0.5629 -2.4667
16581TIP3    H271235   6.386   4.635  14.962 -0.4049 -0.3982 -0.3320
16582TIP3   OH271236   4.925   6.803  14.101  0.0015 -0.2609  0.2233
16582TIP3    H171237   4.954   6.781  14.013  1.1817  0.5093  0.4076
16582TIP3    H271238   4.943   6.897  14.110 -1.9736  0.1506  0.5815
16583TIP3   OH271239   3.410   5.287  11.346 -0.2329 -0.0228 -0.2523
16583TIP3    H171240   3.436   5.320  11.260 -0.0110 -0.4953 -0.3735
16583TIP3    H271241   3.318   5.312  11.356  0.1294  1.2888 -0.0080
16584TIP3   OH271242   6.093   3.530  13.383  0.0299  0.3817  0.3142
16584TIP3    H171243   6.007   3.490  13.399 -1.0037  2.6051  0.6368
16584TIP3    H271244   6.118   3.498  13.296  0.0085 -2.1291  1.1436
16585TIP3   OH271245   5.740   0.740  12.744  0.2956 -0.7565  0.4556
16585TIP3    H171246   5.797   0.751  12.820 -0.1259  1.0311  0.5429
16585TIP3    H271247   5.657   0.709  12.781  0.8114 -2.2512  0.4406
16586TIP3   OH271248   4.608   1.160  11.015  0.2716 -0.0172  0.1207
16586TIP3    H171249   4.654   1.196  10.939  0.7903 -0.5656  0.1636
16586TIP3    H271250   4.587   1.236  11.068  2.8566  0.1689  1.0444
16587TIP3   OH271251   3.150   1.973  14.678 -0.3209  0.6946  0.0233
16587TIP3    H171252   3.089   1.968  14.752  0.5587 -1.1727  0.6935
16587TIP3    H271253   3.210   1.900  14.692  2.3274  2.6497 -0.3783
16588TIP3   OH271254   5.214   4.801  15.442 -0.2702  0.3045  0.5403
16588TIP3    H171255   5.132   4.808  15.491 -0.4991 -2.7251  0.7632
16588TIP3    H271256   5.186   4.793  15.351 -0.0826  1.2676  0.3874
16589TIP3   OH271257   0.777   5.078   0.833 -0.4448  0.0937  0.5076
16589TIP3    H171258   0.706   5.069   0.770 -0.7927  0.8887  0.7745
16589TIP3    H271259   0.758   5.013   0.900  0.3665 -1.3356 -0.5784
16590TIP3   OH271260   0.019   0.410   0.101 -0.2495  0.5777 -0.0668
16590TIP3    H171261  -0.025   0.487   0.066 -0.4815  0.9788  1.0676
16590TIP3    H271262   0.092   0.395   0.041 -0.0996  1.7738 -0.2079
16591TIP3   OH271263   3.980   4.025  11.648  0.3942 -0.7663 -0.1200
16591TIP3    H171264   4.025   4.106  11.672  0.8454 -0.5609 -1.5657
16591TIP3    H271265   3.915   4.013  11.717 -0.9908  1.8708 -0.8398
16592TIP3   OH271266   6.144   3.751  11.656 -0.4446  0.1057  0.2530
16592TIP3    H171267   6.177   3.662  11.641  0.7175  0.6490 -0.6011
16592TIP3    H271268   6.072   3.761  11.593 -0.8154 -0.3498  0.6017
16593TIP3   OH271269   5.813   5.098  14.960  0.6268 -0.2111 -0.5506
16593TIP3    H171270   5.784   5.009  14.980 -0.9489 -0.0927 -2.0405
16593TIP3    H271271   5.731   5.149  14.956  1.3725  0.9921 -1.1372
16594TIP3   OH271272   1.193   3.539   2.786 -0.0996 -0.1244  0.2199
16594TIP3    H171273   1.228   3.450   2.782  2.4760  0.7151  2.1046
16594TIP3    H271274   1.135   3.539   2.863  0.1544 -0.0900  0.4112
16595TIP3   OH271275   1.467   1.338  12.574 -0.2383 -0.1979  0.0257
16595TIP3    H171276   1.489   1.407  12.511  0.4713  0.9542  1.4746
16595TIP3    H271277   1.545   1.331  12.629 -0.6432 -1.5631  0.4599
16596TIP3   OH271278   3.676   4.304  13.542  0.0374  0.1129  0.3102
16596TIP3    H171279   3.611   4.367  13.508 -0.2365 -0.7390 -0.8129
16596TIP3    H271280   3.626   4.247  13.600 -0.7309 -1.7302 -1.9989
16597TIP3   OH271281   2.694   2.076  10.543 -0.1059  0.0457 -0.2825
16597TIP3    H171282   2.749   2.132  10.597  0.8245 -0.2204 -0.9291
16597TIP3    H271283   2.755   2.032  10.483 -1.1909  1.3386 -2.4665
16598TIP3   OH271284   4.974   1.569  12.633  0.0977  0.1439  0.5540
16598TIP3    H171285   4.919   1.495  12.659 -2.2761  1.9881  1.1769
16598TIP3    H271286   4.988   1.618  12.714  0.3276  1.1695 -0.0878
16599TIP3   OH271287   5.013   6.139   1.968 -0.1824  0.3633 -0.4288
16599TIP3    H171288   5.101   6.175   1.978 -0.9167  2.2717 -0.4073
16599TIP3    H271289   4.982   6.125   2.057 -1.1046  2.9422 -0.2611
16600TIP3   OH271290   4.947   2.060   0.352 -0.4008 -0.5183  0.2038
16600TIP3    H171291   5.001   2.079   0.276 -1.2210  0.7598 -0.0940
16600TIP3    H271292   4.859   2.086   0.326 -0.6145  0.4736  1.7694
16601TIP3   OH271293   1.447   5.249  11.467 -0.4153 -0.4252  0.4245
16601TIP3    H171294   1.526   5.301  11.483 -1.1670  0.1368  2.6602
16601TIP3    H271295   1.446   5.236  11.372  1.0038  1.6972  0.0449
16602TIP3   OH271296   5.975   1.553  15.315 -0.4812  0.3701 -0.5038
16602TIP3    H171297   5.933   1.532  15.231 -0.4936 -0.3915 -0.3130
16602TIP3    H271298   6.045   1.487  15.324 -0.0954  0.8176 -0.2000
16603TIP3   OH271299   1.813   6.521  12.671 -0.9534  0.0742  0.1983
16603TIP3    H171300   1.790   6.564  12.753 -0.7826  2.6261 -0.9699
16603TIP3    H271301   1.883   6.576  12.635 -1.2385 -0.7815 -1.7949
16604TIP3   OH271302   5.279   5.740   0.000  0.7129 -0.0933 -0.0678
16604TIP3    H171303   5.240   5.808  -0.055  0.5719 -0.4520 -0.4173
16604TIP3    H271304   5.367   5.727  -0.035  0.4820 -0.6055 -0.4686
16605TIP3   OH271305   5.712   4.372   0.326  0.0026 -0.5473 -0.3385
16605TIP3    H171306   5.744   4.301   0.271  2.0790  0.4551 -0.5193
16605TIP3    H271307   5.685   4.441   0.264 -1.4161 -0.8931 -0.1493
16606TIP3   OH271308   5.893   0.816  15.907  0.3886 -0.3202  0.1809
16606TIP3    H171309   5.891   0.838  15.813  1.1815  0.8170  0.4116
16606TIP3    H271310   5.965   0.753  15.915  1.3159  0.7306  0.2427
16607TIP3   OH271311   4.192   3.225   2.140  0.7197 -0.1181  0.1009
16607TIP3    H171312   4.098   3.223   2.156  0.4895 -2.1802 -1.1186
16607TIP3    H271313   4.209   3.149   2.085  3.1111  0.2262  0.2285
16608TIP3   OH271314   1.343   4.900  14.990  0.4641 -0.4202 -0.6368
16608TIP3    H171315   1.396   4.826  14.962  2.0053  0.2080  0.4920
16608TIP3    H271316   1.397   4.977  14.971 -0.3779  0.3070 -0.1974
16609TIP3   OH271317   3.942   5.931  10.854 -0.6006  0.6781 -0.4953
16609TIP3    H171318   3.882   5.978  10.796  0.4785  1.8477 -0.7129
16609TIP3    H271319   3.986   5.868  10.797 -1.0301  0.3643 -0.4922
16610TIP3   OH271320   4.508   0.119   3.693  0.1005  0.6930 -0.3542
16610TIP3    H171321   4.534   0.150   3.780  1.1532  0.4027 -0.5556
16610TIP3    H271322   4.530   0.192   3.634 -1.2817  1.1794 -0.3024
16611TIP3   OH271323   3.527   2.809   6.083 -0.2138 -0.2601 -0.3391
16611TIP3    H171324   3.467   2.749   6.129  0.6518 -0.4180  0.6130
16611TIP3    H271325   3.562   2.864   6.152  0.1624  0.3450 -1.0067
16612TIP3   OH271326   0.548   6.396  16.771  0.3820  0.8431  0.5842
16612TIP3    H171327   0.541   6.307  16.737 -1.4644  1.6198 -1.2986
16612TIP3    H271328   0.639   6.404  16.800  0.7204 -1.4687  0.3325
16613TIP3   OH271329   6.312   6.018   1.757  0.1441 -0.0196 -0.2586
16613TIP3    H171330   6.276   5.952   1.816  0.6091  1.2340  1.4929
16613TIP3    H271331   6.380   5.971   1.709 -0.4349 -1.1468 -0.0134
16614TIP3   OH271332   5.634   1.043  12.206 -0.4720 -0.2276  0.0812
16614TIP3    H171333   5.580   1.016  12.280  1.4652  0.2722  1.7565
16614TIP3    H271334   5.662   0.961  12.166 -0.8035 -0.5230  0.4425
16615TIP3   OH271335   4.902   3.945  14.463 -0.4593  0.2999  0.4390
16615TIP3    H171336   4.919   3.904  14.378 -0.5732 -0.1143  0.6096
16615TIP3    H271337   4.870   3.873  14.518 -1.4307  0.7799  0.5231
16616TIP3   OH271338   1.541   1.339  12.142  0.5095  0.1444 -0.6043
16616TIP3    H171339   1.519   1.246  12.135 -0.7491  0.4947 -1.4810
16616TIP3    H271340   1.584   1.346  12.227  0.3937 -1.1905 -0.4058
16617TIP3   OH271341   0.958   1.958   1.222  0.0146 -0.4313 -0.2466
16617TIP3    H171342   1.042   1.994   1.194  0.5182 -0.6910  0.8898
16617TIP3    H271343   0.934   2.007   1.300 -0.7925 -0.5100 -0.4264
16618TIP3   OH271344   3.568   3.360   2.524  0.4696  0.0651  0.4472
16618TIP3    H171345   3.620   3.334   2.600  0.5268 -1.9004 -0.2073
16618TIP3    H271346   3.541   3.450   2.543  2.8474  0.6493  1.4804
16619TIP3   OH271347   0.497   5.903   0.707 -0.0293  0.1519 -0.2085
16619TIP3    H171348   0.471   5.830   0.652 -1.7318 -0.3547  1.1880
16619TIP3    H271349   0.423   5.916   0.767  1.7099  0.6609  1.9623
16620TIP3   OH271350   3.141   1.987   3.542  0.6715 -0.7703  0.0968
16620TIP3    H171351   3.046   1.987   3.533  0.5249  1.4138  1.1152
16620TIP3    H271352   3.173   1.956   3.457 -0.9210  0.2288 -0.9267
16621TIP3   OH271353   1.232   4.783   2.864 -0.2925  0.0847  0.0943
16621TIP3    H171354   1.233   4.877   2.883 -0.1057 -0.0150  0.6087
16621TIP3    H271355   1.166   4.748   2.924 -0.1203 -0.1597  0.1421
16622TIP3   OH271356   1.004   6.445  15.999 -0.2274  0.7738 -0.2469
16622TIP3    H171357   1.099   6.440  15.998 -0.0996  1.8430  1.7233
16622TIP3    H271358   0.985   6.535  16.025 -1.6912 -0.0459  1.8768
16623TIP3   OH271359   3.182   1.730   2.794 -0.1066 -0.1441  0.0146
16623TIP3    H171360   3.233   1.745   2.714 -0.5256  1.2609 -0.0147
16623TIP3    H271361   3.240   1.677   2.849  0.0585 -1.4177 -1.3309
16624TIP3   OH271362   5.613   2.685  15.483 -0.0932  0.0002 -0.1900
16624TIP3    H171363   5.594   2.731  15.401  0.1404 -0.5532 -0.5592
16624TIP3    H271364   5.541   2.622  15.492  0.4599 -0.6877 -0.5334
16625TIP3   OH271365   3.664   3.839  15.665  0.3296  0.1285  0.1805
16625TIP3    H171366   3.598   3.891  15.620 -0.0071  1.3297  1.9135
16625TIP3    H271367   3.626   3.752  15.673  0.2444 -0.0047 -1.4316
16626TIP3   OH271368   2.209   1.986  15.100  0.0793  0.4992  0.0266
16626TIP3    H171369   2.193   2.011  15.192  3.9515 -2.2250  1.6825
16626TIP3    H271370   2.197   1.891  15.099 -0.0351  0.4866 -2.4215
16627TIP3   OH271371   0.189   4.439  14.419  0.1685 -0.4438 -0.5606
16627TIP3    H171372   0.256   4.507  14.415  0.3323 -0.6320 -1.1674
16627TIP3    H271373   0.182   4.407  14.329  0.7012 -1.8165 -0.1412
16628TIP3   OH271374   3.854   5.750  16.832  0.1487  0.5542 -0.6872
16628TIP3    H171375   3.846   5.686  16.903 -0.2596 -0.2385 -1.4270
16628TIP3    H271376   3.799   5.715  16.762  1.4370  0.7153 -1.8242
16629TIP3   OH271377   2.447   4.865  15.498 -0.0337 -0.2616 -0.0065
16629TIP3    H171378   2.482   4.794  15.551  0.0780  0.0997  0.4088
16629TIP3    H271379   2.390   4.914  15.557 -0.8522 -0.5458 -0.5363
16630TIP3   OH271380   3.499   4.107   0.169 -0.5637 -0.0234  0.3336
16630TIP3    H171381   3.547   4.165   0.227  0.3992 -0.5212  0.0540
16630TIP3    H271382   3.442   4.055   0.226 -2.3815  2.0162  0.4880
16631TIP3   OH271383   2.141   0.299  15.811 -0.4099  0.5373 -0.2927
16631TIP3    H171384   2.157   0.234  15.742  0.7283 -0.0474  0.4938
16631TIP3    H271385   2.093   0.369  15.768 -0.7226 -0.3430 -1.4142
16632TIP3   OH271386   0.520   6.774   0.561 -0.0872 -0.7409  0.1285
16632TIP3    H171387   0.441   6.804   0.605 -0.3999 -1.2388 -0.0843
16632TIP3    H271388   0.511   6.806   0.471 -0.8368 -2.1533 -0.3378
16633TIP3   OH271389   5.260   3.989   0.357  0.3702  0.7372 -0.2396
16633TIP3    H171390   5.181   4.030   0.322  0.5344  0.3527 -1.0907
16633TIP3    H271391   5.283   3.922   0.292  0.4933 -0.2397  0.7792
16634TIP3   OH271392   0.911   4.290  14.695  0.1340 -0.0484 -0.0400
16634TIP3    H171393   0.830   4.252  14.663 -0.2130 -0.8254  1.6498
16634TIP3    H271394   0.969   4.215  14.709  0.3761  0.2834  0.7993
16635TIP3   OH271395   1.885   3.546  10.919  0.2844 -0.4082 -0.1789
16635TIP3    H171396   1.842   3.631  10.923 -0.1557 -0.6791  2.4313
16635TIP3    H271397   1.934   3.539  11.001  1.1750 -2.2508 -0.7932
16636TIP3   OH271398   6.274   5.325  14.455  0.5000 -0.5492 -0.2252
16636TIP3    H171399   6.201   5.347  14.397  0.4291  1.1609  0.4582
16636TIP3    H271400   6.232   5.301  14.538  0.7004  1.7567  0.5933
16637TIP3   OH271401   3.052   2.445   5.562  0.3211  0.3276  0.0538
16637TIP3    H171402   3.029   2.465   5.653  2.0679  1.6129  0.2642
16637TIP3    H271403   3.147   2.451   5.560  0.3282  0.0345 -1.8105
16638TIP3   OH271404   2.298   6.425   5.130 -0.1740 -0.6835  0.4017
16638TIP3    H171405   2.211   6.464   5.128 -0.2744 -0.9219 -0.6839
16638TIP3    H271406   2.321   6.420   5.223 -1.3197 -0.6192  0.6961
16639TIP3   OH271407   2.671   3.558   4.099 -0.2669 -0.7532 -0.1687
16639TIP3    H171408   2.615   3.519   4.033  0.1049 -0.1297 -0.8758
16639TIP3    H271409   2.619   3.559   4.179 -1.0040 -0.8108 -0.6467
16640TIP3   OH271410   5.247   0.712  14.384 -0.0942 -0.3010  0.5910
16640TIP3    H171411   5.327   0.659  14.389 -0.0453 -0.2372  0.4908
16640TIP3    H271412   5.233   0.725  14.290 -0.9537 -1.4090  0.5487
16641TIP3   OH271413   0.859   5.738  15.365 -0.3937 -0.1986  0.0865
16641TIP3    H171414   0.928   5.758  15.428  0.8089  1.4585 -1.6525
16641TIP3    H271415   0.823   5.823  15.340 -0.0516 -0.6630 -2.2595
16642TIP3   OH271416   2.654   1.100   2.658 -0.5315  0.0902  0.6291
16642TIP3    H171417   2.682   1.025   2.606  1.4716  0.7218  0.7052
16642TIP3    H271418   2.643   1.171   2.595 -0.7893  0.1580  0.7487
16643TIP3   OH271419   5.943   2.882  14.164 -0.0542 -0.0953 -0.3481
16643TIP3    H171420   5.958   2.962  14.113 -2.3587  0.0667 -0.8943
16643TIP3    H271421   5.849   2.882  14.181  0.0074 -2.3326  0.2853
16644TIP3   OH271422   3.106   6.739   3.090  0.7398  0.1738  0.4183
16644TIP3    H171423   3.121   6.705   3.001 -1.8165  1.2591 -0.5258
16644TIP3    H271424   3.028   6.692   3.120 -0.7333  2.5162  0.4919
16645TIP3   OH271425   3.659   2.114  12.373 -0.1299  0.1692  0.5974
16645TIP3    H171426   3.574   2.140  12.338  0.5152  2.3215  0.4485
16645TIP3    H271427   3.661   2.152  12.461 -0.0156 -1.4456  1.3211
16646TIP3   OH271428   1.631   3.355  16.500 -0.1157  0.6642  0.4843
16646TIP3    H171429   1.661   3.295  16.568 -2.3460 -0.6016  0.4594
16646TIP3    H271430   1.585   3.424  16.547 -0.9415  0.2332  0.3191
16647TIP3   OH271431   5.123   4.059   1.371 -0.3337  0.0974  0.5771
16647TIP3    H171432   5.154   4.092   1.455  0.5605 -0.1016  0.3417
16647TIP3    H271433   5.042   4.107   1.354  0.7049  1.8925  0.4361
16648TIP3   OH271434   6.226   4.590  13.685  0.0301 -0.0036 -0.0004
16648TIP3    H171435   6.300   4.633  13.726  0.7191  0.1019 -1.2969
16648TIP3    H271436   6.159   4.587  13.753  1.3103 -0.3627  1.2933
16649TIP3   OH271437   5.688   4.972   5.913  0.0358 -0.0030  0.2289
16649TIP3    H171438   5.692   5.042   5.978  0.0964  0.1592  0.0505
16649TIP3    H271439   5.735   4.899   5.954  1.9501  0.7795 -0.4667
16650TIP3   OH271440   4.020   4.268  11.781  0.1901  0.3930  0.0726
16650TIP3    H171441   3.954   4.337  11.791 -0.4010  0.0915 -1.4447
16650TIP3    H271442   3.985   4.194  11.829  0.1198  0.6887  0.4787
16651TIP3   OH271443   0.252   4.705   2.375 -0.3873 -0.3212  0.0486
16651TIP3    H171444   0.206   4.627   2.408 -1.1370 -0.6446 -1.6365
16651TIP3    H271445   0.198   4.778   2.405 -0.7136 -0.5631  0.0704
16652TIP3   OH271446   5.332   4.712  12.832 -0.0128 -0.5224  0.5345
16652TIP3    H171447   5.283   4.780  12.878 -0.3935  0.4843 -1.2611
16652TIP3    H271448   5.418   4.751  12.817 -0.4973 -0.0668 -1.2346
16653TIP3   OH271449   4.254   3.631  15.013  0.2287  0.0017  0.4616
16653TIP3    H171450   4.233   3.558  14.955 -2.0773  0.9568 -0.0278
16653TIP3    H271451   4.229   3.709  14.963  1.5755  1.0986  1.3919
16654TIP3   OH271452   5.306   1.937   5.851 -0.3301  0.0943 -0.1261
16654TIP3    H171453   5.276   1.848   5.832 -1.9992  0.4453  0.6975
16654TIP3    H271454   5.236   1.993   5.818  0.4736  1.0806 -0.1857
16655TIP3   OH271455   5.099   5.760  14.693 -0.4741 -0.2222  0.1319
16655TIP3    H171456   5.051   5.690  14.737  0.1073  0.8231  2.6107
16655TIP3    H271457   5.191   5.740  14.710 -0.2235  0.2067 -0.6678
16656TIP3   OH271458   0.676   5.730  16.205  0.0094 -0.4578 -0.0240
16656TIP3    H171459   0.731   5.667  16.251  0.7373  0.1560 -0.0390
16656TIP3    H271460   0.684   5.811  16.255  0.9955  0.2892 -1.3276
16657TIP3   OH271461   4.227   1.113   3.376  0.3714 -0.0850 -0.1860
16657TIP3    H171462   4.231   1.090   3.469  1.0442  0.8513  0.0314
16657TIP3    H271463   4.294   1.181   3.365 -1.3080  1.5662 -0.8211
16658TIP3   OH271464   4.734   5.565  14.576  0.4115 -1.0200 -0.1696
16658TIP3    H171465   4.706   5.654  14.598  1.5564 -1.0218  1.4570
16658TIP3    H271466   4.805   5.577  14.514 -0.1980 -0.8640 -0.8550
16659TIP3   OH271467   3.580   5.294  10.298 -0.6528  0.0434  0.2338
16659TIP3    H171468   3.533   5.278  10.380  1.1203 -1.4008  1.0473
16659TIP3    H271469   3.523   5.259  10.230 -2.2434  1.4397  0.7813
16660TIP3   OH271470   1.181   0.713  12.503  0.7599 -0.4145  0.2803
16660TIP3    H171471   1.086   0.716  12.490  0.7747  0.0658  0.2704
16660TIP3    H271472   1.215   0.671  12.425  0.6369  0.2742 -0.1522
16661TIP3   OH271473   6.761   6.108   3.823  0.4805  0.3923  0.6250
16661TIP3    H171474   6.791   6.199   3.823  0.3730  0.4279  0.7787
16661TIP3    H271475   6.774   6.078   3.913  1.3161 -0.0129  0.3840
16662TIP3   OH271476   2.707   0.099  11.767 -0.0404  0.8872  0.1236
16662TIP3    H171477   2.682   0.112  11.676  1.4655  3.9062  0.0257
16662TIP3    H271478   2.797   0.065  11.763 -0.4113 -0.2047  0.5330
16663TIP3   OH271479   3.902   2.776  14.557 -0.4881 -0.5617  0.6411
16663TIP3    H171480   3.925   2.708  14.621  0.0517 -1.1055 -0.1157
16663TIP3    H271481   3.984   2.792  14.510 -1.5467 -2.5223 -2.1163
16664TIP3   OH271482   6.329   6.693  15.493  0.3388 -0.1887  0.5742
16664TIP3    H171483   6.329   6.614  15.547 -0.7303 -0.1113  0.7173
16664TIP3    H271484   6.237   6.703  15.466  1.0226 -1.0536 -2.4864
16665TIP3   OH271485   1.956   6.831  13.443 -0.2187 -0.1547  0.4340
16665TIP3    H171486   2.030   6.853  13.500  0.0252  2.1847 -0.6531
16665TIP3    H271487   1.933   6.914  13.402 -1.8510 -1.3286 -1.1505
16666TIP3   OH271488   1.531   1.757   0.570 -0.5493 -0.3175  0.0014
16666TIP3    H171489   1.448   1.715   0.549 -0.5734  0.3629 -1.4184
16666TIP3    H271490   1.507   1.836   0.619 -0.6490 -0.7267  0.6233
16667TIP3   OH271491   4.712   6.252   1.905 -0.5687 -0.0251  0.2325
16667TIP3    H171492   4.631   6.262   1.856 -0.5508 -0.6956  0.0627
16667TIP3    H271493   4.685   6.227   1.993 -0.5410 -0.7223  0.0520
16668TIP3   OH271494   0.672   3.538  14.151  0.6091 -0.0836  0.4923
16668TIP3    H171495   0.647   3.607  14.090  1.6300  0.0422  0.2041
16668TIP3    H271496   0.738   3.578  14.207  0.6338 -0.5968  0.8403
16669TIP3   OH271497   0.674   0.746   4.726 -0.3445 -0.2658  0.6189
16669TIP3    H171498   0.758   0.714   4.694 -0.9563 -2.2147  0.8273
16669TIP3    H271499   0.639   0.797   4.653  1.1150  0.8144  0.6337
16670TIP3   OH271500   0.569   6.255   0.260 -0.5694 -0.4695  0.3356
16670TIP3    H171501   0.605   6.282   0.344 -1.6987  0.8114  0.4394
16670TIP3    H271502   0.639   6.273   0.197 -0.1780 -0.2267  0.8319
16671TIP3   OH271503   1.400   6.771   3.724  0.5906  0.1851 -0.0511
16671TIP3    H171504   1.408   6.751   3.817  1.9823  2.8473  0.5076
16671TIP3    H271505   1.486   6.804   3.699 -0.1918  0.9853 -1.8761
16672TIP3   OH271506   0.262   2.725  13.317  0.0112  0.3653  0.1613
16672TIP3    H171507   0.322   2.767  13.380  1.1616 -0.0812 -0.6051
16672TIP3    H271508   0.203   2.796  13.291  0.4198  0.9137  0.6710
16673TIP3   OH271509   1.589   5.783   0.649 -0.1859  0.2518  0.3588
16673TIP3    H171510   1.572   5.726   0.574 -0.2443 -0.4923  0.9166
16673TIP3    H271511   1.569   5.728   0.725  1.0376  0.5888  0.9502
16674TIP3   OH271512   3.336   4.659   0.856 -0.0868  0.4056 -0.4709
16674TIP3    H171513   3.337   4.680   0.949 -2.1189 -1.3285  0.0230
16674TIP3    H271514   3.318   4.742   0.812 -0.0529  1.0740  0.7507
16675TIP3   OH271515   5.102   1.065   4.326  0.1641  0.1902  0.3084
16675TIP3    H171516   5.047   0.987   4.322 -0.4056  0.5645  0.6796
16675TIP3    H271517   5.077   1.108   4.408  0.2534  0.9219 -0.0374
16676TIP3   OH271518   5.214   3.971  16.823 -0.5883 -0.3751  0.3274
16676TIP3    H171519   5.251   3.899  16.772  3.4317  1.9285 -0.4379
16676TIP3    H271520   5.165   4.023  16.760  0.2722 -0.1360 -0.1667
16677TIP3   OH271521   6.311   2.245   4.018 -0.0694 -0.6593 -0.1482
16677TIP3    H171522   6.264   2.320   4.054 -0.3202 -0.8626 -0.0509
16677TIP3    H271523   6.364   2.282   3.946  0.8922 -0.1467  0.7966
16678TIP3   OH271524   6.190   1.750  13.461 -0.1098 -0.0125 -0.7120
16678TIP3    H171525   6.202   1.666  13.504  0.1595  0.0671 -0.6329
16678TIP3    H271526   6.181   1.813  13.532  1.6466  0.3199 -0.7440
16679TIP3   OH271527   6.634   6.706   4.003 -0.0229  0.3284  1.1746
16679TIP3    H171528   6.682   6.788   3.991 -2.3042  1.6891  0.7680
16679TIP3    H271529   6.644   6.685   4.096  0.3727  1.2023  1.3389
16680TIP3   OH271530   3.553   6.075   2.881 -0.2676 -0.5623 -0.1644
16680TIP3    H171531   3.498   6.060   2.957 -0.1030  1.4299  0.4107
16680TIP3    H271532   3.583   5.988   2.855 -0.1138 -1.2889  2.2066
16681TIP3   OH271533   1.935   3.928   3.879 -0.3016  0.5598 -0.4944
16681TIP3    H171534   1.842   3.947   3.890  0.0538  2.0158  0.2423
16681TIP3    H271535   1.937   3.847   3.827 -1.9640  0.3136 -0.2344
16682TIP3   OH271536   6.714   4.784  11.547  0.0548  0.0134  0.5646
16682TIP3    H171537   6.691   4.869  11.586 -0.2522 -0.1666  0.7834
16682TIP3    H271538   6.643   4.726  11.574  1.0280 -0.6966  1.7205
16683TIP3   OH271539   6.468   1.512  14.017 -0.2756  0.2557 -0.6375
16683TIP3    H171540   6.523   1.439  14.046  0.1592  0.6930 -0.3560
16683TIP3    H271541   6.510   1.590  14.052 -0.4351  0.6934 -1.3875
16684TIP3   OH271542   5.797   6.259   4.250  0.2855 -0.1653 -0.2783
16684TIP3    H171543   5.768   6.190   4.311  2.0441 -1.3783 -0.7325
16684TIP3    H271544   5.863   6.308   4.300 -1.2886  1.5605  0.2057
16685TIP3   OH271545   2.246   1.604  10.908 -0.5737 -0.5762 -0.5336
16685TIP3    H171546   2.251   1.661  10.831  1.3455 -0.2935 -0.2509
16685TIP3    H271547   2.267   1.517  10.875  0.7926 -0.3696 -0.3009
16686TIP3   OH271548   0.073   1.614  11.631  0.0391 -0.0244  0.3236
16686TIP3    H171549   0.161   1.633  11.597 -0.3167  2.8459  0.7451
16686TIP3    H271550   0.081   1.625  11.725 -0.5922 -0.6912  0.4642
16687TIP3   OH271551   5.598   2.994   1.424  0.5779 -0.0172  0.0403
16687TIP3    H171552   5.634   2.971   1.510  1.0263 -0.6753 -0.3253
16687TIP3    H271553   5.594   2.912   1.376 -2.0375 -0.1243  0.2831
16688TIP3   OH271554   0.976   5.745  14.387 -0.4962  0.0200 -0.5508
16688TIP3    H171555   0.930   5.813  14.337 -1.9527 -0.5293 -0.0343
16688TIP3    H271556   1.057   5.730  14.339 -1.4331  0.1387 -2.2575
16689TIP3   OH271557   5.330   3.222  17.133 -0.2833  0.3640 -0.3591
16689TIP3    H171558   5.370   3.243  17.049 -0.6995 -0.3518 -0.7454
16689TIP3    H271559   5.241   3.195  17.111 -0.4254  0.2623  0.3242
16690TIP3   OH271560   5.926   3.535   5.589  0.3632  0.0944 -0.1140
16690TIP3    H171561   5.958   3.586   5.514 -0.0650  1.4809  0.6107
16690TIP3    H271562   5.835   3.564   5.600  0.0198 -1.0457  0.1560
16691TIP3   OH271563   1.358   6.078   2.737  0.1643  0.0366  0.1542
16691TIP3    H171564   1.325   6.148   2.793  1.1926  1.5744 -1.0873
16691TIP3    H271565   1.336   6.105   2.648  1.0277 -0.9703 -0.3921
16692TIP3   OH271566   6.828   1.871  15.065 -0.2275 -0.0078  0.0257
16692TIP3    H171567   6.883   1.924  15.123 -1.0661 -0.6245  1.4454
16692TIP3    H271568   6.889   1.835  15.000  0.9917 -0.3857  1.3282
16693TIP3   OH271569   4.507   5.083  10.622  0.5932 -0.0311  0.2473
16693TIP3    H171570   4.536   5.080  10.531  0.6220  0.1021  0.2517
16693TIP3    H271571   4.460   5.166  10.629  0.0474 -0.3344  0.1927
16694TIP3   OH271572   4.029   1.751   5.419  0.3425 -0.6875 -0.5147
16694TIP3    H171573   4.026   1.771   5.513  0.1321 -1.2113 -0.4020
16694TIP3    H271574   4.038   1.655   5.416  1.9723 -0.5415 -1.0167
16695TIP3   OH271575   0.738   0.014  12.770 -0.3310 -0.0977  0.1770
16695TIP3    H171576   0.818  -0.007  12.723  1.3879  1.4663  2.1931
16695TIP3    H271577   0.704   0.092  12.726  0.0682  0.0767  0.1699
16696TIP3   OH271578   3.472   1.618   1.466  0.3423 -0.1805  0.0269
16696TIP3    H171579   3.404   1.680   1.442 -0.4625 -2.0610 -3.1360
16696TIP3    H271580   3.536   1.670   1.514 -2.2759  2.1008  1.3032
16697TIP3   OH271581   5.178   2.519  14.351  0.1501 -0.0608 -0.0338
16697TIP3    H171582   5.172   2.540  14.445 -3.4063  0.9789 -0.3255
16697TIP3    H271583   5.148   2.598  14.307  0.9902 -0.8096 -2.0500
16698TIP3   OH271584   4.010   1.531  14.617 -0.8819 -0.2451 -0.9334
16698TIP3    H171585   4.038   1.567  14.533 -0.3937 -0.6249 -0.9405
16698TIP3    H271586   3.922   1.565  14.630  0.3437  2.8685  0.1557
16699TIP3   OH271587   5.221   5.668   5.007  0.0020 -0.5585 -0.2895
16699TIP3    H171588   5.150   5.731   4.997 -0.4355 -1.3685 -4.2922
16699TIP3    H271589   5.297   5.720   5.032 -1.2438  0.8416  0.7070
16700TIP3   OH271590   0.067   6.758  11.990 -0.4180 -0.8760 -0.2351
16700TIP3    H171591   0.079   6.666  11.966 -1.3392 -1.1311  0.2180
16700TIP3    H271592   0.020   6.795  11.915  2.1634 -0.1140 -1.5779
16701TIP3   OH271593   4.388   2.720  15.593 -0.8525 -0.0110  0.3800
16701TIP3    H171594   4.399   2.815  15.602  0.6785  0.1841 -2.4324
16701TIP3    H271595   4.296   2.708  15.570 -1.0235  0.8192  0.6111
16702TIP3   OH271596   2.571   1.940   3.812 -0.0868  0.1176  0.6584
16702TIP3    H171597   2.507   1.900   3.871  0.5255  0.4393  1.5676
16702TIP3    H271598   2.655   1.927   3.856  0.4047  0.2445 -0.2206
16703TIP3   OH271599   2.724   5.314  12.139  0.0500 -0.1173 -0.0940
16703TIP3    H171600   2.800   5.276  12.095 -0.0110  0.9884 -1.2209
16703TIP3    H271601   2.657   5.245  12.135  0.2920 -0.3079 -1.0847
16704TIP3   OH271602   2.280   0.517  16.005  0.4295  0.1520  0.0959
16704TIP3    H171603   2.270   0.520  16.100  0.5254  0.8817  0.0836
16704TIP3    H271604   2.317   0.430  15.988  0.6386  0.1079  0.7410
16705TIP3   OH271605   0.947   0.368   0.873 -0.3523  0.1296  0.0105
16705TIP3    H171606   0.902   0.283   0.877  0.1548 -0.2240 -1.1857
16705TIP3    H271607   1.030   0.354   0.918 -0.0089 -0.2039 -0.7039
16706TIP3   OH271608   6.225   4.056  10.703  0.0242 -0.8061 -0.3771
16706TIP3    H171609   6.289   4.046  10.633  0.5374  0.5368 -0.1336
16706TIP3    H271610   6.240   3.981  10.760  1.7734 -0.2676 -0.0451
16707TIP3   OH271611   0.667   5.469  15.585 -0.1309  0.0098 -0.0387
16707TIP3    H171612   0.723   5.469  15.662  0.1353  0.5118 -0.2245
16707TIP3    H271613   0.620   5.386  15.589 -0.3616  0.1716  0.8360
16708TIP3   OH271614   3.016   3.118   1.492  0.1197  0.4905  0.1654
16708TIP3    H171615   3.106   3.141   1.516  0.8062 -1.2065 -0.6342
16708TIP3    H271616   2.990   3.184   1.428  0.3106  1.7274  1.3148
16709TIP3   OH271617   6.118   1.760  13.197 -0.5889  0.0115  0.2601
16709TIP3    H171618   6.153   1.743  13.284  0.1021  1.4319  0.2908
16709TIP3    H271619   6.190   1.801  13.149 -1.3250  0.3386 -0.5982
16710TIP3   OH271620   3.875   5.017  13.006  0.7882  0.1175  0.2826
16710TIP3    H171621   3.910   5.106  12.999  1.1378 -0.0881 -0.9801
16710TIP3    H271622   3.789   5.022  12.965 -0.2693  0.3798  2.4043
16711TIP3   OH271623   6.347   5.064  11.002 -0.0378  0.3501 -0.0201
16711TIP3    H171624   6.411   5.096  11.065 -1.1014  0.5114  1.0217
16711TIP3    H271625   6.387   4.986  10.964  0.7496  0.4288  0.6258
16712TIP3   OH271626   5.782   1.307   2.289  0.1554 -0.2527 -0.6222
16712TIP3    H171627   5.701   1.318   2.241  0.0233 -0.2764 -0.4070
16712TIP3    H271628   5.791   1.212   2.301 -0.0146 -0.2255 -0.2592
16713TIP3   OH271629   5.398   2.152  15.276  0.1668 -0.5139  0.2125
16713TIP3    H171630   5.465   2.170  15.210 -2.0010  2.8047 -1.3202
16713TIP3    H271631   5.419   2.211  15.348 -0.1597 -0.7106  0.4711
16714TIP3   OH271632   0.084   1.814   5.731 -0.0251  0.6080 -0.0033
16714TIP3    H171633   0.024   1.869   5.781  0.3076  0.2199  0.8362
16714TIP3    H271634   0.171   1.850   5.749  0.0292  1.0131 -1.0171
16715TIP3   OH271635   5.107   2.572   1.409 -0.2651 -0.4055 -0.0438
16715TIP3    H171636   5.017   2.538   1.409 -0.7897  0.7355  2.4505
16715TIP3    H271637   5.152   2.518   1.475  0.1552  0.6654  0.5637
16716TIP3   OH271638   5.994   3.855   6.305  0.0729  0.0952 -0.4933
16716TIP3    H171639   6.039   3.844   6.222  0.5297  0.3991 -0.2936
16716TIP3    H271640   6.037   3.794   6.365 -0.1936 -0.0584 -0.4545
16717TIP3   OH271641   5.213   2.442   1.915 -0.1895 -0.1484 -0.1856
16717TIP3    H171642   5.131   2.477   1.879 -0.1141 -0.7716 -0.9915
16717TIP3    H271643   5.187   2.396   1.995 -0.5386  0.1564 -0.1201
16718TIP3   OH271644   6.585   3.166  14.264  0.6341  0.4934  0.4062
16718TIP3    H171645   6.661   3.130  14.219 -0.0165 -0.5103  0.0743
16718TIP3    H271646   6.549   3.231  14.204  1.1985  0.9469  0.5522
16719TIP3   OH271647   3.805   1.998   1.928 -0.5128  0.0953 -0.4334
16719TIP3    H171648   3.752   1.999   1.849 -0.9356 -1.1337 -0.1835
16719TIP3    H271649   3.890   1.963   1.901 -0.1614  1.0468 -0.6151
16720TIP3   OH271650   4.234   0.796   1.312  0.1690  0.2025  0.1218
16720TIP3    H171651   4.242   0.708   1.274  2.3861  0.1456  0.6057
16720TIP3    H271652   4.159   0.789   1.371 -0.5094 -0.9748 -0.8227
16721TIP3   OH271653   3.479   4.560  14.477  0.0126 -0.0058  0.7035
16721TIP3    H171654   3.446   4.600  14.557 -0.5618 -1.1126  1.0487
16721TIP3    H271655   3.400   4.532  14.430  0.3331  0.7170 -0.3179
16722TIP3   OH271656   4.175   2.877   0.810 -0.4485 -0.2892  0.1947
16722TIP3    H171657   4.194   2.968   0.835  0.2460 -0.1094 -0.9503
16722TIP3    H271658   4.125   2.843   0.885 -0.2414  0.8550  0.8931
16723TIP3   OH271659   4.502   3.024   4.083 -0.3811 -0.1024  0.0350
16723TIP3    H171660   4.420   2.987   4.113  0.4218 -1.5550  0.5446
16723TIP3    H271661   4.478   3.082   4.010 -1.6964 -1.6519 -0.8096
16724TIP3   OH271662   2.149   6.341  12.638  0.6709 -0.1381 -0.0202
16724TIP3    H171663   2.167   6.247  12.640  0.3693 -0.2413 -1.4446
16724TIP3    H271664   2.105   6.358  12.722 -0.6581 -1.5790 -0.3725
16725TIP3   OH271665   2.617   1.849   2.468  0.7567 -0.3085 -0.4224
16725TIP3    H171666   2.680   1.917   2.494  0.9040 -0.7548  0.4168
16725TIP3    H271667   2.599   1.801   2.549 -2.0983  0.9573 -0.1840
16726TIP3   OH271668   1.493   0.625  12.736  0.3402 -0.0498  0.5886
16726TIP3    H171669   1.500   0.554  12.800  0.3692 -0.0924  0.5395
16726TIP3    H271670   1.550   0.596  12.664  0.9470  0.3764  0.8886
16727TIP3   OH271671   6.830   6.662   4.799 -0.4764 -0.6136 -0.1506
16727TIP3    H171672   6.758   6.687   4.740  1.0227  1.2684 -1.3228
16727TIP3    H271673   6.889   6.611   4.743  0.2191 -0.1189  0.1174
16728TIP3   OH271674   1.132   0.921  14.902 -0.2122  0.1664  0.8048
16728TIP3    H171675   1.114   0.865  14.977 -2.1255 -0.0613  0.2155
16728TIP3    H271676   1.206   0.879  14.858  0.4017 -0.1405  2.0826
16729TIP3   OH271677   2.200   6.090  15.276 -0.0977 -0.0622  0.0120
16729TIP3    H171678   2.225   6.142  15.352 -0.5000  0.9143 -0.5107
16729TIP3    H271679   2.165   6.009  15.313 -0.0072  0.2742  0.8574
16730TIP3   OH271680   5.792   4.795  12.990  0.0637  0.1646 -0.2336
16730TIP3    H171681   5.879   4.762  13.012  0.3739 -0.1020 -1.7448
16730TIP3    H271682   5.732   4.733  13.031  0.6132 -0.5338 -0.4665
16731TIP3   OH271683   1.203   6.132  17.113 -0.3017 -0.2222 -0.3609
16731TIP3    H171684   1.223   6.075  17.039 -1.5905  0.3647 -1.2116
16731TIP3    H271685   1.260   6.208  17.101  0.5078 -0.7564  0.0597
16732TIP3   OH271686   1.314   4.973   2.481 -0.6427  0.1895  0.1777
16732TIP3    H171687   1.290   5.063   2.460  0.8235  0.5755  0.0424
16732TIP3    H271688   1.391   4.981   2.538  1.2067 -0.9508 -1.9715
16733TIP3   OH271689   1.445   4.618   4.955  0.2689  0.6772  0.0386
16733TIP3    H171690   1.498   4.607   5.034 -0.8862 -1.6044  0.5857
16733TIP3    H271691   1.356   4.598   4.983 -0.2506  0.3170 -1.7490
16734TIP3   OH271692   4.608   6.543  15.292  0.1184  0.9269  0.4610
16734TIP3    H171693   4.518   6.523  15.319  0.2207 -0.2725  0.0128
16734TIP3    H271694   4.612   6.514  15.201  2.0274 -3.0105  1.5615
16735TIP3   OH271695   0.022   3.517  15.735  0.1651 -0.1562  0.1714
16735TIP3    H171696   0.016   3.451  15.666  0.7207 -0.3248  0.2814
16735TIP3    H271697   0.076   3.477  15.803  1.0507  0.6401 -0.0375
16736TIP3   OH271698   1.518   1.535  12.833 -0.4603 -0.6260  0.1843
16736TIP3    H171699   1.532   1.615  12.885  0.4361 -0.5819 -0.1133
16736TIP3    H271700   1.599   1.525  12.783 -0.8844 -1.2874 -0.3740
16737TIP3   OH271701   1.810   4.587  13.754  0.2582  0.2535  0.2287
16737TIP3    H171702   1.726   4.551  13.725 -0.2625  0.1815  1.7201
16737TIP3    H271703   1.799   4.682  13.746  0.4478  0.2094 -0.6270
16738TIP3   OH271704   5.819   1.325  11.919  0.1671  0.5988 -0.2141
16738TIP3    H171705   5.868   1.253  11.879  2.2182  1.2187  1.0054
16738TIP3    H271706   5.729   1.312  11.891  0.5983 -2.0139 -0.6096
16739TIP3   OH271707   4.098   4.535  11.263  0.2534 -0.2807  0.3233
16739TIP3    H171708   4.152   4.613  11.276 -0.7194  0.2463  1.3575
16739TIP3    H271709   4.146   4.483  11.198  0.1971  1.8728 -1.5410
16740TIP3   OH271710   4.302   4.251   2.453  0.2943 -0.1689  0.1123
16740TIP3    H171711   4.299   4.155   2.457 -0.3238 -0.1214  1.3415
16740TIP3    H271712   4.344   4.270   2.369  1.6524 -1.5400  0.4209
16741TIP3   OH271713   4.122   5.944   1.555  0.4190  0.1119 -0.3019
16741TIP3    H171714   4.127   5.973   1.646  1.1158 -0.3488 -0.1790
16741TIP3    H271715   4.088   6.019   1.507  0.0724  0.3669  0.3353
16742TIP3   OH271716   2.737   5.190  13.791 -0.0519 -0.5702 -0.2851
16742TIP3    H171717   2.757   5.283  13.792 -1.9623 -0.1101 -0.2758
16742TIP3    H271718   2.692   5.174  13.875 -1.7143 -0.9673 -1.2006
16743TIP3   OH271719   0.008   5.768   3.657 -0.4632  0.0863  0.8114
16743TIP3    H171720   0.001   5.732   3.745 -1.8389  0.9695  1.1041
16743TIP3    H271721   0.016   5.692   3.600 -1.1754 -0.5792  1.5726
16744TIP3   OH271722   5.147   6.084  14.166  0.5907  0.3522 -0.2350
16744TIP3    H171723   5.107   6.090  14.253 -0.6117 -0.8201 -0.6711
16744TIP3    H271724   5.096   6.144  14.111  1.3975  1.1512 -0.1343
16745TIP3   OH271725   2.031   4.759  12.605 -0.3594 -0.2487 -1.4140
16745TIP3    H171726   2.078   4.675  12.606 -1.0577 -0.6715  0.2674
16745TIP3    H271727   2.058   4.801  12.524 -0.0386 -2.1312 -2.3421
16746TIP3   OH271728   0.608   2.816   5.723  0.5246 -0.3532 -0.3280
16746TIP3    H171729   0.659   2.886   5.762 -0.6445 -0.0827  0.7734
16746TIP3    H271730   0.643   2.807   5.634 -0.5315  2.9196 -1.1932
16747TIP3   OH271731   1.979   3.454   4.900 -0.5276 -0.1523 -0.1753
16747TIP3    H171732   1.960   3.523   4.964 -1.1540 -0.7021  0.2390
16747TIP3    H271733   1.937   3.485   4.819 -2.5544 -0.9502  0.5079
16748TIP3   OH271734   6.335   4.237  16.807  0.8876  0.1223  0.2445
16748TIP3    H171735   6.325   4.144  16.829 -0.3169 -0.0972 -1.0628
16748TIP3    H271736   6.250   4.275  16.831  1.5388  1.0168  1.2272
16749TIP3   OH271737   2.083   5.212  11.810 -0.5585 -0.6672 -0.1157
16749TIP3    H171738   2.119   5.287  11.763 -1.7486 -0.6892 -1.0978
16749TIP3    H271739   2.047   5.250  11.890 -1.1005 -0.1886 -0.5768
16750TIP3   OH271740   1.487   3.595   2.853 -0.1249  0.2462  0.4512
16750TIP3    H171741   1.489   3.651   2.930  1.8484  0.9270 -0.0462
16750TIP3    H271742   1.395   3.596   2.825 -0.4293  1.9128  1.4065
16751TIP3   OH271743   0.206   6.220  13.778  0.6271  0.2285 -0.2889
16751TIP3    H171744   0.139   6.249  13.840  1.8028  1.0314  0.6599
16751TIP3    H271745   0.162   6.219  13.694 -1.0728 -1.0569  0.5477
16752TIP3   OH271746   0.526   3.975   3.543 -0.4445 -0.1627 -0.2319
16752TIP3    H171747   0.556   3.884   3.536 -1.6895 -0.5877 -0.4127
16752TIP3    H271748   0.582   4.014   3.609 -0.2557 -1.2359  0.2743
16753TIP3   OH271749   4.870   5.985  14.538 -0.1448  0.0711  0.2198
16753TIP3    H171750   4.940   5.957  14.597 -0.6803 -2.0306 -0.0598
16753TIP3    H271751   4.793   5.936  14.567  0.0624 -2.9556 -3.5380
16754TIP3   OH271752   2.217   1.575  15.423  0.1724  0.6124 -0.2274
16754TIP3    H171753   2.191   1.490  15.387  2.5466  0.1706 -1.1103
16754TIP3    H271754   2.286   1.553  15.486  0.3098  1.8384  0.0627
16755TIP3   OH271755   3.854   3.402  14.294 -0.1072 -0.6244  0.2839
16755TIP3    H171756   3.788   3.460  14.332  0.0289  0.8662 -1.6016
16755TIP3    H271757   3.935   3.424  14.338  0.0370  1.0257 -0.7313
16756TIP3   OH271758   4.395   0.795  14.611 -0.1219  0.1625 -0.0707
16756TIP3    H171759   4.367   0.812  14.702  1.1219 -1.5330  0.6721
16756TIP3    H271760   4.406   0.882  14.573  0.8720  0.9687  1.9076
16757TIP3   OH271761   3.648   2.946  10.365  0.2610  0.2146 -0.3069
16757TIP3    H171762   3.633   2.964  10.273  2.5006  0.1283 -0.7364
16757TIP3    H271763   3.730   2.991  10.386 -0.3410  0.4851  1.7324
16758TIP3   OH271764   5.259   5.978  11.802 -0.2724 -0.1881 -0.6009
16758TIP3    H171765   5.307   5.912  11.852  0.8750  2.0079  1.4235
16758TIP3    H271766   5.168   5.967  11.828 -0.2998 -1.7256 -1.2619
16759TIP3   OH271767   3.681   4.243   2.624 -0.1305 -0.4492  0.3781
16759TIP3    H171768   3.730   4.305   2.677  0.2162 -2.3465  2.4369
16759TIP3    H271769   3.734   4.230   2.545  0.7570  0.3587  0.8377
16760TIP3   OH271770   4.202   2.319   3.352  1.0154  0.2109 -0.4522
16760TIP3    H171771   4.172   2.410   3.348 -1.0527 -0.2661  1.5759
16760TIP3    H271772   4.240   2.302   3.266 -1.2772  2.1021 -1.9765
16761TIP3   OH271773   0.476   2.585  14.585  0.3642 -0.5864  0.0449
16761TIP3    H171774   0.467   2.639  14.663  1.0585 -0.3085 -0.0569
16761TIP3    H271775   0.398   2.606  14.532  0.6262  0.3318  0.0008
16762TIP3   OH271776   2.722   1.928  14.241 -0.2514 -0.5079  0.5536
16762TIP3    H171777   2.651   1.944  14.303 -0.3162  0.0481  0.3336
16762TIP3    H271778   2.688   1.956  14.156 -0.3243 -1.6782  0.1729
16763TIP3   OH271779   1.515   5.957   3.736  0.5039  0.3097 -0.3318
16763TIP3    H171780   1.603   5.994   3.743  1.5036 -1.8839 -0.3330
16763TIP3    H271781   1.507   5.900   3.813 -0.5074 -0.3204 -0.8852
16764TIP3   OH271782   1.748   0.077  16.136  0.3630 -0.1728 -0.3432
16764TIP3    H171783   1.799   0.056  16.058  0.3551 -0.3745 -0.2954
16764TIP3    H271784   1.803   0.051  16.209  0.2649 -0.2244 -0.2876
16765TIP3   OH271785   5.005   1.985  14.290  0.4629 -0.1980  0.8967
16765TIP3    H171786   4.938   2.027  14.236  0.7319  0.2349  0.8971
16765TIP3    H271787   5.078   1.970  14.230 -0.1169 -1.9373  0.5406
16766TIP3   OH271788   3.629   6.642   0.575  0.3094 -0.1489 -0.0709
16766TIP3    H171789   3.571   6.632   0.651  1.2637  2.9883  1.2377
16766TIP3    H271790   3.572   6.672   0.505 -0.1412 -0.3547  0.1985
16767TIP3   OH271791   6.328   3.649  13.263  0.5006  0.3697  0.1115
16767TIP3    H171792   6.388   3.605  13.324 -0.9749 -1.4619  0.3543
16767TIP3    H271793   6.343   3.604  13.180 -0.6081 -0.2257  0.2185
16768TIP3   OH271794   6.241   6.383   6.003  0.6954  0.7107 -0.3596
16768TIP3    H171795   6.268   6.466   5.964 -0.3635  3.0193  3.2827
16768TIP3    H271796   6.145   6.383   5.998  0.6009  0.4860  0.9609
16769TIP3   OH271797   6.391   6.728   3.499  0.0933 -0.5899 -0.4976
16769TIP3    H171798   6.449   6.787   3.547 -1.1567  0.8485 -0.6834
16769TIP3    H271799   6.357   6.668   3.565 -0.1283  0.1521  0.0798
16770TIP3   OH271800   5.996   4.405   3.082 -0.1397  0.0009 -0.9772
16770TIP3    H171801   5.969   4.315   3.064  0.8586 -0.8453  1.4283
16770TIP3    H271802   6.056   4.426   3.010  1.5365 -2.1970 -0.3531
16771TIP3   OH271803   3.178   1.393  13.270  0.0242 -0.1971  0.8031
16771TIP3    H171804   3.226   1.456  13.323 -1.1354  0.8159  0.6780
16771TIP3    H271805   3.131   1.339  13.334  0.7276 -0.7213  0.8923
16772TIP3   OH271806   5.603   2.919   0.531  0.0468 -0.2866  0.0637
16772TIP3    H171807   5.662   2.921   0.606  0.6969  1.2061 -0.4460
16772TIP3    H271808   5.544   2.994   0.545  0.1639 -0.0047 -0.8876
16773TIP3   OH271809   4.636   4.389   0.608  0.1055  0.8592 -0.2748
16773TIP3    H171810   4.651   4.341   0.689  3.0155 -0.7325 -1.6089
16773TIP3    H271811   4.543   4.374   0.589 -0.3395  0.2429  2.0889
16774TIP3   OH271812   6.129   6.830  13.687 -0.5240 -0.4071  0.1929
16774TIP3    H171813   6.207   6.842  13.632  1.1240  0.4203  2.5751
16774TIP3    H271814   6.060   6.804  13.625  1.8216 -2.0929 -1.8999
16775TIP3   OH271815   0.393   6.530  16.445  0.1852  0.2113 -0.1883
16775TIP3    H171816   0.457   6.600  16.462  0.4792 -0.4351  1.6256
16775TIP3    H271817   0.443   6.463  16.397  1.1898 -0.6476  1.9110
16776TIP3   OH271818   3.579   4.926   2.359 -0.3932  0.4540  0.0223
16776TIP3    H171819   3.520   4.968   2.296  0.1503 -0.1468 -0.9055
16776TIP3    H271820   3.585   4.988   2.431  1.2661  2.5304 -1.7661
16777TIP3   OH271821   1.792   1.119   3.461 -0.4472 -0.1836 -0.9474
16777TIP3    H171822   1.724   1.053   3.450 -0.9038  0.4604 -2.1594
16777TIP3    H271823   1.874   1.072   3.446 -0.5889 -0.9923  0.6495
16778TIP3   OH271824   4.547   1.313  14.478 -0.1259  0.3360 -0.2574
16778TIP3    H171825   4.635   1.294  14.445 -0.3436 -3.1426  0.7986
16778TIP3    H271826   4.562   1.370  14.553  1.0178  1.3965 -1.2419
16779TIP3   OH271827   0.240   4.109  10.772  0.4846 -0.8100  0.0497
16779TIP3    H171828   0.280   4.115  10.685 -0.3188  1.4707 -0.2313
16779TIP3    H271829   0.306   4.146  10.831  0.3335 -0.7183  0.1606
16780TIP3   OH271830   5.388   6.022   4.623  0.2681  0.3817 -0.1605
16780TIP3    H171831   5.333   6.012   4.545 -1.5016  1.1121  0.9251
16780TIP3    H271832   5.342   6.088   4.676  1.6043  0.1584  1.3487
16781TIP3   OH271833   5.571   0.701  15.989 -0.1724  0.3816  0.0461
16781TIP3    H171834   5.558   0.677  15.897  0.6701  3.2111 -0.8903
16781TIP3    H271835   5.483   0.724  16.020 -0.2486  0.8046 -0.4794
16782TIP3   OH271836   2.246   5.341  14.723 -0.1734 -0.1496  0.1101
16782TIP3    H171837   2.338   5.333  14.748 -0.4951  1.2137  1.9584
16782TIP3    H271838   2.223   5.256  14.686  1.8916 -0.4089 -0.6737
16783TIP3   OH271839   4.141   1.428   6.082 -0.3098 -0.2770 -0.8332
16783TIP3    H171840   4.196   1.448   6.157  0.4911 -0.7212 -1.2864
16783TIP3    H271841   4.118   1.513   6.045 -0.0586 -0.0853 -0.5484
16784TIP3   OH271842   2.751   1.072  11.617 -0.5976  0.3329 -0.2604
16784TIP3    H171843   2.704   0.989  11.608 -0.6237  0.3336 -0.1305
16784TIP3    H271844   2.795   1.066  11.702 -3.2798  1.7763  1.3704
16785TIP3   OH271845   4.607   0.794   1.541 -0.3445  0.4496 -0.0879
16785TIP3    H171846   4.658   0.871   1.567  0.5805 -0.4328  0.7974
16785TIP3    H271847   4.640   0.724   1.596 -0.8351 -0.7054 -1.2138
16786TIP3   OH271848   3.871   6.171   1.828  0.1884  0.1396  0.0192
16786TIP3    H171849   3.945   6.230   1.816 -1.2105  2.0840  0.5070
16786TIP3    H271850   3.822   6.208   1.901 -3.0740  0.9433 -2.3288
16787TIP3   OH271851   2.148   4.090  14.836  0.1959 -0.3695  0.0831
16787TIP3    H171852   2.192   4.066  14.754  1.0739  1.0677  0.0923
16787TIP3    H271853   2.157   4.186  14.840 -1.0488 -0.2799  1.1817
16788TIP3   OH271854   3.400   4.186   3.169  0.3772 -0.5534 -0.0741
16788TIP3    H171855   3.415   4.146   3.254 -0.1712 -0.0536  0.2648
16788TIP3    H271856   3.392   4.112   3.108  0.2953 -0.9276  0.3901
16789TIP3   OH271857   0.182   6.146  12.609  0.2426 -0.0683  1.0274
16789TIP3    H171858   0.144   6.214  12.665  1.8028 -0.1190  2.2148
16789TIP3    H271859   0.273   6.173  12.598  0.2243 -0.6134 -0.6858
16790TIP3   OH271860   2.644   2.946  17.123 -0.1450  0.2551 -0.1494
16790TIP3    H171861   2.628   2.858  17.090  0.7989  0.0159 -0.0022
16790TIP3    H271862   2.718   2.936  17.183 -1.6494  0.6953  1.8856
16791TIP3   OH271863   2.360   4.487   5.652 -0.1508  0.1063 -0.1604
16791TIP3    H171864   2.273   4.502   5.615 -0.8674  0.0354  1.4088
16791TIP3    H271865   2.407   4.568   5.636 -1.3389  1.0995  1.1701
16792TIP3   OH271866   2.482   5.957  12.581 -0.0676  0.3299 -0.1855
16792TIP3    H171867   2.540   5.898  12.533 -0.7099  0.2043 -0.8242
16792TIP3    H271868   2.538   6.031  12.605 -0.1533  1.4760 -3.0454
16793TIP3   OH271869   1.744   3.281   3.348 -0.4412  0.1908 -0.0559
16793TIP3    H171870   1.827   3.268   3.303 -0.5776  0.0789 -0.2782
16793TIP3    H271871   1.740   3.375   3.366 -0.5172  0.2805 -0.5352
16794TIP3   OH271872   0.003   1.721  12.363 -0.3168  0.3697  0.3861
16794TIP3    H171873   0.025   1.728  12.456 -0.5186 -1.2852  0.5839
16794TIP3    H271874  -0.046   1.801  12.344  0.5858  1.2033  1.4443
16795TIP3   OH271875   4.786   0.931  13.569 -0.0255 -0.4545 -0.3713
16795TIP3    H171876   4.819   0.920  13.480  1.2663  1.5382 -0.2271
16795TIP3    H271877   4.701   0.973  13.558 -0.1255 -0.7412 -0.6861
16796TIP3   OH271878   5.265   4.702  13.511 -0.3782 -0.0626 -0.4585
16796TIP3    H171879   5.320   4.627  13.486 -0.8306 -0.6259  0.1900
16796TIP3    H271880   5.328   4.769  13.537  0.0436 -1.0566  1.2976
16797TIP3   OH271881   1.617   6.680   3.935 -0.4714  0.2287  0.1253
16797TIP3    H171882   1.702   6.724   3.928  0.7687 -1.9079  0.9075
16797TIP3    H271883   1.576   6.719   4.012  0.3310  0.4597  0.4493
16798TIP3   OH271884   1.927   6.028  13.288 -0.3770 -0.1189  0.1695
16798TIP3    H171885   1.866   6.077  13.343 -0.0196 -1.1509  1.5374
16798TIP3    H271886   2.000   6.006  13.347  0.0612 -1.1785 -0.7382
16799TIP3   OH271887   4.313   1.741  13.967  0.2030 -0.3259 -0.5385
16799TIP3    H171888   4.282   1.758  14.056 -0.5952 -0.0388 -0.8638
16799TIP3    H271889   4.408   1.728  13.976 -0.1062 -2.1251  0.6105
16800TIP3   OH271890   1.294   4.362  11.097  0.1908  0.3892 -0.5701
16800TIP3    H171891   1.380   4.403  11.093  0.1892  0.5835  0.8888
16800TIP3    H271892   1.232   4.436  11.098  0.0309  0.2654 -0.9707
16801TIP3   OH271893   6.083   3.712   0.970  0.0888  0.3506  0.0505
16801TIP3    H171894   6.059   3.638   0.915 -2.2029  0.6656  0.5270
16801TIP3    H271895   6.129   3.772   0.912  2.5095 -1.6129 -0.2178
16802TIP3   OH271896   0.797   5.146  10.849  0.4174  0.4541 -0.0086
16802TIP3    H171897   0.857   5.106  10.786 -2.1164 -2.9688 -0.5479
16802TIP3    H271898   0.837   5.131  10.934  0.3834 -1.9077 -0.3382
16803TIP3   OH271899   4.869   2.575  11.582 -0.1276 -0.1242 -0.0265
16803TIP3    H171900   4.829   2.595  11.498  0.0459  0.9728  0.1317
16803TIP3    H271901   4.810   2.614  11.647  0.2317 -0.1240  0.3074
16804TIP3   OH271902   1.852   1.273  13.577  0.0440  0.6682  0.2968
16804TIP3    H171903   1.920   1.287  13.512  0.1705  1.0950  0.5189
16804TIP3    H271904   1.771   1.266  13.526  0.2746 -0.0473  0.0183
16805TIP3   OH271905   1.904   3.795   1.687  0.3319 -0.3870 -0.2793
16805TIP3    H171906   1.840   3.739   1.730  0.4676 -0.5843 -0.3345
16805TIP3    H271907   1.884   3.787   1.594 -0.4393  0.6142 -0.2262
16806TIP3   OH271908   1.389   6.546   4.170  0.0176  0.1719 -0.0725
16806TIP3    H171909   1.452   6.479   4.145  0.5076  1.2896 -2.0311
16806TIP3    H271910   1.304   6.511   4.145 -0.0565 -0.8687  1.5365
16807TIP3   OH271911   4.335   5.185   0.365 -0.4578 -0.6212  0.2356
16807TIP3    H171912   4.399   5.115   0.353  0.6537  0.3976  0.0053
16807TIP3    H271913   4.342   5.209   0.458 -1.7903 -1.6914  0.6297
16808TIP3   OH271914   6.806   0.158   3.210 -0.1595  0.6706  0.4717
16808TIP3    H171915   6.743   0.210   3.260  0.7211  0.7733  1.5055
16808TIP3    H271916   6.752   0.094   3.163 -0.9788  0.0520  2.1621
16809TIP3   OH271917   1.593   6.519  16.782 -0.3039  0.8895  0.6461
16809TIP3    H171918   1.601   6.481  16.869 -3.0249  0.4073  0.7636
16809TIP3    H271919   1.619   6.449  16.722  2.5893  1.5373  0.9768
16810TIP3   OH271920   4.341   4.563   4.262  0.1777 -0.0680  0.2411
16810TIP3    H171921   4.338   4.651   4.300  0.6026 -0.0465  0.2366
16810TIP3    H271922   4.430   4.532   4.280  0.1170 -0.3928  0.0079
16811TIP3   OH271923   4.183   3.539   0.491 -0.4369  0.5829  0.6503
16811TIP3    H171924   4.144   3.624   0.472 -0.5900  0.3920  0.0585
16811TIP3    H271925   4.111   3.477   0.482 -0.2003  0.3285  0.4649
16812TIP3   OH271926   6.589   1.712  16.160 -0.2112 -0.1331 -0.9157
16812TIP3    H171927   6.590   1.633  16.214 -0.5862 -0.0397 -0.7704
16812TIP3    H271928   6.614   1.783  16.219 -0.0156 -0.1204 -1.0114
16813TIP3   OH271929   6.100   0.301   0.003  0.0804 -0.4744  0.2117
16813TIP3    H171930   6.031   0.240  -0.022 -0.0906  0.4657 -1.7845
16813TIP3    H271931   6.098   0.301   0.099 -2.2051 -0.9980  0.2172
16814TIP3   OH271932   0.185   3.674  16.088  0.0225 -0.1302 -0.0244
16814TIP3    H171933   0.121   3.603  16.086 -0.4450  0.2865 -1.4871
16814TIP3    H271934   0.238   3.661  16.009  0.9786  0.2097  0.5501
16815TIP3   OH271935   4.557   4.105  12.579 -0.3308 -0.0599 -0.3536
16815TIP3    H171936   4.634   4.122  12.633 -0.1681 -1.0999 -0.2476
16815TIP3    H271937   4.528   4.018  12.604 -1.5097  0.2807 -0.4535
16816TIP3   OH271938   1.928   0.544   3.636  0.1384 -0.2737  0.7226
16816TIP3    H171939   1.839   0.576   3.622  0.6789  1.2786  0.6476
16816TIP3    H271940   1.917   0.458   3.677 -1.4174  1.0611  3.3475
16817TIP3   OH271941   6.471   2.003  12.049  0.2808 -0.2007  0.3789
16817TIP3    H171942   6.538   2.065  12.020  0.2474 -1.3746 -2.5344
16817TIP3    H271943   6.389   2.039  12.017  0.2285 -1.5330 -1.0842
16818TIP3   OH271944   3.830   4.176  14.784  0.5209 -0.4518  0.0323
16818TIP3    H171945   3.846   4.224  14.865  0.0421  0.1482 -0.2167
16818TIP3    H271946   3.906   4.119  14.774 -0.4107 -2.1653  2.0474
16819TIP3   OH271947   0.398   4.485   3.592 -0.5247  0.0037  0.3082
16819TIP3    H171948   0.360   4.539   3.661 -1.1878  0.6434 -0.5502
16819TIP3    H271949   0.452   4.545   3.541 -0.9462 -0.2264 -0.4123
16820TIP3   OH271950   2.808   5.828  16.180  0.4444 -0.1578  0.0766
16820TIP3    H171951   2.831   5.825  16.087  0.6641  1.8769  0.0228
16820TIP3    H271952   2.761   5.746  16.195 -2.3773  0.7526 -2.6019
16821TIP3   OH271953   6.521   0.370  14.450 -0.1570  0.3438 -0.3410
16821TIP3    H171954   6.554   0.377  14.361  2.0992 -0.2791  0.3818
16821TIP3    H271955   6.440   0.421  14.450  0.5217  1.5219 -2.3848
16822TIP3   OH271956   3.426   4.422  13.968 -0.0769  0.4738 -0.2139
16822TIP3    H171957   3.504   4.411  13.914 -0.9475 -0.5132 -1.3633
16822TIP3    H271958   3.435   4.357  14.037 -0.0052  0.1753 -0.5026
16823TIP3   OH271959   4.751   3.143   2.678  0.3674 -0.7194 -0.0796
16823TIP3    H171960   4.677   3.128   2.736 -0.5815 -0.4305 -1.1589
16823TIP3    H271961   4.785   3.228   2.704 -0.4906 -0.2704 -0.3838
16824TIP3   OH271962   2.356   0.708  16.483  0.2573  0.1397  0.0839
16824TIP3    H171963   2.396   0.757  16.411 -1.2193  0.8413 -0.2981
16824TIP3    H271964   2.307   0.774  16.532 -0.4449 -0.6913  0.5218
16825TIP3   OH271965   1.078   0.792   4.791 -0.0202  0.0818  0.5769
16825TIP3    H171966   1.067   0.697   4.789 -2.4045  0.2247  2.4329
16825TIP3    H271967   1.124   0.809   4.873  0.9423  0.5465 -0.0315
16826TIP3   OH271968   5.064   0.346   1.502  0.2541 -0.4965  0.1737
16826TIP3    H171969   5.159   0.351   1.509  0.1481  0.8470  1.2325
16826TIP3    H271970   5.032   0.362   1.591 -0.9529 -2.2076  0.0968
16827TIP3   OH271971   6.173   1.279  11.908 -0.0533 -0.3601 -0.2765
16827TIP3    H171972   6.121   1.352  11.873 -2.8119 -1.4235  1.2786
16827TIP3    H271973   6.154   1.206  11.850 -0.0846 -0.6966  0.1553
16828TIP3   OH271974   3.949   1.698  16.979  0.0990  1.1722 -0.1598
16828TIP3    H171975   3.947   1.784  17.022  0.7388  1.1006  0.0372
16828TIP3    H271976   3.907   1.712  16.894 -2.3449  1.0345  0.9440
16829TIP3   OH271977   0.101   6.814  15.345 -0.1470  0.4039 -0.1717
16829TIP3    H171978   0.038   6.882  15.323  0.0281  0.4466 -0.5403
16829TIP3    H271979   0.061   6.766  15.418 -0.7852  0.1623 -0.6794
16830TIP3   OH271980   3.352   4.449  10.704  0.3598  0.4148 -0.3184
16830TIP3    H171981   3.323   4.454  10.613 -0.1319  0.2276 -0.1768
16830TIP3    H271982   3.426   4.509  10.709  1.1788 -0.4960 -1.1336
16831TIP3   OH271983   1.464   4.454  15.218  0.1451 -0.0895 -0.4158
16831TIP3    H171984   1.428   4.401  15.147 -0.8266 -1.2890  0.9104
16831TIP3    H271985   1.519   4.393  15.267  0.9737  0.7784 -0.2287
16832TIP3   OH271986   4.475   1.101  15.995 -0.0427  0.6680  0.8421
16832TIP3    H171987   4.519   1.175  16.037  1.9029  0.0925 -0.0850
16832TIP3    H271988   4.462   1.129  15.904  0.0024  0.1684  0.6786
16833TIP3   OH271989   6.484   6.069   4.851 -0.7607 -0.5540 -0.4393
16833TIP3    H171990   6.444   6.153   4.875  2.0172  0.0554  2.7959
16833TIP3    H271991   6.493   6.074   4.756 -2.8240  1.7279 -0.6415
16834TIP3   OH271992   1.180   5.200  15.880 -0.0545  0.3646  0.1980
16834TIP3    H171993   1.192   5.147  15.959 -1.2965 -0.8703 -0.4025
16834TIP3    H271994   1.157   5.136  15.812  3.0490  1.0733 -1.7506
16835TIP3   OH271995   6.271   6.428  15.359 -0.4823 -0.1696  0.2892
16835TIP3    H171996   6.323   6.461  15.286 -1.5066  1.1468  0.1224
16835TIP3    H271997   6.315   6.347  15.385  0.7752  0.1331 -0.7919
16836TIP3   OH271998   1.962   4.312   3.272  0.5078 -0.0892 -0.2914
16836TIP3    H171999   2.038   4.268   3.310  0.4482  0.4371  0.4626
16836TIP3    H272000   1.985   4.405   3.272 -0.2400  0.1029  0.1985
16837TIP3   OH272001   0.463   2.919  14.368  0.1534  0.0398  0.1498
16837TIP3    H172002   0.380   2.872  14.362  0.2138 -0.1626  0.8516
16837TIP3    H272003   0.444   3.006  14.331  0.3355 -0.8677 -2.2481
16838TIP3   OH272004   6.189   3.689  12.940 -0.0885  0.6999 -0.5114
16838TIP3    H172005   6.212   3.682  12.847 -0.1490  0.5575 -0.5156
16838TIP3    H272006   6.183   3.599  12.970  2.4496  0.7165  0.2603
16839TIP3   OH272007   0.479   4.862   4.304 -0.2325  0.0658 -0.3315
16839TIP3    H172008   0.469   4.957   4.315  0.7070  0.2189 -0.6961
16839TIP3    H272009   0.518   4.833   4.386  0.6533  0.1911 -0.7066
16840TIP3   OH272010   3.801   4.120  13.987  0.2977  0.7038  0.2143
16840TIP3    H172011   3.722   4.084  13.947  1.1337 -1.5837  0.4793
16840TIP3    H272012   3.776   4.137  14.078 -0.1597  0.9973  0.0390
16841TIP3   OH272013   5.724   0.540  12.536 -0.2556 -0.1937 -0.1773
16841TIP3    H172014   5.709   0.466  12.594  0.2735 -1.0486 -1.1074
16841TIP3    H272015   5.715   0.617  12.593 -2.7429 -0.8394  0.4244
16842TIP3   OH272016   0.428   4.047   3.055 -0.3188 -0.1026 -0.1059
16842TIP3    H172017   0.387   4.128   3.086 -2.3416 -2.3711  3.9201
16842TIP3    H272018   0.419   3.986   3.128  1.8040 -3.7959 -2.6092
16843TIP3   OH272019   1.503   0.352  15.722  0.5964 -0.0546  0.4529
16843TIP3    H172020   1.576   0.333  15.781  0.3146  0.6657  1.0623
16843TIP3    H272021   1.428   0.307  15.762  0.2983  0.8477  0.9453
16844TIP3   OH272022   1.000   5.079  13.281 -0.5562 -0.8010 -0.0169
16844TIP3    H172023   0.946   5.093  13.358 -1.1340 -0.6250 -0.4452
16844TIP3    H272024   1.027   5.167  13.255 -0.6087 -0.8338 -0.1851
16845TIP3   OH272025   1.900   4.478  13.497 -0.1695  0.0150  0.1646
16845TIP3    H172026   1.893   4.512  13.586  0.4551  0.2721  0.1181
16845TIP3    H272027   1.953   4.542  13.451  0.3974 -0.6470 -0.1204
16846TIP3   OH272028   3.843   0.023   4.384  0.5039 -0.2300 -0.3585
16846TIP3    H172029   3.893  -0.044   4.337 -1.2249 -2.4747  0.8153
16846TIP3    H272030   3.794  -0.025   4.451  0.1006  2.3837  1.4067
16847TIP3   OH272031   4.876   2.805  12.827 -0.1157  0.2883  0.3267
16847TIP3    H172032   4.853   2.729  12.773 -0.5461 -0.5739  1.6440
16847TIP3    H272033   4.924   2.768  12.901  2.8097  1.7230 -0.7276
16848TIP3   OH272034   0.820   5.532  16.316 -0.1869 -0.0770  0.2252
16848TIP3    H172035   0.804   5.453  16.265 -0.6396  0.4958 -0.5483
16848TIP3    H272036   0.914   5.534  16.329 -0.1462 -0.5941  0.0144
16849TIP3   OH272037   1.963   1.231  14.041 -0.1838 -0.0903 -0.0012
16849TIP3    H172038   1.941   1.146  14.077  1.1221 -0.7615 -0.7115
16849TIP3    H272039   1.995   1.213  13.953 -0.5019  1.2022 -0.4042
16850TIP3   OH272040   0.423   3.762  12.673  0.3128  0.1185  0.0138
16850TIP3    H172041   0.480   3.720  12.737 -1.0722  1.0405  1.9498
16850TIP3    H272042   0.404   3.693  12.609  1.8549 -0.7859  0.4723
16851TIP3   OH272043   0.243   3.268  15.448  0.6355 -0.2359 -0.6663
16851TIP3    H172044   0.306   3.309  15.388  0.3555  0.1586 -0.6904
16851TIP3    H272045   0.165   3.256  15.395 -0.5846  2.6150  0.2963
16852TIP3   OH272046   0.943   1.826   2.472 -0.5292  0.3718  0.1569
16852TIP3    H172047   0.910   1.894   2.414 -1.1889  0.0191  0.1067
16852TIP3    H272048   0.979   1.759   2.414  0.0401  0.6424  0.2025
16853TIP3   OH272049   2.392   0.941   5.757 -0.0334  0.3453 -0.1993
16853TIP3    H172050   2.396   1.018   5.813 -1.7593  1.2362 -1.2503
16853TIP3    H272051   2.335   0.880   5.804  0.4812  0.0993  0.1254
16854TIP3   OH272052   2.430   3.691  15.431 -0.0959  0.3400  0.2448
16854TIP3    H172053   2.508   3.660  15.385  0.3898 -0.7269  1.6871
16854TIP3    H272054   2.457   3.695  15.523 -1.2948  1.4816  0.5687
16855TIP3   OH272055   3.816   3.716   4.159  0.1509 -0.0274  0.3504
16855TIP3    H172056   3.741   3.772   4.178 -0.5143 -0.9276  0.4403
16855TIP3    H272057   3.866   3.714   4.241  0.8923  1.4501 -0.0250
16856TIP3   OH272058   5.871   4.260  12.124 -0.0409  0.6502  0.0086
16856TIP3    H172059   5.826   4.301  12.198 -0.4966 -0.3454  0.3090
16856TIP3    H272060   5.884   4.169  12.151  2.0713  0.8489 -0.1167
16857TIP3   OH272061   2.637   3.638   0.408 -0.0598  0.9134  0.2892
16857TIP3    H172062   2.666   3.674   0.324 -2.4803  3.5272  0.4247
16857TIP3    H272063   2.597   3.554   0.386  0.1081  1.1675 -1.0602
16858TIP3   OH272064   0.275   4.196   3.736  0.4788  0.4412 -0.1953
16858TIP3    H172065   0.263   4.122   3.676 -0.1183  1.7922 -1.8258
16858TIP3    H272066   0.191   4.243   3.733  0.1016  0.0458  2.4662
16859TIP3   OH272067   3.457   3.775  10.534  0.0846 -0.5859  0.2207
16859TIP3    H172068   3.423   3.832  10.603 -0.5307  0.6321 -1.0364
16859TIP3    H272069   3.506   3.708  10.581 -0.7957 -0.1446  1.8735
16860TIP3   OH272070   2.337   2.184  13.836  0.0763 -0.8367 -0.6531
16860TIP3    H172071   2.308   2.136  13.758  0.3317 -0.9359 -0.6890
16860TIP3    H272072   2.320   2.123  13.909 -0.0099 -0.8068 -0.6473
16861TIP3   OH272073   0.488   0.622   5.745  0.5640  0.1406  0.0602
16861TIP3    H172074   0.531   0.631   5.830 -0.9758 -2.4260  1.2456
16861TIP3    H272075   0.557   0.593   5.686  1.6082  1.7427  0.4092
16862TIP3   OH272076   1.994   6.280   5.636 -0.3531 -0.1728  0.2337
16862TIP3    H172077   1.901   6.302   5.627 -0.1579  0.2029 -1.1030
16862TIP3    H272078   1.998   6.187   5.613 -0.7660 -1.0146  3.1104
16863TIP3   OH272079   5.849   3.763   0.706  0.1810 -0.1921  0.0341
16863TIP3    H172080   5.884   3.739   0.621  0.4539 -1.7583  0.5559
16863TIP3    H272081   5.834   3.679   0.751  0.3997  0.5905  1.6604
16864TIP3   OH272082   3.333   3.985   5.780  0.5566 -0.3364 -0.0493
16864TIP3    H172083   3.249   3.943   5.758  0.2263  0.7782 -0.9630
16864TIP3    H272084   3.382   3.986   5.698  0.7186  0.7085  0.0543
16865TIP3   OH272085   3.080   2.597   4.226  0.5794 -0.8669 -0.4571
16865TIP3    H172086   3.013   2.532   4.204 -1.1627 -0.2493  2.5252
16865TIP3    H272087   3.031   2.673   4.257  2.6638  0.4000 -0.1029
16866TIP3   OH272088   2.840   0.839  10.901  0.3274  0.1837  0.0734
16866TIP3    H172089   2.775   0.807  10.838  0.4936 -0.4062  0.1898
16866TIP3    H272090   2.880   0.914  10.858 -1.3320  1.4038  0.5286
16867TIP3   OH272091   1.136   5.950   0.096  0.4320 -0.6979 -0.6261
16867TIP3    H172092   1.190   6.017   0.055 -0.3917 -1.1692 -2.5902
16867TIP3    H272093   1.092   5.906   0.023 -3.2757  0.2105  0.8320
16868TIP3   OH272094   3.368   6.572   0.757  0.2884  0.7965  0.0921
16868TIP3    H172095   3.323   6.640   0.808  0.2458  1.0958 -0.3390
16868TIP3    H272096   3.314   6.562   0.679  0.8333  0.9780 -0.3150
16869TIP3   OH272097   3.531   5.938  11.798 -0.5176 -0.4907  0.2519
16869TIP3    H172098   3.489   6.005  11.852  0.3165 -0.4410  0.8570
16869TIP3    H272099   3.515   5.856  11.843 -0.6228 -0.5701  0.0732
16870TIP3   OH272100   6.378   1.479  16.710  0.4885 -0.0613  0.2399
16870TIP3    H172101   6.407   1.525  16.789  0.8293  0.4439 -0.1666
16870TIP3    H272102   6.301   1.430  16.737  0.6533  0.0335  0.9054
16871TIP3   OH272103   6.702   6.513   3.052 -0.0442 -0.4743 -0.0108
16871TIP3    H172104   6.706   6.523   2.957  0.9806  0.0785  0.0761
16871TIP3    H272105   6.609   6.520   3.073 -0.0567  3.0893 -0.6120
16872TIP3   OH272106   0.606   4.255   1.701  0.6901  0.2769  0.0071
16872TIP3    H172107   0.587   4.167   1.669  0.8744  0.2656 -0.0755
16872TIP3    H272108   0.608   4.246   1.796 -0.7114  0.4879  0.0653
16873TIP3   OH272109   5.073   0.401  13.358  0.1636  0.0015 -0.1208
16873TIP3    H172110   5.077   0.386  13.263 -0.4060 -3.5762  0.2761
16873TIP3    H272111   5.140   0.344  13.394 -0.0513  0.8372  1.7186
16874TIP3   OH272112   0.284   4.217  16.486 -0.1299 -0.5890 -0.3127
16874TIP3    H172113   0.247   4.299  16.453  0.3555 -0.2847 -0.1124
16874TIP3    H272114   0.372   4.241  16.517 -0.5464 -0.8627  1.1626
16875TIP3   OH272115   2.501   0.832  11.383  0.0047  0.4186  0.4788
16875TIP3    H172116   2.455   0.888  11.446 -0.4046  1.2270 -0.5252
16875TIP3    H272117   2.588   0.870  11.377 -0.3202  1.0528 -0.3168
16876TIP3   OH272118   2.601   5.494  15.225  0.2713  0.1754  0.0715
16876TIP3    H172119   2.524   5.486  15.169  0.8461  1.0960 -0.8746
16876TIP3    H272120   2.573   5.456  15.308 -0.4692 -1.6152 -0.9331
16877TIP3   OH272121   0.717   0.076  13.093  0.5971 -0.1497  0.7802
16877TIP3    H172122   0.767   0.114  13.020  1.0188 -0.0461  1.1191
16877TIP3    H272123   0.627   0.072  13.061  0.4252  1.6902  0.9357
16878TIP3   OH272124   6.450   1.602   2.704  0.0829  0.3589  1.0061
16878TIP3    H172125   6.429   1.653   2.782  2.0006  2.2464  0.3758
16878TIP3    H272126   6.532   1.558   2.725  0.0920  0.0705  0.4029
16879TIP3   OH272127   5.683   0.100   1.425 -0.0663 -0.1723  0.0001
16879TIP3    H172128   5.767   0.057   1.437  0.3849  0.9513  1.1114
16879TIP3    H272129   5.633   0.079   1.505 -0.7354 -0.5860 -0.5159
16880TIP3   OH272130   6.016   2.805   2.910  0.3278  0.1900  0.2985
16880TIP3    H172131   6.037   2.738   2.974  0.5739  0.4316  0.4759
16880TIP3    H272132   5.945   2.856   2.949 -0.8471 -0.8377 -0.4504
16881TIP3   OH272133   3.926   4.667   2.566  0.0637 -0.0032  0.1655
16881TIP3    H172134   3.996   4.626   2.516  1.6917  0.5453  1.8820
16881TIP3    H272135   3.895   4.597   2.624  0.6491  0.2894  0.8527
16882TIP3   OH272136   1.911   1.458  12.885  0.2519 -0.1680 -0.2558
16882TIP3    H172137   1.915   1.362  12.883  0.9744 -0.1281 -0.8432
16882TIP3    H272138   1.877   1.478  12.973  1.8634 -0.9117  0.5915
16883TIP3   OH272139   3.359   1.790   0.425  0.2903 -0.0074  0.3915
16883TIP3    H172140   3.360   1.824   0.514 -0.5865  0.1600  0.3434
16883TIP3    H272141   3.428   1.839   0.380  0.9419 -0.3075  1.0494
16884TIP3   OH272142   6.823   5.814   1.027 -0.7861 -0.0957  0.8510
16884TIP3    H172143   6.866   5.883   1.078  0.4490 -0.8635  0.8893
16884TIP3    H272144   6.785   5.756   1.093 -3.0386  1.2367  0.8105
16885TIP3   OH272145   2.131   3.064  16.692  0.5342 -0.4822  0.0249
16885TIP3    H172146   2.062   3.030  16.749 -0.8951 -0.8274 -1.8196
16885TIP3    H272147   2.139   2.998  16.624  1.8724  0.1430 -0.4522
16886TIP3   OH272148   6.347   5.500   1.530 -0.0329  0.1368  0.4384
16886TIP3    H172149   6.275   5.530   1.586  1.0702  2.2244  0.8439
16886TIP3    H272150   6.308   5.432   1.475 -1.7386 -0.3218  2.1278
16887TIP3   OH272151   4.003   6.201   5.590  0.1681 -0.2522 -0.7684
16887TIP3    H172152   3.938   6.271   5.586 -0.0808 -0.4770 -0.7234
16887TIP3    H272153   4.014   6.174   5.498 -1.5070 -1.7460 -0.5979
16888TIP3   OH272154   0.861   2.204  13.008  0.2460 -0.3522 -0.1066
16888TIP3    H172155   0.953   2.204  13.035  0.4669 -0.7534 -0.8082
16888TIP3    H272156   0.830   2.291  13.029  0.7233 -0.2882  0.3599
16889TIP3   OH272157   6.266   1.389  17.034 -0.2901 -0.7277 -0.0304
16889TIP3    H172158   6.199   1.390  16.966 -2.7866 -1.4674  2.2709
16889TIP3    H272159   6.272   1.479  17.064 -1.3656 -0.9043  0.7456
16890TIP3   OH272160   0.027   0.003  12.927 -0.3006 -0.5575  0.0763
16890TIP3    H172161  -0.009   0.077  12.976 -0.5691 -1.2462  0.9422
16890TIP3    H272162   0.034   0.035  12.837  2.0870  1.4193  0.8706
16891TIP3   OH272163   3.171   2.321  13.919  0.1245  0.5004 -0.1165
16891TIP3    H172164   3.242   2.357  13.972  1.0086  1.3740 -1.7865
16891TIP3    H272165   3.126   2.399  13.884 -1.8355 -0.0369  1.0993
16892TIP3   OH272166   3.119   4.427  11.171  0.5837 -0.1513  0.3220
16892TIP3    H172167   3.120   4.408  11.077  0.8449 -0.9995  0.4849
16892TIP3    H272168   3.207   4.458  11.190  0.5139  0.0752  0.2757
16893TIP3   OH272169   0.872   4.174   0.723  0.7061 -0.6894  0.0880
16893TIP3    H172170   0.955   4.187   0.769 -0.5675  0.8263  2.1172
16893TIP3    H272171   0.856   4.257   0.679 -1.1625  0.2644  2.3295
16894TIP3   OH272172   1.669   3.130  10.434  0.1802  0.4185  0.0652
16894TIP3    H172173   1.745   3.180  10.464 -1.4539  1.0349  3.6547
16894TIP3    H272174   1.593   3.183  10.460 -1.5915 -0.8043 -2.1474
16895TIP3   OH272175   3.155   1.483   3.629  0.2235 -0.0723  0.2145
16895TIP3    H172176   3.190   1.454   3.544 -1.5924 -0.8486 -0.3168
16895TIP3    H272177   3.100   1.410   3.658 -1.4331  1.3203  0.7034
16896TIP3   OH272178   6.551   4.195   1.047 -0.0269  0.3977 -0.2848
16896TIP3    H172179   6.496   4.195   1.125  1.4600 -0.2006  0.8252
16896TIP3    H272180   6.613   4.266   1.061  1.4731 -0.9070  0.0328
16897TIP3   OH272181   2.555   1.987   2.216 -0.2616 -0.1253  0.4470
16897TIP3    H172182   2.577   2.019   2.129 -1.6345  0.2083  0.1971
16897TIP3    H272183   2.466   1.952   2.207 -0.1206 -0.8205  1.5327
16898TIP3   OH272184   1.782   1.786   0.440  0.4480  0.3103 -0.6895
16898TIP3    H172185   1.719   1.816   0.375 -1.1386 -0.0703  0.6000
16898TIP3    H272186   1.742   1.809   0.524  1.3488 -1.2412  0.2023
16899TIP3   OH272187   2.956   3.866  13.823  0.8932  0.4159  0.8923
16899TIP3    H172188   2.877   3.851  13.876  0.2992  0.6225  0.0760
16899TIP3    H272189   3.008   3.787  13.836  0.1054 -0.1554  0.6707
16900TIP3   OH272190   3.866   1.179   5.222  1.3930 -0.3513  0.1972
16900TIP3    H172191   3.778   1.143   5.229  1.8845 -1.6157  0.1641
16900TIP3    H272192   3.884   1.215   5.309  0.0670  1.8980 -0.3739
16901TIP3   OH272193   4.649   2.078  14.285 -0.1814 -0.0766 -0.0475
16901TIP3    H172194   4.564   2.087  14.243 -0.1329 -1.5843 -0.5029
16901TIP3    H272195   4.672   1.986  14.274  2.0611  0.5309 -1.0195
16902TIP3   OH272196   2.363   6.607  13.980  0.2923 -0.4167 -0.0512
16902TIP3    H172197   2.426   6.584  14.048 -0.5301 -0.7509  0.6064
16902TIP3    H272198   2.359   6.703  13.982  0.0081 -0.4391  0.6169
16903TIP3   OH272199   1.604   2.834   4.992  0.3474  0.0977  0.0547
16903TIP3    H172200   1.688   2.788   5.000  0.0766 -0.6474 -1.2103
16903TIP3    H272201   1.601   2.891   5.070  1.6536 -0.4452  0.5361
16904TIP3   OH272202   2.200   3.836   0.015  0.2449  0.0017 -0.3158
16904TIP3    H172203   2.225   3.746   0.034 -1.5285 -0.2628  0.9464
16904TIP3    H272204   2.138   3.830  -0.058  0.7802  0.2934 -0.8034
16905TIP3   OH272205   4.692   0.767   3.581  0.5044 -0.4585 -0.3455
16905TIP3    H172206   4.646   0.756   3.665  0.7723  0.5344 -0.0621
16905TIP3    H272207   4.760   0.832   3.599  0.2860  0.0890 -1.4403
16906TIP3   OH272208   2.202   0.296  11.425 -0.3832 -0.5177  0.4333
16906TIP3    H172209   2.271   0.236  11.451  2.1773  2.4670  1.1543
16906TIP3    H272210   2.142   0.297  11.500 -0.4007 -1.9623  0.4687
16907TIP3   OH272211   6.584   0.808   5.448 -0.6337  0.0586 -0.6223
16907TIP3    H172212   6.588   0.882   5.388  1.2856 -2.8571 -4.4853
16907TIP3    H272213   6.672   0.802   5.486 -0.8525 -0.1166 -0.1279
16908TIP3   OH272214   2.638   3.681   5.704 -0.3772  0.3958  0.0234
16908TIP3    H172215   2.617   3.728   5.624  1.2540  0.3922 -0.4257
16908TIP3    H272216   2.627   3.588   5.681 -0.7353  0.4239  0.0680
16909TIP3   OH272217   1.765   6.247  16.226  0.4232 -0.3462  0.9259
16909TIP3    H172218   1.775   6.342  16.229  2.2091 -0.5294  1.5578
16909TIP3    H272219   1.807   6.221  16.143 -1.0029 -0.5170  0.2190
16910TIP3   OH272220   5.158   3.515  14.841  0.4669  0.5394  0.4063
16910TIP3    H172221   5.219   3.533  14.770 -0.1348 -1.0148 -0.5547
16910TIP3    H272222   5.094   3.455  14.803  1.2490 -1.9704  2.7365
16911TIP3   OH272223   2.684   3.788   6.407 -0.0992 -0.4891  0.3983
16911TIP3    H172224   2.639   3.738   6.339 -0.1170 -0.2583  0.2401
16911TIP3    H272225   2.651   3.877   6.397  1.1144 -0.0991 -0.3606
16912TIP3   OH272226   4.906   4.564  16.588  0.3086  0.0557 -0.3964
16912TIP3    H172227   4.990   4.588  16.627  0.9767 -0.3842 -1.5072
16912TIP3    H272228   4.841   4.583  16.656  1.0930  2.2194 -0.1788
16913TIP3   OH272229   3.437   0.129  10.974  0.3724 -0.2853 -0.2672
16913TIP3    H172230   3.453   0.046  10.929  0.4110  0.3947 -1.5684
16913TIP3    H272231   3.362   0.167  10.927 -1.3267 -0.7031  1.9112
16914TIP3   OH272232   6.108   5.709  13.439 -0.5516 -0.0237  0.2843
16914TIP3    H172233   6.150   5.631  13.474 -0.6194 -0.0807  0.2379
16914TIP3    H272234   6.038   5.676  13.383 -1.4815  0.0703  1.3558
16915TIP3   OH272235   0.789   3.364   3.210 -0.5585  0.3479 -0.3407
16915TIP3    H172236   0.718   3.368   3.147 -0.0281  1.2495 -0.9021
16915TIP3    H272237   0.843   3.441   3.191 -1.2909  1.6404  2.3163
16916TIP3   OH272238   3.806   2.955  13.522 -0.5861 -0.0546 -0.1973
16916TIP3    H172239   3.789   2.933  13.431  0.0806  0.7362 -0.5239
16916TIP3    H272240   3.872   3.024  13.519  0.7950 -1.2380  0.9336
16917TIP3   OH272241   3.251   5.052  13.810 -0.2290 -0.3231  0.3016
16917TIP3    H172242   3.295   5.101  13.880  2.5124 -0.4374 -1.1932
16917TIP3    H272243   3.168   5.097  13.797  0.0918  0.9485  2.2039
16918TIP3   OH272244   4.543   4.442   3.267  0.5468  0.1293  0.2543
16918TIP3    H172245   4.543   4.372   3.201  1.1740  0.8165 -0.4992
16918TIP3    H272246   4.551   4.396   3.350  2.1884 -0.6634 -0.2951
16919TIP3   OH272247   6.536   4.458  16.016  0.1577 -0.0858 -0.2921
16919TIP3    H172248   6.456   4.414  15.987  0.5752 -0.4465 -0.9096
16919TIP3    H272249   6.607   4.410  15.973  0.6873  0.4491 -0.0255
16920TIP3   OH272250   6.700   3.405   0.189  0.0944  0.0955 -0.3344
16920TIP3    H172251   6.641   3.358   0.248  0.3559 -3.0126 -2.3093
16920TIP3    H272252   6.657   3.489   0.175 -1.7469 -0.4545  1.4630
16921TIP3   OH272253   5.092   3.734   4.522 -0.2769  0.1183 -0.6905
16921TIP3    H172254   5.162   3.753   4.459  0.3040  1.9373  0.4234
16921TIP3    H272255   5.013   3.732   4.468  0.5884 -2.2869 -2.0230
16922TIP3   OH272256   2.031   3.205   4.978 -0.4688  0.3772 -0.0281
16922TIP3    H172257   2.004   3.296   4.965  0.7134  0.8288  0.6148
16922TIP3    H272258   2.073   3.203   5.064  1.1810 -0.3662 -0.7931
16923TIP3   OH272259   3.486   1.105   0.454  0.3060  0.3829 -0.0499
16923TIP3    H172260   3.421   1.077   0.389  0.3197 -2.0371  0.8956
16923TIP3    H272261   3.570   1.077   0.418  0.9983  3.5571 -1.2983
16924TIP3   OH272262   0.407   6.680   1.899  0.5886 -0.1682 -0.6558
16924TIP3    H172263   0.414   6.665   1.805 -1.2627  0.4720 -0.9482
16924TIP3    H272264   0.314   6.697   1.913  1.1095  1.7039  0.9855
16925TIP3   OH272265   0.230   1.858  11.320  0.5501  0.9489 -0.1722
16925TIP3    H172266   0.179   1.797  11.267  1.2208  0.9031 -0.7704
16925TIP3    H272267   0.204   1.945  11.289 -0.9836  1.0365  1.2014
16926TIP3   OH272268   4.216   2.691  16.034 -0.0178 -0.1942  0.0408
16926TIP3    H172269   4.210   2.786  16.047  1.0200 -0.3844  2.3148
16926TIP3    H272270   4.300   2.679  15.989  0.3757 -0.1069  0.7454
16927TIP3   OH272271   2.609   0.061  15.849 -0.4161 -0.9412  0.4652
16927TIP3    H172272   2.651   0.093  15.769  1.6098 -2.1756  0.9584
16927TIP3    H272273   2.547  -0.006  15.818 -0.1814 -0.8936 -0.1237
16928TIP3   OH272274   4.499   5.050   2.231 -0.0249  0.3514 -0.3630
16928TIP3    H172275   4.558   5.019   2.299  1.2432 -0.3720 -1.7282
16928TIP3    H272276   4.464   5.132   2.265  0.5453 -0.0093  1.1605
16929TIP3   OH272277   4.470   3.078   1.539 -0.4480 -0.3817 -0.1808
16929TIP3    H172278   4.395   3.082   1.480  0.2298  0.0843 -1.0357
16929TIP3    H272279   4.531   3.018   1.496 -0.8969 -1.8937  1.2070
16930TIP3   OH272280   1.353   0.153   0.019 -0.3734  0.5719  0.4902
16930TIP3    H172281   1.266   0.152  -0.021 -0.1608  0.3037  0.0082
16930TIP3    H272282   1.357   0.234   0.069  1.0559  3.6721 -3.9961
16931TIP3   OH272283   5.338   0.011   3.410 -0.4855  0.1431 -0.2894
16931TIP3    H172284   5.431   0.001   3.390 -1.0842 -1.2806 -2.7917
16931TIP3    H272285   5.328  -0.027   3.497  1.2670  0.3153  0.0180
16932TIP3   OH272286   0.407   5.772  13.032 -0.6094  0.3703  0.6154
16932TIP3    H172287   0.312   5.773  13.029 -0.6382 -1.6066 -1.3559
16932TIP3    H272288   0.434   5.808  12.947  0.3233 -1.2288  0.2003
16933TIP3   OH272289   3.866   5.061  15.014 -0.3466  0.0643  0.1556
16933TIP3    H172290   3.790   5.004  15.023 -0.8383  0.4088 -1.5471
16933TIP3    H272291   3.860   5.120  15.090 -0.7383 -1.0640  1.0374
16934TIP3   OH272292   3.407   1.363   1.439 -0.0170  0.3059  0.1208
16934TIP3    H172293   3.457   1.445   1.437  1.4837 -0.4817  2.0376
16934TIP3    H272294   3.322   1.388   1.473  0.4845  1.0590  0.8628
16935TIP3   OH272295   4.170   5.715  15.410 -0.0543  1.0079 -0.5464
16935TIP3    H172296   4.265   5.701  15.406  0.1798  1.6565  1.6189
16935TIP3    H272297   4.161   5.805  15.443 -1.3903  0.3077  1.1041
16936TIP3   OH272298   0.970   3.274   4.160  0.2979  0.2752 -0.0142
16936TIP3    H172299   0.892   3.316   4.123  0.4703 -0.4944 -1.3036
16936TIP3    H272300   0.941   3.244   4.246 -1.2798 -1.1603 -0.9692
16937TIP3   OH272301   4.654   0.411  12.300  0.4041 -0.1802 -0.6330
16937TIP3    H172302   4.705   0.342  12.344 -0.0470 -0.4446 -0.5166
16937TIP3    H272303   4.601   0.450  12.369 -0.8227 -1.0575 -1.0251
16938TIP3   OH272304   3.851   6.098   3.123 -0.0905  0.1936  0.4114
16938TIP3    H172305   3.816   6.119   3.209 -0.5163 -2.6560  1.0475
16938TIP3    H272306   3.791   6.032   3.088  1.2458 -0.2761 -1.1490
16939TIP3   OH272307   0.229   2.099  11.963  0.1868 -0.2170 -0.1407
16939TIP3    H172308   0.258   2.177  11.916 -0.2914 -1.6350 -3.0590
16939TIP3    H272309   0.310   2.057  11.992  0.7677 -0.5991 -2.1042
16940TIP3   OH272310   2.315   0.433   1.354 -0.1595  0.7407  0.0548
16940TIP3    H172311   2.304   0.352   1.404 -0.5822  0.2907 -0.7304
16940TIP3    H272312   2.284   0.410   1.266 -3.0544  2.5243  0.4788
16941TIP3   OH272313   4.751   3.900   3.685 -0.2723 -0.7233  0.3771
16941TIP3    H172314   4.755   3.900   3.781 -0.2858 -3.4825  0.4520
16941TIP3    H272315   4.789   3.984   3.660 -0.5804  0.2286  2.7948
16942TIP3   OH272316   4.398   4.566  12.370  0.1208  0.6247 -0.2495
16942TIP3    H172317   4.309   4.533  12.367  0.4489 -0.2575 -0.7480
16942TIP3    H272318   4.442   4.511  12.434 -0.1089  2.1751  1.2994
16943TIP3   OH272319   0.186   6.750  14.129 -0.1695 -0.6243 -0.0241
16943TIP3    H172320   0.122   6.689  14.093 -0.2286  0.4999 -1.9578
16943TIP3    H272321   0.231   6.700  14.198 -1.2439 -2.3170 -0.4944
16944TIP3   OH272322   2.172   0.554  15.320  0.3550  0.1395  0.2602
16944TIP3    H172323   2.079   0.535  15.333  0.8134 -1.7052  1.2055
16944TIP3    H272324   2.173   0.628  15.259 -1.7153  0.1188  0.1210
16945TIP3   OH272325   3.511   0.374   5.501  0.2730 -0.1162  0.1979
16945TIP3    H172326   3.420   0.399   5.488  0.2936 -0.4349 -0.6792
16945TIP3    H272327   3.554   0.453   5.533 -0.3904 -0.0812  1.0034
16946TIP3   OH272328   2.862   5.473  15.102  0.7263 -0.0055 -0.0211
16946TIP3    H172329   2.798   5.438  15.164 -0.2376 -0.4707 -1.2418
16946TIP3    H272330   2.900   5.549  15.147 -0.5567  0.1758  0.8016
16947TIP3   OH272331   4.266   4.380   5.516 -0.5093  0.2583  0.6489
16947TIP3    H172332   4.306   4.440   5.452 -1.4756  1.0171  0.7340
16947TIP3    H272333   4.308   4.403   5.599  0.1319 -0.1468  0.4448
16948TIP3   OH272334   1.463   1.981   0.692 -0.1836 -0.0252  0.2122
16948TIP3    H172335   1.422   2.036   0.626 -0.9257 -1.0977 -0.2463
16948TIP3    H272336   1.477   2.039   0.767 -1.1781  0.7261 -0.1676
16949TIP3   OH272337   4.638   5.079  15.820  0.4387  0.0574 -0.3867
16949TIP3    H172338   4.544   5.086  15.833  0.2092 -1.6182 -0.8282
16949TIP3    H272339   4.647   5.039  15.733  1.5841  0.7706 -0.6253
16950TIP3   OH272340   2.746   1.478   1.559  0.4057  0.0367  0.3803
16950TIP3    H172341   2.698   1.399   1.534  0.2788  0.4677 -0.8132
16950TIP3    H272342   2.810   1.490   1.488  1.8595 -0.1726  1.6162
16951TIP3   OH272343   4.034   3.390   4.851 -0.1665  0.2528 -0.3238
16951TIP3    H172344   4.073   3.359   4.932 -1.1958 -1.3250 -0.3665
16951TIP3    H272345   3.949   3.346   4.848 -0.4838  0.9117 -1.8588
16952TIP3   OH272346   5.026   5.458   4.553 -0.0260 -0.2952 -0.3093
16952TIP3    H172347   5.047   5.542   4.512 -0.1480 -0.9274 -1.7467
16952TIP3    H272348   5.108   5.431   4.595  0.9810 -0.8903 -2.5137
16953TIP3   OH272349   3.037   4.150  11.271 -0.0185  0.1566  0.2598
16953TIP3    H172350   3.042   4.242  11.246 -0.2832  0.5785  1.6589
16953TIP3    H272351   3.106   4.107  11.221  0.0761  1.1102 -0.4389
16954TIP3   OH272352   4.874   6.548   2.008 -0.3851  0.1849  0.2716
16954TIP3    H172353   4.826   6.476   1.967  0.2135  0.7519 -1.4925
16954TIP3    H272354   4.867   6.621   1.946  0.7326  1.0152  1.0740
16955TIP3   OH272355   0.422   1.172  16.096 -0.1193 -0.1978  0.1522
16955TIP3    H172356   0.418   1.244  16.160  1.6722 -1.2168  1.5040
16955TIP3    H272357   0.378   1.099  16.139 -0.8119 -0.2933 -0.6932
16956TIP3   OH272358   2.303   4.988  15.703 -0.0816 -0.3086  0.1571
16956TIP3    H172359   2.322   4.928  15.776  0.5387  0.0786  0.3267
16956TIP3    H272360   2.239   5.050  15.738  0.4230  0.0446  0.4689
16957TIP3   OH272361   5.572   6.025   0.096 -0.2367  0.1660 -0.2273
16957TIP3    H172362   5.563   6.092   0.163  0.6876  0.1552 -0.0810
16957TIP3    H272363   5.505   5.961   0.117 -0.5328  0.5987  0.1667
16958TIP3   OH272364   6.541   1.455  14.794  0.2389  0.7296  0.5596
16958TIP3    H172365   6.611   1.440  14.732  0.0349  4.7806 -0.9503
16958TIP3    H272366   6.582   1.504  14.866 -0.5517  1.0816  0.7940
16959TIP3   OH272367   1.570   6.640   4.346 -0.3435 -0.3730 -0.0355
16959TIP3    H172368   1.508   6.600   4.285  0.1723 -0.5257 -0.4721
16959TIP3    H272369   1.530   6.629   4.432 -1.0365 -0.2402 -0.3318
16960TIP3   OH272370   1.598   1.771  16.456 -0.4011  0.0514  0.1450
16960TIP3    H172371   1.580   1.776  16.362 -3.4929  0.8594  0.6558
16960TIP3    H272372   1.632   1.858  16.478 -1.1066  0.3729 -0.0055
16961TIP3   OH272373   2.614   6.563   5.520 -0.3857  0.2131  0.0424
16961TIP3    H172374   2.555   6.606   5.458 -2.2181 -1.2997  0.6408
16961TIP3    H272375   2.642   6.484   5.475  1.0378  0.7988 -0.1377
16962TIP3   OH272376   0.166   6.614   2.140 -0.3085  0.0554  0.6401
16962TIP3    H172377   0.143   6.699   2.104 -0.4880  0.3786  1.4925
16962TIP3    H272378   0.122   6.611   2.225 -0.2866 -0.8791  0.6327
16963TIP3   OH272379   0.075   1.598  11.900  0.0426 -0.1253  0.0523
16963TIP3    H172380   0.123   1.633  11.974 -0.5013 -0.8369  0.7590
16963TIP3    H272381   0.042   1.513  11.930 -0.2537 -0.3879 -0.9709
16964TIP3   OH272382   4.009   5.822  11.106 -0.1328 -0.3432  0.2937
16964TIP3    H172383   3.997   5.856  11.018  1.9771 -0.7525 -0.2070
16964TIP3    H272384   4.095   5.856  11.133 -0.1881 -1.2402  1.7147
16965TIP3   OH272385   0.049   2.317  12.143  0.5710 -0.0463  0.1935
16965TIP3    H172386  -0.010   2.327  12.218  0.3546 -1.9539  0.3187
16965TIP3    H272387   0.134   2.348  12.176 -0.2431  2.7178  0.0099
16966TIP3   OH272388   3.598   4.292  14.618  0.4650 -0.1616 -0.5704
16966TIP3    H172389   3.655   4.241  14.675  0.3184  0.1114 -0.1713
16966TIP3    H272390   3.536   4.228  14.583 -1.9040  0.1787  2.5845
16967TIP3   OH272391   4.864   3.028   2.898  0.4723 -0.0293 -0.0007
16967TIP3    H172392   4.855   3.016   2.803  0.1912  0.8984 -0.0975
16967TIP3    H272393   4.934   3.092   2.907 -0.1374  0.5950  0.3800
16968TIP3   OH272394   0.083   5.425   1.801 -0.1639  0.0289 -0.4025
16968TIP3    H172395   0.134   5.372   1.862  0.4187  1.7244  0.6365
16968TIP3    H272396   0.128   5.414   1.717 -1.1756 -2.6018 -0.7151
16969TIP3   OH272397   1.873   5.235  14.153  0.2188  0.0648  0.2511
16969TIP3    H172398   1.855   5.165  14.215 -0.0465 -0.5272 -0.4736
16969TIP3    H272399   1.790   5.283  14.145  0.6332  1.0002  1.3907
16970TIP3   OH272400   3.304   0.137  11.355  0.1095  0.1373  0.2400
16970TIP3    H172401   3.276   0.062  11.303  0.4158  0.6783 -0.7417
16970TIP3    H272402   3.338   0.199  11.290 -1.4132  1.7011  0.8439
16971TIP3   OH272403   2.337   2.099  16.340 -0.4679 -0.5692  0.3560
16971TIP3    H172404   2.324   2.122  16.248  2.8192  1.1958  0.1989
16971TIP3    H272405   2.308   2.177  16.388  1.0106 -0.1190  0.5498
16972TIP3   OH272406   4.865   2.708  12.224 -0.1124  0.8808 -0.1889
16972TIP3    H172407   4.808   2.771  12.180 -0.7795 -0.1887 -0.9187
16972TIP3    H272408   4.925   2.679  12.155  1.0130  1.6361  0.4558
16973TIP3   OH272409   3.298   1.007   0.270 -0.1140 -0.2321  0.1155
16973TIP3    H172410   3.232   1.076   0.280  1.3069  0.9668  1.7830
16973TIP3    H272411   3.280   0.970   0.183 -1.8322  1.2493 -0.2365
16974TIP3   OH272412   2.831   2.043   4.376 -0.2898 -0.3106 -0.1936
16974TIP3    H172413   2.848   2.129   4.339  1.0621 -0.0887  0.8421
16974TIP3    H272414   2.914   1.996   4.366 -0.7592 -1.2091 -0.0028
16975TIP3   OH272415   0.169   5.373   1.501 -0.5129 -0.0050  0.1246
16975TIP3    H172416   0.188   5.317   1.426  1.1252 -0.6681  0.9931
16975TIP3    H272417   0.159   5.461   1.464  1.2687 -0.1495 -0.7896
16976TIP3   OH272418   2.433   1.869   0.054  0.2384 -0.0045 -0.3790
16976TIP3    H172419   2.353   1.830   0.020 -0.7421  1.6202 -0.0607
16976TIP3    H272420   2.437   1.842   0.146  0.3324 -0.4824 -0.5206
16977TIP3   OH272421   4.603   1.763  12.178  0.3794  0.1358  0.0707
16977TIP3    H172422   4.547   1.731  12.108  1.0093 -1.1638  0.1410
16977TIP3    H272423   4.650   1.837  12.140 -0.0911  0.1297 -0.5271
16978TIP3   OH272424   3.076   3.836  14.586  0.2321  0.5613  0.5244
16978TIP3    H172425   3.017   3.865  14.656 -0.8099  0.9288 -0.4752
16978TIP3    H272426   3.077   3.908  14.523 -0.8947 -0.7428 -1.0770
16979TIP3   OH272427   4.533   5.140   0.149  0.1472 -0.1189  0.1105
16979TIP3    H172428   4.609   5.126   0.092  1.8831  3.1429  1.3801
16979TIP3    H272429   4.544   5.077   0.220  0.4989 -1.0363 -0.7294
16980TIP3   OH272430   5.279   4.174   5.812  0.0992 -0.0654  0.7250
16980TIP3    H172431   5.257   4.123   5.890 -1.8783 -0.8158 -0.2547
16980TIP3    H272432   5.203   4.231   5.799  0.1432 -0.3456 -0.9632
16981TIP3   OH272433   1.076   2.716   5.311 -0.2015 -0.5467  0.0226
16981TIP3    H172434   1.124   2.788   5.352 -0.7021  0.1678 -0.6217
16981TIP3    H272435   1.095   2.640   5.367 -1.5475  0.5499  2.1067
16982TIP3   OH272436   2.174   6.371   0.740  0.1001  0.4492  0.1666
16982TIP3    H172437   2.197   6.377   0.833  0.3340 -0.9788  0.2229
16982TIP3    H272438   2.103   6.307   0.737  2.0081 -1.7770 -0.8989
16983TIP3   OH272439   3.727   1.348   3.101 -0.0124 -0.3041  0.6076
16983TIP3    H172440   3.737   1.323   3.009 -0.2930 -0.3057  0.5786
16983TIP3    H272441   3.816   1.369   3.129 -0.2472  2.6040 -0.4889
16984TIP3   OH272442   5.046   5.888  16.144 -0.1127  0.2634 -0.4835
16984TIP3    H172443   4.974   5.938  16.183 -1.9351 -3.1209  0.9398
16984TIP3    H272444   5.004   5.833  16.077  1.1914 -1.3457 -0.0617
16985TIP3   OH272445   0.768   1.285   4.071 -0.2501  0.2707  0.6670
16985TIP3    H172446   0.733   1.206   4.111 -0.5018 -0.0317 -0.1253
16985TIP3    H272447   0.736   1.357   4.125 -0.8997 -0.1030  0.7799
16986TIP3   OH272448   0.871   0.708  11.819  0.0122 -0.2635  0.4400
16986TIP3    H172449   0.813   0.763  11.766 -0.0212 -0.2021  0.5396
16986TIP3    H272450   0.812   0.643  11.858 -0.1238  0.3308  1.2348
16987TIP3   OH272451   4.456   4.255  14.512  0.2974 -0.1554  0.2691
16987TIP3    H172452   4.456   4.160  14.520  1.5222 -0.4981 -2.7100
16987TIP3    H272453   4.470   4.286  14.602 -1.0858 -2.6927  1.4774
16988TIP3   OH272454   5.693   5.249   6.053 -0.8663  0.6085 -0.1766
16988TIP3    H172455   5.692   5.307   5.977  1.3130  0.4844 -0.3842
16988TIP3    H272456   5.668   5.305   6.126 -0.0750  1.5115 -0.5687
16989TIP3   OH272457   5.535   5.763  17.114 -0.5057  0.2107  0.2582
16989TIP3    H172458   5.537   5.837  17.054 -0.7644 -1.2690 -1.6827
16989TIP3    H272459   5.626   5.751  17.141 -0.5874  1.7424  1.3079
16990TIP3   OH272460   2.518   6.159  13.828  0.4085 -0.0722  0.0756
16990TIP3    H172461   2.537   6.209  13.749  0.9393 -0.7114 -0.2064
16990TIP3    H272462   2.540   6.218  13.900  0.7388  0.2096 -0.2548
16991TIP3   OH272463   6.274   0.649  11.209 -0.0714  0.2500  0.1873
16991TIP3    H172464   6.331   0.710  11.256  0.7931 -0.4254  0.0406
16991TIP3    H272465   6.255   0.694  11.127 -0.5422  0.8888  0.6347
16992TIP3   OH272466   1.045   5.699  16.866  0.1570 -0.2991  0.0632
16992TIP3    H172467   1.026   5.770  16.806 -1.3018  0.5319  1.4241
16992TIP3    H272468   1.057   5.622  16.810 -0.7826  0.5082 -1.2977
16993TIP3   OH272469   2.279   4.598   5.233  0.0253 -0.0748  0.3036
16993TIP3    H172470   2.230   4.673   5.265 -0.8205 -0.0907 -0.9094
16993TIP3    H272471   2.368   4.630   5.222 -0.4964  1.0143 -0.9818
16994TIP3   OH272472   6.673   2.823   1.254  0.5033  0.5772  0.6418
16994TIP3    H172473   6.680   2.863   1.341 -1.8056  0.9045  0.7425
16994TIP3    H272474   6.579   2.816   1.239  0.8616 -0.3025 -1.4789
16995TIP3   OH272475   1.681   5.044   1.441  0.2531  0.0289  0.2397
16995TIP3    H172476   1.606   5.089   1.480 -0.4169 -0.3020 -0.6235
16995TIP3    H272477   1.679   4.956   1.479 -0.3024 -0.2426 -0.4069
16996TIP3   OH272478   2.179   5.167  14.178 -0.0394  0.3238  0.0920
16996TIP3    H172479   2.182   5.247  14.127  0.6654  0.6627  0.6533
16996TIP3    H272480   2.159   5.098  14.114  1.5972  0.6169 -0.7829
16997TIP3   OH272481   1.048   2.748  13.603  0.0722 -0.2021  0.3195
16997TIP3    H172482   0.981   2.775  13.540 -0.4824 -0.8226  0.6283
16997TIP3    H272483   1.077   2.662  13.571  0.1372 -0.2990  0.6396
16998TIP3   OH272484   0.200   1.031   6.062  0.4836  0.0821  0.2783
16998TIP3    H172485   0.223   1.105   6.006 -0.3460  2.4102  2.7616
16998TIP3    H272486   0.284   0.993   6.087  1.3049  2.6042  1.8278
16999TIP3   OH272487   1.291   4.719   2.302 -0.3439  0.1202  0.3827
16999TIP3    H172488   1.268   4.629   2.281 -0.2135  0.6830 -2.5996
16999TIP3    H272489   1.387   4.721   2.299 -0.2475  0.0606  2.1504
17000TIP3   OH272490   3.353   1.404  14.670  0.1313 -0.0452 -0.0084
17000TIP3    H172491   3.393   1.400  14.756  1.0719  1.1384 -0.3630
17000TIP3    H272492   3.405   1.469  14.622 -0.6272 -0.3706 -1.3272
17001TIP3   OH272493   5.571   2.810   6.040  0.3220  0.4227  0.0703
17001TIP3    H172494   5.485   2.783   6.071 -0.2523  1.4640 -0.5788
17001TIP3    H272495   5.557   2.896   6.001  0.7677 -1.0978 -3.9076
17002TIP3   OH272496   5.192   2.006   5.211 -0.2660 -0.3601 -0.0231
17002TIP3    H172497   5.203   1.950   5.135 -3.3696  0.1436 -0.9726
17002TIP3    H272498   5.126   1.962   5.264  2.2619 -1.0489  2.8665
17003TIP3   OH272499   0.823   2.623  13.260  0.3480 -0.4203  0.1316
17003TIP3    H172500   0.884   2.697  13.260 -0.1361 -0.0156  0.1458
17003TIP3    H272501   0.822   2.592  13.350  0.3047 -0.2372  0.1940
17004TIP3   OH272502   6.646   1.318  16.182  0.5235  0.0569 -0.2982
17004TIP3    H172503   6.729   1.275  16.165 -0.4694 -2.2625  0.2244
17004TIP3    H272504   6.622   1.358  16.098  1.6059 -0.2497 -0.7755
17005TIP3   OH272505   4.600   2.280  12.854  0.5727 -0.4958 -0.5816
17005TIP3    H172506   4.647   2.223  12.792  2.8559 -0.5272  1.0430
17005TIP3    H272507   4.521   2.232  12.877  0.3945 -1.1186 -2.3315
17006TIP3   OH272508   4.250   2.634   0.703 -0.4735 -0.1362 -0.0231
17006TIP3    H172509   4.204   2.709   0.739 -0.2262  0.5924 -1.1609
17006TIP3    H272510   4.282   2.664   0.618  0.3996 -1.2474 -0.1143
17007TIP3   OH272511   6.232   1.073  13.913  0.4500  0.4368 -0.0382
17007TIP3    H172512   6.234   0.990  13.961  1.4786  0.9083  0.7787
17007TIP3    H272513   6.258   1.050  13.824  0.7607 -0.1294  0.1905
17008TIP3   OH272514   6.306   0.804  12.333 -0.3365  0.0176  0.0193
17008TIP3    H172515   6.395   0.772  12.319 -0.7801 -1.8896  1.1451
17008TIP3    H272516   6.255   0.762  12.263 -0.5047  0.3466 -0.0558
17009TIP3   OH272517   5.996   3.891   3.200 -0.0181 -0.0229  0.0870
17009TIP3    H172518   6.005   3.913   3.293  1.6490 -0.4987  0.0645
17009TIP3    H272519   6.050   3.812   3.189 -0.5751 -0.2397 -1.1931
17010TIP3   OH272520   0.324   1.098   4.945 -0.5898 -0.0242 -0.2806
17010TIP3    H172521   0.260   1.097   4.875 -2.9313 -0.9143  1.7244
17010TIP3    H272522   0.357   1.008   4.949 -0.0710  0.1504 -0.5565
17011TIP3   OH272523   2.287   3.703   6.079  0.0366 -0.4021 -0.5766
17011TIP3    H172524   2.269   3.724   5.988  0.2098  0.1211 -0.4959
17011TIP3    H272525   2.201   3.692   6.119 -0.0297 -1.7856 -1.0514
17012TIP3   OH272526   3.040   2.603  11.854 -0.1346  0.6525 -0.2301
17012TIP3    H172527   3.072   2.612  11.764 -0.9024 -2.3240 -0.9055
17012TIP3    H272528   2.976   2.673  11.864 -0.4398  0.7095 -2.1992
17013TIP3   OH272529   1.581   3.067  11.168 -0.6877 -0.1272  0.2427
17013TIP3    H172530   1.497   3.096  11.202 -1.3503 -0.9802 -0.5842
17013TIP3    H272531   1.608   3.136  11.108 -0.7032  0.2438  0.6666
17014TIP3   OH272532   2.481   2.751  14.290 -0.6407 -0.3686 -0.7228
17014TIP3    H172533   2.442   2.829  14.250  0.8863  0.9369  0.2155
17014TIP3    H272534   2.575   2.770  14.293 -0.2993 -2.0106  0.0388
17015TIP3   OH272535   2.569   6.821  12.529  0.6369  0.1277  1.0212
17015TIP3    H172536   2.493   6.877  12.542  1.1757  0.8698  1.0320
17015TIP3    H272537   2.557   6.783  12.442  0.3953  0.4504  0.9154
17016TIP3   OH272538   2.784   3.849  12.111 -0.6655  0.2088  0.1821
17016TIP3    H172539   2.753   3.939  12.102  0.2975  0.8609  2.5909
17016TIP3    H272540   2.863   3.846  12.058  0.9621  1.7660  2.3079
17017TIP3   OH272541   0.807   5.501  15.818 -0.5034 -0.2325 -0.0558
17017TIP3    H172542   0.871   5.523  15.750  1.4190 -1.1696  1.3395
17017TIP3    H272543   0.786   5.584  15.860  0.8823 -0.0602  0.3359
17018TIP3   OH272544   0.252   3.495   6.285  0.1621  0.4186 -0.1443
17018TIP3    H172545   0.339   3.471   6.252 -0.0276  0.9106 -1.0309
17018TIP3    H272546   0.246   3.590   6.270 -0.8285  0.2624 -0.8590
17019TIP3   OH272547   5.560   0.865   2.330 -0.2324  0.0849 -0.0000
17019TIP3    H172548   5.575   0.809   2.254  0.3557  0.4854 -0.1867
17019TIP3    H272549   5.491   0.821   2.379  0.1836 -0.7737 -0.1681
17020TIP3   OH272550   4.221   3.869  15.772  0.2493  0.0020 -0.0035
17020TIP3    H172551   4.226   3.857  15.867 -1.8334  0.1181  0.1764
17020TIP3    H272552   4.311   3.884  15.745  0.8847  0.0814  1.9664
17021TIP3   OH272553   2.762   5.229  14.676  0.1925 -0.1721  0.2920
17021TIP3    H172554   2.714   5.160  14.631 -1.5930 -0.7010  2.7571
17021TIP3    H272555   2.701   5.303  14.679  0.5894  0.1403  1.0624
17022TIP3   OH272556   1.526   3.967  12.240 -0.7168 -0.3885  0.1603
17022TIP3    H172557   1.565   4.013  12.315  1.4382  0.5863 -1.4751
17022TIP3    H272558   1.442   4.012  12.225  0.6584  2.1349 -0.4679
17023TIP3   OH272559   6.109   2.640   3.376 -0.2619 -0.0887  0.5947
17023TIP3    H172560   6.171   2.567   3.373 -0.3721 -0.1589 -0.0052
17023TIP3    H272561   6.040   2.610   3.436  0.2067 -0.0642  1.1535
17024TIP3   OH272562   3.286   6.292  17.132 -0.0742 -0.3053 -0.2841
17024TIP3    H172563   3.374   6.263  17.156  1.3890  1.9578 -2.4043
17024TIP3    H272564   3.288   6.387  17.145 -2.0712 -0.1315 -0.8453
17025TIP3   OH272565   1.518   2.670  13.610 -0.5097  0.0981  0.0869
17025TIP3    H172566   1.518   2.610  13.685 -0.8093  1.3379  1.1194
17025TIP3    H272567   1.575   2.742  13.638 -1.0475  0.8294 -0.6586
17026TIP3   OH272568   2.523   5.243   3.021 -0.6794 -0.4217 -0.6307
17026TIP3    H172569   2.577   5.166   3.037  1.3987  1.2851  1.2419
17026TIP3    H272570   2.455   5.240   3.088  0.8409  0.5152  1.0393
17027TIP3   OH272571   1.245   5.407  13.343  0.1910 -0.2410 -0.3548
17027TIP3    H172572   1.180   5.418  13.412  0.3028  1.1194 -0.4428
17027TIP3    H272573   1.199   5.356  13.276 -0.5089 -0.0316 -0.0492
17028TIP3   OH272574   2.204   5.767  10.965  0.4700  0.1502  0.3394
17028TIP3    H172575   2.176   5.784  10.875 -0.2066 -0.3725  0.4414
17028TIP3    H272576   2.283   5.714  10.956 -0.6666 -1.5495  0.0454
17029TIP3   OH272577   6.426   0.015   1.104  0.3583 -0.3419  0.0219
17029TIP3    H172578   6.497   0.076   1.124 -0.3334  0.4431  0.0977
17029TIP3    H272579   6.351   0.048   1.153 -0.1459 -0.9925 -0.2984
17030TIP3   OH272580   0.114   1.098  12.876 -0.2880  0.6077 -0.6109
17030TIP3    H172581   0.172   1.026  12.899 -1.5587 -0.0116  0.8831
17030TIP3    H272582   0.164   1.151  12.815  0.9691 -1.1266 -1.1600
17031TIP3   OH272583   5.397   1.368  16.319 -0.0627 -0.6450 -0.3304
17031TIP3    H172584   5.449   1.323  16.252  1.3546 -0.2876  0.4915
17031TIP3    H272585   5.447   1.357  16.400 -0.2242  1.4829  0.1064
17032TIP3   OH272586   2.170   5.597   5.077  0.5890  0.6951 -0.4030
17032TIP3    H172587   2.078   5.589   5.053  0.5392  2.4967 -0.9570
17032TIP3    H272588   2.217   5.592   4.994  1.0275 -0.4106 -0.1044
17033TIP3   OH272589   3.297   1.831   2.584 -0.4455  0.5010  0.1879
17033TIP3    H172590   3.269   1.889   2.512 -0.3040 -0.3442 -0.5681
17033TIP3    H272591   3.387   1.807   2.561 -0.8766 -0.9111 -0.1186
17034TIP3   OH272592   2.586   2.536  11.666 -0.3459 -0.2385 -0.1011
17034TIP3    H172593   2.642   2.487  11.606 -0.0178 -0.5621  0.4631
17034TIP3    H272594   2.581   2.482  11.745 -0.9077  0.1044  0.1107
17035TIP3   OH272595   5.514   3.771   2.843 -0.2970 -0.2669  0.3439
17035TIP3    H172596   5.601   3.739   2.866  0.8617 -0.2433 -3.3592
17035TIP3    H272597   5.454   3.708   2.883  1.4473 -1.0558  1.8600
17036TIP3   OH272598   5.795   5.228  14.475 -0.1652 -0.0506 -0.1289
17036TIP3    H172599   5.713   5.210  14.429  0.5736  0.3009 -1.6506
17036TIP3    H272600   5.769   5.283  14.549 -1.7455 -2.8291  1.5321
17037TIP3   OH272601   4.960   2.763   3.319 -0.0048  0.1506 -0.5999
17037TIP3    H172602   5.000   2.700   3.258  0.1171 -0.1870 -0.1751
17037TIP3    H272603   5.031   2.824   3.340 -0.0518  0.2781 -0.8062
17038TIP3   OH272604   1.636   0.805   5.980  0.0890  0.1853 -0.0420
17038TIP3    H172605   1.638   0.802   6.075 -0.6266  0.9183  0.0024
17038TIP3    H272606   1.718   0.846   5.955  1.4216 -2.1954  0.1272
17039TIP3   OH272607   2.909   3.236   3.843 -0.0452  0.0566 -0.1385
17039TIP3    H172608   2.895   3.141   3.844 -0.3293  0.0934  1.0467
17039TIP3    H272609   2.908   3.262   3.935  0.9892  1.0861 -0.3936
17040TIP3   OH272610   1.589   5.708  14.546  0.0230  0.1080 -0.2219
17040TIP3    H172611   1.660   5.700  14.610  0.5174 -1.7254 -0.9170
17040TIP3    H272612   1.632   5.738  14.466 -0.0664 -0.4591 -0.4894
17041TIP3   OH272613   4.426   4.585  11.196  0.6387  0.4001  0.3009
17041TIP3    H172614   4.402   4.492  11.193 -0.5604  0.6592  1.0789
17041TIP3    H272615   4.504   4.588  11.251  0.8210 -0.1642  0.0809
17042TIP3   OH272616   1.888   3.950   6.421 -0.7195  0.6630  0.1982
17042TIP3    H172617   1.976   3.934   6.453 -0.4471  1.7040 -0.0073
17042TIP3    H272618   1.897   4.024   6.361 -1.1136 -1.4648 -2.6959
17043TIP3   OH272619   0.244   1.779  14.946 -0.0913 -0.2391 -0.0877
17043TIP3    H172620   0.294   1.769  15.028  0.7607 -0.8241 -0.6596
17043TIP3    H272621   0.308   1.762  14.877 -0.8962 -0.1407 -0.8754
17044TIP3   OH272622   6.665   0.109   1.944  0.3586  0.2831 -0.6894
17044TIP3    H172623   6.588   0.159   1.920 -0.8355 -0.9798  0.3390
17044TIP3    H272624   6.700   0.154   2.021  0.3740  0.5932 -0.8798
17045TIP3   OH272625   3.833   3.053  16.880 -0.1570  0.1925 -0.0158
17045TIP3    H172626   3.820   3.142  16.911 -1.4636 -0.4281  1.2868
17045TIP3    H272627   3.746   3.015  16.875  0.0249 -0.0713 -3.6563
17046TIP3   OH272628   4.908   0.027  15.420  0.2407  0.0503 -0.4189
17046TIP3    H172629   4.892   0.119  15.398  1.2525  0.5440  0.8053
17046TIP3    H272630   4.864  -0.022  15.350 -1.3589  1.4230 -0.4446
17047TIP3   OH272631   6.438   6.567  12.813  0.0334 -0.0652  0.8609
17047TIP3    H172632   6.386   6.591  12.889 -0.2580  1.5290  0.1947
17047TIP3    H272633   6.527   6.597  12.834  0.0153  0.1057  0.6942
17048TIP3   OH272634   2.631   5.033   1.506 -0.1222 -0.2554 -0.0408
17048TIP3    H172635   2.712   5.033   1.455  1.0548  0.7785  1.7348
17048TIP3    H272636   2.636   4.953   1.558 -0.4521 -0.3936 -0.2178
17049TIP3   OH272637   2.731   2.245   4.164 -0.2200 -0.1103  0.6151
17049TIP3    H172638   2.827   2.244   4.166 -0.2028  0.9511  0.7576
17049TIP3    H272639   2.708   2.176   4.101  0.6182 -0.6119  0.8365
17050TIP3   OH272640   3.415   6.789   1.218 -0.6938 -0.1061 -0.1504
17050TIP3    H172641   3.418   6.694   1.205  0.3475 -0.3577  1.5795
17050TIP3    H272642   3.362   6.801   1.297 -2.0136  0.8726 -1.1512
17051TIP3   OH272643   6.179   3.676   3.231 -0.8790 -0.1713  0.0565
17051TIP3    H172644   6.220   3.593   3.209 -0.9521 -0.5259  1.1894
17051TIP3    H272645   6.180   3.679   3.327  1.1950  2.1434  0.0664
17052TIP3   OH272646   5.364   2.764  11.817  0.1046 -0.3453 -0.6602
17052TIP3    H172647   5.358   2.736  11.908 -1.4363  2.6497  0.3021
17052TIP3    H272648   5.274   2.764  11.786  0.3843  0.6230 -1.5222
17053TIP3   OH272649   4.787   2.147  12.641 -0.5604 -0.0131  0.5022
17053TIP3    H172650   4.846   2.092  12.692  1.3547  2.0366  0.6305
17053TIP3    H272651   4.775   2.099  12.558  0.8770 -0.7226  0.6760
17054TIP3   OH272652   2.241   4.624   3.359  0.5110 -0.1781 -0.1301
17054TIP3    H172653   2.301   4.696   3.381 -0.6651  0.5740  0.6958
17054TIP3    H272654   2.293   4.544   3.373  1.9935  0.4775 -1.5481
17055TIP3   OH272655   6.704   3.165  11.797  0.0292 -0.4081 -0.1299
17055TIP3    H172656   6.714   3.156  11.702 -0.7818  0.3269 -0.3027
17055TIP3    H272657   6.785   3.129  11.833  0.1405 -1.1431 -1.0727
17056TIP3   OH272658   4.661   4.992  15.544 -0.0553 -0.4252  0.3441
17056TIP3    H172659   4.667   4.937  15.466  2.4255 -0.4004  0.4515
17056TIP3    H272660   4.577   5.037  15.534  0.4737  0.1404 -2.7158
17057TIP3   OH272661   5.031   4.364  13.171 -0.2623  0.3587  0.0618
17057TIP3    H172662   5.017   4.323  13.085 -0.0877  0.8873 -0.2256
17057TIP3    H272663   5.039   4.290  13.231 -1.0552 -0.0149 -0.2653
17058TIP3   OH272664   2.049   4.620   0.484  0.8801 -0.1038 -0.5819
17058TIP3    H172665   2.078   4.554   0.547 -0.7731  2.0412  2.6819
17058TIP3    H272666   2.130   4.661   0.452  1.7764  0.2892  1.9944
17059TIP3   OH272667   3.844   2.875  13.265 -0.0427 -0.2984  0.4901
17059TIP3    H172668   3.938   2.863  13.251 -0.2973  0.4764 -2.4789
17059TIP3    H272669   3.804   2.859  13.180 -2.8644 -2.2752  2.0135
17060TIP3   OH272670   6.630   3.844   4.379  0.4759 -0.1414  0.1594
17060TIP3    H172671   6.677   3.764   4.356 -1.4924 -1.1339 -0.6218
17060TIP3    H272672   6.538   3.824   4.361  0.0290  2.7496 -1.3830
17061TIP3   OH272673   5.382   5.614  15.371 -0.1066  0.2744 -0.6265
17061TIP3    H172674   5.314   5.546  15.374 -0.6381  0.8395  0.5127
17061TIP3    H272675   5.338   5.693  15.402  1.5599  0.2109  2.1865
17062TIP3   OH272676   2.812   3.144  13.957 -0.2310  0.2642  0.1728
17062TIP3    H172677   2.743   3.078  13.947 -1.2387  1.2046  0.6280
17062TIP3    H272678   2.842   3.160  13.868 -0.6517 -0.1102 -0.0454
17063TIP3   OH272679   5.868   6.180   6.316 -0.4208  0.5402  0.6081
17063TIP3    H172680   5.818   6.139   6.386 -3.3760 -0.3531 -1.8110
17063TIP3    H272681   5.896   6.108   6.260  1.4505  1.2645  0.5258
17064TIP3   OH272682   0.246   0.696  14.911  0.0490  0.4123 -0.3254
17064TIP3    H172683   0.278   0.609  14.934  0.8571  0.8261  0.1491
17064TIP3    H272684   0.208   0.730  14.992  0.2472  0.7212 -0.3608
17065TIP3   OH272685   6.560   0.747  16.500  0.2670  0.4566 -0.6092
17065TIP3    H172686   6.617   0.717  16.429 -0.0250 -0.2556 -0.5496
17065TIP3    H272687   6.531   0.666  16.543  1.0113  0.8931  0.7828
17066TIP3   OH272688   4.391   0.430   3.631 -0.1535 -0.4665 -0.3114
17066TIP3    H172689   4.425   0.518   3.644 -2.1660  0.3472 -0.2095
17066TIP3    H272690   4.421   0.406   3.543  0.9220  0.0469 -0.1028
17067TIP3   OH272691   0.300   2.564  16.578  0.0374 -0.6075  0.2115
17067TIP3    H172692   0.218   2.555  16.530 -0.1634  1.7108  0.0142
17067TIP3    H272693   0.290   2.646  16.627  1.9654 -0.6428  0.7244
17068TIP3   OH272694   0.117   3.020  11.657 -1.2919 -0.6856 -0.4138
17068TIP3    H172695   0.159   3.074  11.724 -0.3664 -1.9276  0.0579
17068TIP3    H272696   0.127   3.071  11.576  0.1176 -0.4028 -0.0963
17069TIP3   OH272697   6.205   1.934  13.949 -0.1279  0.0675 -0.1345
17069TIP3    H172698   6.230   1.902  14.035 -3.2050 -1.1476  0.4538
17069TIP3    H272699   6.182   2.026  13.964  1.2274  0.4231 -0.1284
17070TIP3   OH272700   3.687   0.832  13.577  0.7944 -0.4837 -0.3563
17070TIP3    H172701   3.680   0.787  13.493  1.1007  1.1355 -1.2720
17070TIP3    H272702   3.777   0.864  13.580  0.1199  1.5306 -0.5040
17071TIP3   OH272703   5.531   2.726   2.396 -0.3318 -0.8150  0.4293
17071TIP3    H172704   5.517   2.722   2.301 -1.3812  0.3321  0.5077
17071TIP3    H272705   5.624   2.705   2.407  0.3253  1.0349 -1.0423
17072TIP3   OH272706   1.991   1.468  15.099 -0.2140  0.0642 -0.2008
17072TIP3    H172707   2.035   1.384  15.089  0.5425  0.3180  0.8792
17072TIP3    H272708   1.898   1.448  15.089 -0.1220 -1.0652  0.9865
17073TIP3   OH272709   5.078   1.054  11.343 -0.1890  0.6944 -0.3654
17073TIP3    H172710   5.021   1.098  11.407 -1.4106  0.3499 -1.1935
17073TIP3    H272711   5.019   1.022  11.276  1.0227  0.5757 -1.4150
17074TIP3   OH272712   3.651   0.211   0.569  0.0094 -0.4427  0.9805
17074TIP3    H172713   3.633   0.180   0.658  0.6662  0.1662  1.3375
17074TIP3    H272714   3.741   0.185   0.553 -0.5024 -1.6928 -0.0185
17075TIP3   OH272715   1.594   4.427   4.831 -0.0421 -0.6278 -0.2510
17075TIP3    H172716   1.647   4.469   4.763  0.5446 -0.4452  0.3139
17075TIP3    H272717   1.531   4.494   4.856  0.7654 -0.1319  0.5084
17076TIP3   OH272718   0.344   2.222   4.909 -0.1958 -0.1056 -0.6667
17076TIP3    H172719   0.379   2.205   4.821 -0.7346  1.7524 -1.2833
17076TIP3    H272720   0.253   2.190   4.905 -0.2135 -0.0417 -0.7713
17077TIP3   OH272721   5.490   5.203  13.855  0.5221  0.3893 -0.0480
17077TIP3    H172722   5.454   5.136  13.913  1.0275 -0.0346 -0.2151
17077TIP3    H272723   5.415   5.236  13.806  0.1453  0.4998  0.5931
17078TIP3   OH272724   4.450   1.874   2.850  0.0685 -0.1950  0.3874
17078TIP3    H172725   4.456   1.792   2.801 -1.2804  0.4271 -0.8838
17078TIP3    H272726   4.496   1.938   2.796 -1.6293  0.5474 -0.2393
17079TIP3   OH272727   4.660   4.635   3.705 -0.0649  0.0700  0.2994
17079TIP3    H172728   4.695   4.675   3.625 -0.2415  3.0046  1.5575
17079TIP3    H272729   4.573   4.674   3.715 -0.0062 -0.1554  1.9458
17080TIP3   OH272730   3.678   5.153  16.449 -0.0407 -0.0787 -0.6285
17080TIP3    H172731   3.587   5.147  16.419 -0.5826  2.3681  0.2790
17080TIP3    H272732   3.690   5.246  16.470  1.3356 -0.9827  3.3667
17081TIP3   OH272733   6.685   5.942   1.999 -0.2397  0.6846 -0.2160
17081TIP3    H172734   6.711   5.945   1.907 -0.3927  0.8111 -0.2559
17081TIP3    H272735   6.762   5.974   2.047 -0.6236  1.9182 -0.3962
17082TIP3   OH272736   1.504   3.886  16.688  0.0702  0.2210  0.5989
17082TIP3    H172737   1.540   3.883  16.777 -0.0717 -0.0688  0.6479
17082TIP3    H272738   1.412   3.865  16.699  0.1303 -0.1781  0.3371
17083TIP3   OH272739   4.185   4.418  15.996  0.1816 -0.0231  0.4811
17083TIP3    H172740   4.146   4.372  15.922 -0.3647  0.3151  0.5537
17083TIP3    H272741   4.210   4.349  16.057 -0.7595 -0.2180  0.6520
17084TIP3   OH272742   4.893   4.362   0.543 -0.1878  0.0043  0.1635
17084TIP3    H172743   4.917   4.435   0.601  0.4014 -1.2786  1.6150
17084TIP3    H272744   4.798   4.357   0.550 -0.3065  1.0052 -0.4513
17085TIP3   OH272745   4.784   5.235   3.893 -0.0230 -0.7528  0.1973
17085TIP3    H172746   4.788   5.148   3.852 -1.3710 -0.3135 -0.9626
17085TIP3    H272747   4.758   5.217   3.983 -1.0838 -1.5463 -0.2349
17086TIP3   OH272748   5.645   6.701  12.075 -0.2657  0.4147  0.2796
17086TIP3    H172749   5.646   6.764  12.003 -1.8553  1.0437  0.7641
17086TIP3    H272750   5.697   6.627  12.044  0.5190  1.4019 -0.8255
17087TIP3   OH272751   2.781   3.717   2.427  0.2195 -0.6981 -0.1572
17087TIP3    H172752   2.793   3.639   2.481 -1.2142  0.0882  1.3903
17087TIP3    H272753   2.688   3.739   2.437  0.2951  0.4481 -1.6409
17088TIP3   OH272754   5.298   3.948  12.009 -0.0161  0.1855 -1.1487
17088TIP3    H172755   5.311   3.860  11.974 -0.5238 -0.4619  0.2483
17088TIP3    H272756   5.387   3.981  12.024  0.1793  0.0004 -1.8569
17089TIP3   OH272757   5.554   0.211   4.730  0.5536 -0.1348 -0.3524
17089TIP3    H172758   5.547   0.127   4.776 -1.9111  0.7656  1.1152
17089TIP3    H272759   5.551   0.277   4.800  2.5381  1.2403 -1.4512
17090TIP3   OH272760   1.918   2.765  16.807 -0.6302  0.4010 -0.0252
17090TIP3    H172761   1.978   2.707  16.853  0.4459  1.3119 -0.2300
17090TIP3    H272762   1.890   2.715  16.731  0.3242  0.1443 -0.2272
17091TIP3   OH272763   0.942   1.575   3.393 -0.1569 -0.2604 -0.5704
17091TIP3    H172764   0.972   1.645   3.334  0.2983 -0.3615 -0.4635
17091TIP3    H272765   1.011   1.509   3.389  0.3854  0.1819  0.8543
17092TIP3   OH272766   5.095   4.866  11.500  0.5080  0.2395 -0.1391
17092TIP3    H172767   5.058   4.802  11.440  0.1900 -0.2037  0.5206
17092TIP3    H272768   5.189   4.846  11.502  0.7734  1.2166 -1.6324
17093TIP3   OH272769   5.887   0.792   0.910 -0.2892  0.4803  0.2899
17093TIP3    H172770   5.839   0.866   0.949 -1.4825  0.6339 -1.3762
17093TIP3    H272771   5.820   0.728   0.889  0.6921 -0.9329  1.3160
17094TIP3   OH272772   3.831   6.768  14.730 -0.4089 -0.0018 -0.1009
17094TIP3    H172773   3.787   6.796  14.650  0.1006 -0.2798 -0.4879
17094TIP3    H272774   3.890   6.698  14.701  2.2011  2.0340 -0.0911
17095TIP3   OH272775   3.226   1.480   5.611 -0.5020 -0.6306  0.4099
17095TIP3    H172776   3.192   1.428   5.538 -1.4004 -0.3823  0.6399
17095TIP3    H272777   3.148   1.520   5.650  0.0026 -0.4914  1.2946
17096TIP3   OH272778   0.939   3.446  11.156 -0.4724  0.0357 -0.0321
17096TIP3    H172779   1.002   3.474  11.091  0.5017 -1.0592  0.4055
17096TIP3    H272780   0.854   3.470  11.119  0.1675  1.1227 -0.8307
17097TIP3   OH272781   6.111   0.276  12.181  0.5821 -0.2850  0.1862
17097TIP3    H172782   6.036   0.247  12.232  1.0419 -0.3525  0.8330
17097TIP3    H272783   6.168   0.199  12.176  0.5893 -0.2489 -0.3417
17098TIP3   OH272784   5.461   5.707  11.824 -0.3124  0.0003  0.4812
17098TIP3    H172785   5.417   5.637  11.776 -0.0758 -2.2748  3.3241
17098TIP3    H272786   5.550   5.675  11.837  0.0428  1.1972  1.1500
17099TIP3   OH272787   5.821   1.672   5.385 -0.3990  0.0460 -0.2150
17099TIP3    H172788   5.783   1.594   5.425 -0.3734 -0.0966 -0.4607
17099TIP3    H272789   5.748   1.733   5.377 -0.6258 -0.2846 -0.8301
17100TIP3   OH272790   0.139   3.495   1.362 -0.0297 -0.4223 -0.1031
17100TIP3    H172791   0.133   3.568   1.300  0.2368 -0.0684  0.2837
17100TIP3    H272792   0.049   3.467   1.374 -0.0488 -0.7247 -0.9252
17101TIP3   OH272793   6.272   5.662   0.847 -0.2971 -0.3227 -0.6011
17101TIP3    H172794   6.231   5.691   0.766 -0.8770 -0.8270 -0.5001
17101TIP3    H272795   6.200   5.625   0.898  0.1715 -0.5996 -0.1295
17102TIP3   OH272796   5.270   1.261   2.083 -0.3426  0.4574  0.2956
17102TIP3    H172797   5.290   1.190   2.145  1.5233  1.2375  0.6400
17102TIP3    H272798   5.349   1.314   2.080 -0.1415  0.1785 -3.1822
17103TIP3   OH272799   6.654   4.389   4.673 -0.5232  0.2318  0.3871
17103TIP3    H172800   6.624   4.477   4.653 -0.4306  0.2764  0.4432
17103TIP3    H272801   6.660   4.386   4.769 -1.4385 -0.1358  0.4406
17104TIP3   OH272802   4.529   1.392   6.260 -0.5867  0.6676  0.4354
17104TIP3    H172803   4.448   1.434   6.289 -0.5872  1.5364 -0.7759
17104TIP3    H272804   4.525   1.395   6.165  0.7322  0.4429  0.3551
17105TIP3   OH272805   5.036   6.696   2.519  0.0558 -0.0884 -0.2757
17105TIP3    H172806   5.096   6.768   2.541  0.8968 -1.2227  1.3687
17105TIP3    H272807   5.086   6.642   2.457 -0.1256  0.1213 -0.6070
17106TIP3   OH272808   2.410   2.241   5.355  0.4609 -0.3050 -0.1094
17106TIP3    H172809   2.434   2.316   5.409  0.0810 -1.1563  1.2874
17106TIP3    H272810   2.409   2.275   5.266  0.6210  1.2629  0.4601
17107TIP3   OH272811   2.095   4.295  15.858 -0.3690 -0.0990  0.1150
17107TIP3    H172812   2.178   4.250  15.846  0.8390  1.8321  0.7815
17107TIP3    H272813   2.103   4.339  15.942 -1.2327  1.7954 -0.7172
17108TIP3   OH272814   0.999   3.219   3.868  0.3659 -0.2715 -0.6452
17108TIP3    H172815   0.927   3.170   3.828 -0.2290  0.9880 -1.1774
17108TIP3    H272816   0.963   3.252   3.950  0.1983  0.6469 -1.0720
17109TIP3   OH272817   3.945   0.210  15.546 -0.1713  0.3297  0.5350
17109TIP3    H172818   3.897   0.257  15.479 -0.1332 -3.0514 -2.1359
17109TIP3    H272819   4.029   0.188  15.505  0.3925 -0.7652  2.1569
17110TIP3   OH272820   2.679   6.002  13.384 -0.4160 -0.4908 -0.0647
17110TIP3    H172821   2.674   5.989  13.289 -2.5023 -1.1709  0.0883
17110TIP3    H272822   2.631   5.928  13.421  2.5943 -1.7522  1.7175
17111TIP3   OH272823   3.540   3.473   1.178  0.4581  0.2659  0.0557
17111TIP3    H172824   3.504   3.525   1.106  0.1242 -0.8003 -0.5652
17111TIP3    H272825   3.576   3.538   1.239 -0.3531  1.2404 -0.4786
17112TIP3   OH272826   3.499   5.830   0.767 -0.3992  0.1167  0.5452
17112TIP3    H172827   3.580   5.853   0.812  0.2686  1.2787 -1.1313
17112TIP3    H272828   3.528   5.771   0.696 -0.9808  0.6971 -0.1823
17113TIP3   OH272829   1.860   4.609  11.419 -0.1038 -0.0318  0.6849
17113TIP3    H172830   1.770   4.638  11.435  0.0263  1.0354 -0.3344
17113TIP3    H272831   1.914   4.685  11.442  0.2583  0.6208 -2.0389
17114TIP3   OH272832   1.851   2.733  12.125 -0.4015  0.1750 -0.5235
17114TIP3    H172833   1.828   2.826  12.123 -0.3252  0.1753 -1.3584
17114TIP3    H272834   1.820   2.699  12.042  0.3322 -0.3738 -0.5759
17115TIP3   OH272835   2.720   0.921   1.054  0.9460  0.0718 -0.2257
17115TIP3    H172836   2.727   0.944   1.146  1.7235 -2.3650  0.4089
17115TIP3    H272837   2.669   0.839   1.054  1.4478 -0.2814 -1.8804
17116TIP3   OH272838   1.831   5.304   2.424 -0.6008 -0.0022 -0.8235
17116TIP3    H172839   1.773   5.334   2.494  0.3853 -1.7363  0.8391
17116TIP3    H272840   1.902   5.260   2.470  1.3685  0.8897 -2.8542
17117TIP3   OH272841   0.756   4.617  13.589  0.1119  0.1777 -0.0136
17117TIP3    H172842   0.782   4.534  13.549  0.2917 -0.0360  0.5443
17117TIP3    H272843   0.738   4.675  13.514 -0.4060 -0.4776 -0.4023
17118TIP3   OH272844   1.383   4.086  14.256  0.7544 -0.2641 -0.1799
17118TIP3    H172845   1.432   4.009  14.228  0.4124 -1.0177  1.2361
17118TIP3    H272846   1.414   4.105  14.344 -0.6697 -0.0708  0.3035
17119TIP3   OH272847   6.216   0.826  13.118 -0.0263  0.0882 -0.3780
17119TIP3    H172848   6.303   0.792  13.137  0.1381  0.5700 -0.2734
17119TIP3    H272849   6.230   0.902  13.062 -0.3475  0.4653  0.0448
17120TIP3   OH272850   4.406   2.593  13.211  0.4809 -0.1173 -0.8626
17120TIP3    H172851   4.331   2.587  13.270 -0.1571  1.7312 -1.3967
17120TIP3    H272852   4.471   2.644  13.261  1.4466 -1.7657 -0.3759
17121TIP3   OH272853   2.269   4.966   4.604  0.4374  0.3960  0.4020
17121TIP3    H172854   2.195   4.992   4.659 -0.2814 -2.1865  0.7643
17121TIP3    H272855   2.235   4.973   4.515  0.7758  2.0780  0.3641
17122TIP3   OH272856   4.793   5.328   4.484  0.1461 -0.3182 -0.4584
17122TIP3    H172857   4.829   5.266   4.548  0.4692  0.7527  0.4170
17122TIP3    H272858   4.853   5.402   4.485 -0.3090  0.0798 -1.3957
17123TIP3   OH272859   6.258   4.000  11.750 -0.3056  0.0524  0.0704
17123TIP3    H172860   6.209   3.935  11.701 -1.5255  1.3959 -0.5796
17123TIP3    H272861   6.219   3.999  11.838  0.5651 -0.9855  0.4618
17124TIP3   OH272862   4.216   1.719  15.860 -0.2926  0.0912 -0.0449
17124TIP3    H172863   4.263   1.742  15.780  0.7892 -1.2691  0.1647
17124TIP3    H272864   4.154   1.652  15.834  0.6162 -0.9439  0.3592
17125TIP3   OH272865   1.209   3.251   5.635 -0.1471  0.2767 -0.3909
17125TIP3    H172866   1.257   3.313   5.690  1.1238 -0.1552 -0.9589
17125TIP3    H272867   1.151   3.205   5.696 -0.3019  1.2404  0.2153
17126TIP3   OH272868   5.722   1.111   2.027 -0.4695  0.8934  0.4336
17126TIP3    H172869   5.704   1.161   1.947 -3.1692 -1.7272 -0.7920
17126TIP3    H272870   5.636   1.099   2.067  0.1695 -1.7788  1.1937
17127TIP3   OH272871   3.815   5.170  16.187  0.1427  0.1463  0.2987
17127TIP3    H172872   3.763   5.135  16.259 -1.3909  0.6333 -0.5024
17127TIP3    H272873   3.865   5.242  16.225  1.8860 -1.6080  1.5437
17128TIP3   OH272874   5.949   5.936  16.453 -0.2121 -0.4965  0.3907
17128TIP3    H172875   5.911   5.866  16.506 -1.3107  0.3951  0.8116
17128TIP3    H272876   5.876   5.995  16.436  0.0563 -0.7792 -2.1999
17129TIP3   OH272877   2.699   6.589   1.670  0.0239  0.0420 -0.7528
17129TIP3    H172878   2.654   6.650   1.729 -0.4103  0.4095 -1.4533
17129TIP3    H272879   2.631   6.527   1.643  0.2066 -0.0888 -0.9165
17130TIP3   OH272880   1.540   1.060  16.145 -0.3159  0.0190 -0.0181
17130TIP3    H172881   1.612   1.084  16.204 -0.6229  0.5621  0.1396
17130TIP3    H272882   1.474   1.021  16.203 -1.0122  1.3943  0.1567
17131TIP3   OH272883   3.553   5.386   2.160 -0.6559  0.2198  0.1907
17131TIP3    H172884   3.561   5.296   2.191 -0.1328  0.2294  0.0912
17131TIP3    H272885   3.476   5.421   2.206 -0.5880 -0.1333  0.5739
17132TIP3   OH272886   4.279   3.994  16.725  0.4697  1.0029 -0.0291
17132TIP3    H172887   4.363   4.000  16.681  0.8167  1.9931  0.7315
17132TIP3    H272888   4.266   3.900  16.740  0.6319  0.6929 -1.6349
17133TIP3   OH272889   3.348   4.535   0.221  0.0251 -0.3207  0.3671
17133TIP3    H172890   3.319   4.567   0.306  1.6910  1.6720  0.2602
17133TIP3    H272891   3.441   4.558   0.217 -0.1266  0.1255 -2.1778
17134TIP3   OH272892   1.060   1.179  15.703  0.2033  0.0558 -0.0194
17134TIP3    H172893   1.063   1.257  15.759  0.2733  2.1779 -2.7157
17134TIP3    H272894   1.119   1.117  15.745  0.6823  1.7130  1.9400
17135TIP3   OH272895   5.451   2.942   3.057 -0.1875 -0.2358  0.7273
17135TIP3    H172896   5.476   2.968   3.146  0.6520  0.6817  0.2422
17135TIP3    H272897   5.396   3.014   3.026 -0.4270 -0.5246  0.4750
17136TIP3   OH272898   0.447   3.001  13.411  0.0980 -0.7498  0.3727
17136TIP3    H172899   0.454   2.925  13.469  0.4454 -0.1813  1.0975
17136TIP3    H272900   0.355   3.004  13.385 -0.0472 -1.0502  0.8438
17137TIP3   OH272901   1.656   1.874  12.246  0.4380  0.2665 -0.4731
17137TIP3    H172902   1.645   1.798  12.188 -0.6437 -0.2055  0.3113
17137TIP3    H272903   1.623   1.844  12.330  0.3943  1.4857 -0.0428
17138TIP3   OH272904   3.529   0.699  12.824 -0.1739  0.4838 -0.0875
17138TIP3    H172905   3.555   0.790  12.836 -0.6337  0.4448  1.5141
17138TIP3    H272906   3.434   0.702  12.812 -0.1294  0.2512 -0.5019
17139TIP3   OH272907   0.773   4.892   2.264  0.1814  0.3076  0.1572
17139TIP3    H172908   0.863   4.913   2.289  0.8707 -0.5188 -1.4605
17139TIP3    H272909   0.750   4.957   2.198  0.6008 -1.0341 -1.3787
17140TIP3   OH272910   3.075   2.365   1.714  0.0822 -0.1963  0.1659
17140TIP3    H172911   3.080   2.430   1.644 -1.3737  0.8149  0.9410
17140TIP3    H272912   3.051   2.416   1.792 -0.3659 -1.5546  0.9479
17141TIP3   OH272913   6.684   0.058  11.796  0.4110 -0.7893  0.2077
17141TIP3    H172914   6.765   0.094  11.758 -0.0098 -1.5243 -1.4550
17141TIP3    H272915   6.615   0.088  11.738 -0.3980 -1.0899  0.9944
17142TIP3   OH272916   3.408   6.716   2.634  0.3111 -0.2542 -0.1652
17142TIP3    H172917   3.446   6.695   2.719  2.6428  1.5254 -0.6822
17142TIP3    H272918   3.381   6.631   2.598 -1.5757 -0.9860  2.6242
17143TIP3   OH272919   2.480   0.802  15.579 -0.2405 -0.1482 -0.0797
17143TIP3    H172920   2.412   0.761  15.633 -0.9179  0.5018 -0.4128
17143TIP3    H272921   2.461   0.772  15.490  0.5199 -0.7573 -0.0379
17144TIP3   OH272922   1.541   2.099   0.237  0.0323  0.6587 -0.1160
17144TIP3    H172923   1.562   2.143   0.155 -0.4500  2.1328  0.5102
17144TIP3    H272924   1.448   2.116   0.250  0.1491  0.6200  0.8379
17145TIP3   OH272925   1.323   0.781   2.552  0.3328  0.3665  0.3613
17145TIP3    H172926   1.407   0.735   2.546  0.1501 -0.0991  1.1247
17145TIP3    H272927   1.346   0.874   2.554  0.7443  0.2979 -0.6904
17146TIP3   OH272928   2.820   2.244  15.255 -0.4133  0.2754  0.3822
17146TIP3    H172929   2.832   2.308  15.185  0.0985 -0.8380 -0.5877
17146TIP3    H272930   2.755   2.283  15.313 -1.3261  0.9612 -1.0410
17147TIP3   OH272931   3.718   4.626  12.768  0.1105  0.2165 -0.3559
17147TIP3    H172932   3.787   4.683  12.801 -0.3527 -0.3095  1.6423
17147TIP3    H272933   3.637   4.668  12.796 -0.2349 -1.4966  1.4082
17148TIP3   OH272934   1.033   1.538  10.559  0.4520 -0.2986 -0.5356
17148TIP3    H172935   1.096   1.547  10.488  0.3252  0.4340 -0.5615
17148TIP3    H272936   1.010   1.628  10.582 -1.2519 -0.5564 -1.1230
17149TIP3   OH272937   2.604   1.095   3.716 -0.0918  0.0716 -0.1941
17149TIP3    H172938   2.639   1.180   3.688  0.8534  0.0785  0.9572
17149TIP3    H272939   2.538   1.117   3.782 -0.1942 -0.0771 -0.2456
17150TIP3   OH272940   4.625   3.179  11.251  0.5989  0.0783  0.5165
17150TIP3    H172941   4.684   3.246  11.216 -0.2038  0.5618  0.0613
17150TIP3    H272942   4.635   3.105  11.191  2.6256 -0.8354  1.8608
17151TIP3   OH272943   5.869   1.600  17.097  0.3650  0.0895  0.3653
17151TIP3    H172944   5.790   1.568  17.054  2.0763 -0.8367 -2.3548
17151TIP3    H272945   5.884   1.540  17.169 -0.4201 -0.8168 -0.2074
17152TIP3   OH272946   4.822   3.511  13.681  0.0258 -0.3032  0.0928
17152TIP3    H172947   4.745   3.531  13.627 -0.1532 -1.8039 -0.2470
17152TIP3    H272948   4.819   3.575  13.751 -1.3490 -0.1088 -0.1164
17153TIP3   OH272949   4.883   1.012   2.260 -0.5840  0.1325 -0.4475
17153TIP3    H172950   4.961   0.987   2.209 -0.9204  0.5043 -1.1570
17153TIP3    H272951   4.811   1.009   2.197 -0.9206  1.1585 -0.1263
17154TIP3   OH272952   1.413   1.996   4.533  0.0240  0.1431 -0.0625
17154TIP3    H172953   1.381   1.996   4.623  0.4049  0.7585  0.0773
17154TIP3    H272954   1.440   2.087   4.517  2.2027 -0.4439  0.0079
17155TIP3   OH272955   6.643   1.539  11.752  0.3501 -0.2204  0.2252
17155TIP3    H172956   6.677   1.576  11.833  0.8819 -0.4892  0.1241
17155TIP3    H272957   6.719   1.531  11.695 -0.4201  2.9606 -1.5111
17156TIP3   OH272958   3.435   0.234  13.718 -0.1054 -0.0354  0.1967
17156TIP3    H172959   3.498   0.262  13.785  2.2070 -0.7150 -1.5563
17156TIP3    H272960   3.474   0.263  13.635 -0.6199 -3.0136 -1.2252
17157TIP3   OH272961   2.534   3.728   3.744  0.3164  0.2076 -0.3660
17157TIP3    H172962   2.597   3.779   3.693  1.0316  0.0122  0.3187
17157TIP3    H272963   2.572   3.640   3.748  0.6800  0.4072  1.1806
17158TIP3   OH272964   5.213   4.598   2.593 -0.6055  0.5194  0.4211
17158TIP3    H172965   5.208   4.690   2.620  0.8687  0.4452  1.1034
17158TIP3    H272966   5.125   4.564   2.606 -1.0854  1.7447  0.5144
17159TIP3   OH272967   5.337   4.953  15.639  0.3343 -0.2527  0.7408
17159TIP3    H172968   5.418   4.999  15.661 -0.4398  1.0098  1.0386
17159TIP3    H272969   5.350   4.920  15.550  0.6317  1.2141  0.2217
17160TIP3   OH272970   3.359   3.297   0.819 -0.1077 -0.7818 -0.7365
17160TIP3    H172971   3.403   3.224   0.863 -1.2063 -1.6329 -1.0057
17160TIP3    H272972   3.361   3.368   0.883 -2.0001 -2.0977  0.8972
17161TIP3   OH272973   1.255   2.226  16.673 -0.1891 -0.4452 -0.3943
17161TIP3    H172974   1.334   2.224  16.618 -0.4892  2.2133 -1.0644
17161TIP3    H272975   1.182   2.225  16.610 -0.6099 -0.0094  0.0759
17162TIP3   OH272976   2.842   1.137  11.918  0.6453 -0.1372 -0.3922
17162TIP3    H172977   2.880   1.219  11.886 -2.8868  2.3725  1.1967
17162TIP3    H272978   2.875   1.129  12.008  0.8302 -0.3934 -0.4799
17163TIP3   OH272979   5.841   6.296   2.051 -0.0286 -0.2015 -0.0662
17163TIP3    H172980   5.825   6.317   2.143 -0.3509  2.2794 -0.6091
17163TIP3    H272981   5.917   6.349   2.028 -0.7714  0.2660 -1.5530
17164TIP3   OH272982   2.428   2.991  12.021 -0.2628 -0.0017  0.0903
17164TIP3    H172983   2.448   2.901  11.995 -0.0852  0.3294 -0.9836
17164TIP3    H272984   2.503   3.042  11.990 -1.0470  0.7276 -0.6796
17165TIP3   OH272985   3.036   0.470  15.280 -0.4644 -0.0272 -0.0485
17165TIP3    H172986   3.108   0.530  15.298  0.1747 -1.1867  1.4391
17165TIP3    H272987   3.033   0.463  15.184  0.2875  1.3329 -0.1892
17166TIP3   OH272988   6.004   1.518   5.622  0.1902  0.4173 -0.0369
17166TIP3    H172989   5.950   1.537   5.545 -0.4314  0.2398  0.3447
17166TIP3    H272990   6.074   1.462   5.589  0.7117  1.4408 -0.7253
17167TIP3   OH272991   3.740   5.585   1.022 -0.2213 -0.3371  0.5882
17167TIP3    H172992   3.796   5.642   0.969 -1.4110  1.1625  0.8960
17167TIP3    H272993   3.802   5.529   1.069  0.9554  0.1395 -0.3409
17168TIP3   OH272994   3.483   4.231   3.938  0.0144  0.3853 -0.3234
17168TIP3    H172995   3.523   4.274   3.862 -2.2633  0.9105 -1.3434
17168TIP3    H272996   3.431   4.160   3.900 -2.0462  1.3382  0.5665
17169TIP3   OH272997   3.489   0.641  11.432 -0.1290  0.3426  0.1214
17169TIP3    H172998   3.450   0.724  11.458  0.0243  0.0744  1.2869
17169TIP3    H272999   3.418   0.577  11.440  0.2049  0.0636  1.0510
17170TIP3   OH273000   5.446   5.511  15.870 -0.3465  0.4293 -0.0567
17170TIP3    H173001   5.360   5.528  15.832  0.2171  0.9893 -1.1600
17170TIP3    H273002   5.505   5.510  15.794  0.6634  0.3881  0.7113
17171TIP3   OH273003   6.048   2.911  15.814  0.1344  0.8749  0.6843
17171TIP3    H173004   5.972   2.918  15.756  0.4834  0.2561  0.1451
17171TIP3    H273005   6.048   2.993  15.863 -1.5697  0.4043  1.5521
17172TIP3   OH273006   2.240   5.581  14.899 -0.6520 -0.7055 -0.0364
17172TIP3    H173007   2.188   5.645  14.850 -0.3521 -1.5017 -1.4632
17172TIP3    H273008   2.205   5.496  14.874 -0.4368 -1.1490  1.1109
17173TIP3   OH273009   4.222   2.380  15.057 -0.2099  0.2547 -0.1336
17173TIP3    H173010   4.187   2.294  15.078 -1.6361  0.6865 -0.5809
17173TIP3    H273011   4.146   2.439  15.064  0.6521  1.4081 -0.1796
17174TIP3   OH273012   6.801   4.777   5.580 -0.0161 -0.2153 -0.2730
17174TIP3    H173013   6.722   4.810   5.536 -1.1264  0.1837  1.8967
17174TIP3    H273014   6.873   4.823   5.536 -0.7569 -1.7328 -3.3810
17175TIP3   OH273015   3.854   5.173  13.301 -0.1656 -0.3572 -0.4959
17175TIP3    H173016   3.807   5.150  13.382  1.2641  0.6138  0.6750
17175TIP3    H273017   3.908   5.097  13.282  0.7484  0.0370  0.4487
17176TIP3   OH273018   2.686   5.748  15.152 -0.1055  0.2103  0.4012
17176TIP3    H173019   2.664   5.679  15.215 -0.1522 -1.1321 -1.0096
17176TIP3    H273020   2.636   5.725  15.073 -1.0040  2.5090  0.2219
17177TIP3   OH273021   2.901   6.465  11.253  0.4062 -0.1913 -0.4148
17177TIP3    H173022   2.869   6.413  11.327  2.5962 -1.8558 -0.5279
17177TIP3    H273023   2.861   6.425  11.176 -0.6957  0.6001 -0.2821
17178TIP3   OH273024   3.263   2.202   2.557  0.0259 -0.1270  0.2027
17178TIP3    H173025   3.292   2.141   2.489  1.8662  3.2886 -2.4354
17178TIP3    H273026   3.342   2.219   2.608  0.7420  2.8689 -1.6649
17179TIP3   OH273027   4.855   0.705   1.375  0.2128  0.4886  0.4326
17179TIP3    H173028   4.771   0.741   1.346 -0.1841 -1.3377 -0.8440
17179TIP3    H273029   4.872   0.748   1.459 -2.0945  0.7659  0.8222
17180TIP3   OH273030   5.791   0.566  16.596 -0.5732 -0.3836  0.3367
17180TIP3    H173031   5.730   0.596  16.663 -1.0410 -1.1549  0.2675
17180TIP3    H273032   5.810   0.475  16.619 -0.6265 -0.6164 -0.4896
17181TIP3   OH273033   4.960   6.000   6.291 -0.9087  0.0793  0.5109
17181TIP3    H173034   4.956   5.972   6.383  0.1774 -1.9907 -0.0021
17181TIP3    H273035   5.020   5.937   6.250 -2.6043 -0.0556 -1.9456
17182TIP3   OH273036   4.943   0.899   0.354  0.3650  0.5442 -0.7425
17182TIP3    H173037   5.027   0.921   0.395  1.7776 -0.5844 -2.7977
17182TIP3    H273038   4.887   0.871   0.426  1.3911  2.3150  0.8272
17183TIP3   OH273039   0.255   2.052   0.470  0.3760  0.8031 -0.2882
17183TIP3    H173040   0.290   2.064   0.382 -0.3938  1.3287 -0.5375
17183TIP3    H273041   0.180   2.112   0.474  1.3649  2.0131  1.2758
17184TIP3   OH273042   5.837   1.431   2.547  0.3346  0.0908  0.7937
17184TIP3    H173043   5.768   1.401   2.605 -1.0190  0.9181 -0.3196
17184TIP3    H273044   5.845   1.362   2.481  0.1578  0.2502  0.6022
17185TIP3   OH273045   3.631   5.819  15.447  0.2488  0.3747 -0.3960
17185TIP3    H173046   3.723   5.812  15.423 -0.1814 -1.1679 -1.8497
17185TIP3    H273047   3.622   5.763  15.524  0.3097 -0.5537 -1.0462
17186TIP3   OH273048   0.666   3.939   0.628  0.1500  0.3772  0.2602
17186TIP3    H173049   0.705   3.998   0.692 -1.2972  0.9360  0.6560
17186TIP3    H273050   0.621   3.997   0.567  0.9371 -0.1870 -0.9037
17187TIP3   OH273051   4.189   3.562   1.766 -0.1888 -0.1008 -0.3792
17187TIP3    H173052   4.197   3.549   1.861  0.3758  1.1728 -0.2270
17187TIP3    H273053   4.279   3.571   1.736 -0.4065  0.4112 -0.8943
17188TIP3   OH273054   0.913   2.129   0.706  0.0348  0.2520 -0.0058
17188TIP3    H173055   0.878   2.041   0.698  0.0361  0.3887 -1.9428
17188TIP3    H273056   0.921   2.143   0.801 -1.9062 -1.0271  0.4088
17189TIP3   OH273057   2.153   4.394  14.092  0.7538 -0.1918 -0.5474
17189TIP3    H173058   2.144   4.489  14.096  0.4449 -0.2664  1.2356
17189TIP3    H273059   2.120   4.370  14.005  0.5839  1.2919 -0.9111
17190TIP3   OH273060   3.777   5.915  14.574  0.1742 -0.2432  0.1322
17190TIP3    H173061   3.737   5.967  14.504  0.5637  0.8830  0.7247
17190TIP3    H273062   3.739   5.950  14.654  1.4236  0.0151  0.6259
17191TIP3   OH273063   4.166   1.417  16.519 -0.0422  1.0307 -0.3322
17191TIP3    H173064   4.176   1.344  16.580  0.4837 -1.1259 -2.8038
17191TIP3    H273065   4.120   1.484  16.569  1.0701 -0.2264  2.6336
17192TIP3   OH273066   6.066   3.646   2.958  0.2118  0.6918  0.0068
17192TIP3    H173067   6.086   3.657   3.051 -0.7746  0.9701  0.1990
17192TIP3    H273068   5.996   3.581   2.956 -0.3262  1.2734 -0.4832
17193TIP3   OH273069   3.298   1.233  12.123 -0.0136 -0.1554  0.0812
17193TIP3    H173070   3.275   1.151  12.167  0.3961 -0.2413  0.1352
17193TIP3    H273071   3.250   1.300  12.172  1.0743 -0.1553  1.1846
17194TIP3   OH273072   6.618   2.184  11.908 -0.1728 -0.1055 -0.6985
17194TIP3    H173073   6.551   2.183  11.840 -2.3224 -0.1719  1.2968
17194TIP3    H273074   6.647   2.275  11.912  0.1187 -0.1348 -1.7657
17195TIP3   OH273075   1.234   2.079  14.750 -0.4835 -0.0650  0.1199
17195TIP3    H173076   1.323   2.109  14.732  0.1276 -1.2179  1.0601
17195TIP3    H273077   1.212   2.022  14.677  0.1444 -0.9509  0.6002
17196TIP3   OH273078   0.491   0.319  11.000 -0.1167  0.0738  0.8817
17196TIP3    H173079   0.414   0.327  10.944 -0.5163  1.5187  1.5771
17196TIP3    H273080   0.485   0.232  11.039 -0.7751 -0.2591  0.0542
17197TIP3   OH273081   2.188   0.113   5.255  0.1902 -0.5832  0.1646
17197TIP3    H173082   2.216   0.168   5.328  1.0750 -3.4857  2.1917
17197TIP3    H273083   2.092   0.108   5.265  0.1749  0.0397  0.3673
17198TIP3   OH273084   2.306   3.076   1.266  0.3583  0.3022  1.0244
17198TIP3    H173085   2.371   3.133   1.225  0.4705 -0.6523 -0.2223
17198TIP3    H273086   2.355   2.997   1.291 -0.7292 -2.1797 -3.4724
17199TIP3   OH273087   2.353   3.997  15.514 -0.0419 -0.4460 -0.3099
17199TIP3    H173088   2.365   4.016  15.607 -0.9470  1.5582 -0.5354
17199TIP3    H273089   2.424   3.938  15.492  2.0902  1.4655  0.9751
17200TIP3   OH273090   2.476   3.538   1.257 -0.1174 -0.1987 -0.6638
17200TIP3    H173091   2.407   3.576   1.311 -0.0117 -0.9234  0.0136
17200TIP3    H273092   2.485   3.597   1.182 -1.0590  0.2117 -0.4580
17201TIP3   OH273093   3.050   2.774  13.267  0.1287  0.0194  0.2271
17201TIP3    H173094   3.029   2.757  13.359 -2.3241 -0.3552 -0.3351
17201TIP3    H273095   3.063   2.687  13.230  1.4040  0.1859  0.2541
17202TIP3   OH273096   0.612   3.393   2.965  0.2047  0.0409  0.0108
17202TIP3    H173097   0.664   3.350   2.897 -0.4068  0.1968 -0.5555
17202TIP3    H273098   0.523   3.360   2.952 -0.6147  2.5972 -1.4359
17203TIP3   OH273099   5.420   0.537   3.569 -0.3038  0.0690 -0.4930
17203TIP3    H173100   5.409   0.506   3.658 -1.2988  1.2857 -0.1683
17203TIP3    H273101   5.463   0.465   3.523 -0.7176 -0.9613  0.7088
17204TIP3   OH273102   5.925   3.405  14.804 -0.0679 -0.3504 -0.1294
17204TIP3    H173103   5.977   3.324  14.806  0.8718  0.2476  0.7580
17204TIP3    H273104   5.854   3.388  14.866  0.3730 -0.3481  0.3839
17205TIP3   OH273105   0.024   3.187   2.930 -0.0721 -0.2529 -0.3404
17205TIP3    H173106   0.059   3.132   2.859  1.5961  1.2099 -0.7423
17205TIP3    H273107   0.029   3.276   2.895  0.1711  0.4436  1.3717
17206TIP3   OH273108   3.949   1.071  14.222  0.5519  0.5320  0.3277
17206TIP3    H173109   3.921   1.094  14.133  0.4208 -0.8005  0.0008
17206TIP3    H273110   3.870   1.077  14.275 -0.2806 -2.3024 -0.4130
17207TIP3   OH273111   4.944   4.501   5.041  0.0642 -0.1593  0.0967
17207TIP3    H173112   4.858   4.467   5.018 -1.2534  1.4398  2.2880
17207TIP3    H273113   4.968   4.454   5.121 -1.0747  2.6604  2.2533
17208TIP3   OH273114   3.411   1.087  11.496 -0.2687  0.5095  0.7313
17208TIP3    H173115   3.374   1.174  11.483 -0.3234  0.4255  0.3114
17208TIP3    H273116   3.494   1.089  11.450  0.0823  0.5735  1.3511
17209TIP3   OH273117   5.399   1.046  13.770 -0.4809 -0.2366  0.0959
17209TIP3    H173118   5.421   1.007  13.686  0.1606  0.9260 -0.2893
17209TIP3    H273119   5.312   1.084  13.757 -0.6864 -0.6687  0.1813
17210TIP3   OH273120   1.787   2.259  12.879  0.7615  0.8166  0.7030
17210TIP3    H173121   1.799   2.295  12.792 -0.5698 -0.3317  0.0152
17210TIP3    H273122   1.700   2.221  12.878  2.4010 -3.5741  0.8879
17211TIP3   OH273123   4.479   0.469   2.011  0.1096 -0.0640  0.4949
17211TIP3    H173124   4.504   0.405   2.078 -0.3893 -1.5825 -0.7088
17211TIP3    H273125   4.397   0.436   1.976  0.3464  0.7082 -0.8403
17212TIP3   OH273126   2.558   0.285  13.685 -0.3439  0.4751  0.2757
17212TIP3    H173127   2.598   0.198  13.688  0.8243  1.0253  1.9569
17212TIP3    H273128   2.516   0.294  13.771 -1.0251  1.3325 -0.1340
17213TIP3   OH273129   0.502   0.867   1.328  0.5603 -0.0832  0.2062
17213TIP3    H173130   0.596   0.860   1.343  0.6558  1.5028  0.4816
17213TIP3    H273131   0.472   0.933   1.390 -0.6835 -0.3231 -0.1006
17214TIP3   OH273132   1.263   3.449   2.168  0.5093 -0.2772  0.3456
17214TIP3    H173133   1.293   3.479   2.254 -1.3062 -3.7564  2.4103
17214TIP3    H273134   1.337   3.400   2.132  0.4054 -1.1061  1.2216
17215TIP3   OH273135   4.975   3.592   2.615 -0.1314 -0.3389  0.2902
17215TIP3    H173136   4.945   3.660   2.554 -2.0241 -1.5746 -0.2223
17215TIP3    H273137   5.027   3.533   2.560 -1.2009 -1.0427  0.0263
17216TIP3   OH273138   5.465   3.727  14.261 -0.2386  0.3453 -0.0419
17216TIP3    H173139   5.524   3.676  14.316  0.4446  1.5773  0.4004
17216TIP3    H273140   5.398   3.665  14.232  0.4220 -0.7182  0.6996
17217TIP3   OH273141   0.927   4.639  11.317  0.2834  0.9258 -0.2808
17217TIP3    H173142   0.964   4.587  11.389 -1.1047  0.5162  0.1604
17217TIP3    H273143   0.851   4.589  11.288  0.5650  1.3119 -1.7608
17218TIP3   OH273144   0.868   4.756  16.518 -0.0045  0.0415 -0.2143
17218TIP3    H173145   0.837   4.673  16.482  0.5564 -0.5524  0.6075
17218TIP3    H273146   0.918   4.796  16.448 -1.1995  0.2223 -0.9919
17219TIP3   OH273147   2.853   3.391   4.735 -0.1657 -0.3287  0.2322
17219TIP3    H173148   2.897   3.413   4.652 -0.2274 -0.2088  0.2306
17219TIP3    H273149   2.768   3.357   4.709 -0.6489  0.7871  0.2769
17220TIP3   OH273150   5.153   1.668  16.107 -0.3959  0.3910  0.3955
17220TIP3    H173151   5.100   1.619  16.170  0.5546 -0.8906  0.2182
17220TIP3    H273152   5.157   1.756  16.144 -1.1117  0.0477  1.3421
17221TIP3   OH273153   3.618   5.682   4.116 -0.5139  0.3057  0.1073
17221TIP3    H173154   3.678   5.748   4.150 -1.9678  1.4812  0.4845
17221TIP3    H273155   3.674   5.623   4.065  0.7880  1.9441 -0.4463
17222TIP3   OH273156   6.817   0.090   3.964  0.0083  0.2017  0.1706
17222TIP3    H173157   6.884   0.100   4.032 -1.3779  0.9397  1.4972
17222TIP3    H273158   6.867   0.080   3.883  1.7346 -0.7579  1.2701
17223TIP3   OH273159   4.690   5.857   5.345  0.6674 -0.0951 -0.2188
17223TIP3    H173160   4.741   5.778   5.327 -1.5594 -1.5735 -0.4980
17223TIP3    H273161   4.621   5.827   5.405 -0.7818  1.3975 -1.0677
17224TIP3   OH273162   2.219   4.243   1.069  0.0126 -0.3169  0.0786
17224TIP3    H173163   2.142   4.300   1.072 -0.7164 -1.2431 -0.6145
17224TIP3    H273164   2.210   4.186   1.145  0.0316 -0.4111  0.0100
17225TIP3   OH273165   1.124   2.091  16.468 -0.1299  0.3879 -0.5665
17225TIP3    H173166   1.054   2.072  16.406 -3.2975 -0.3052  2.9211
17225TIP3    H273167   1.146   2.006  16.506 -0.3417  1.1254  1.2763
17226TIP3   OH273168   0.722   0.841  13.545 -0.2677  0.1765 -0.1317
17226TIP3    H173169   0.729   0.794  13.461 -1.2727 -0.3672  0.0776
17226TIP3    H273170   0.680   0.779  13.604 -0.2232  0.8149  0.5831
17227TIP3   OH273171   2.632   3.153   5.344 -0.1997 -0.5870 -0.9014
17227TIP3    H173172   2.632   3.244   5.373 -2.0769 -1.6313  3.1294
17227TIP3    H273173   2.565   3.149   5.276  0.0734  1.0240 -1.2994
17228TIP3   OH273174   2.693   4.119  12.058  0.0247  0.1052  0.2073
17228TIP3    H173175   2.660   4.129  11.969 -0.0428 -2.9690 -0.2350
17228TIP3    H273176   2.660   4.195  12.105  0.2689  1.9579 -2.4133
17229TIP3   OH273177   5.352   2.648  12.772  0.0539 -0.3694 -0.2612
17229TIP3    H173178   5.286   2.656  12.703  0.1816 -1.7954 -0.5765
17229TIP3    H273179   5.406   2.726  12.764 -2.7270  1.9169  1.2615
17230TIP3   OH273180   1.345   0.565  11.200  0.2174  0.2741  0.3303
17230TIP3    H173181   1.374   0.476  11.219  0.3032  0.3200  0.4164
17230TIP3    H273182   1.397   0.592  11.124  0.7345  0.5226  0.7665
17231TIP3   OH273183   3.016   1.004   0.368 -0.3958 -0.0179  0.0860
17231TIP3    H173184   3.079   0.954   0.316  1.0268 -0.2830  1.9539
17231TIP3    H273185   2.968   1.057   0.304  0.9703 -0.6357 -1.5127
17232TIP3   OH273186   2.639   1.080  14.689  0.3476  0.3002 -0.0896
17232TIP3    H173187   2.606   1.051  14.774 -3.0724  0.3636 -1.2289
17232TIP3    H273188   2.673   1.000  14.648 -0.1939 -0.2149  0.4414
17233TIP3   OH273189   6.338   3.412  12.629  0.0346  0.0547 -0.4181
17233TIP3    H173190   6.319   3.358  12.553 -0.3333  1.6219 -1.4997
17233TIP3    H273191   6.366   3.496  12.592  1.4829  0.3341  1.1726
17234TIP3   OH273192   0.281   3.834   0.514 -0.3570 -0.9520  0.0759
17234TIP3    H173193   0.229   3.835   0.595  0.6973  3.5395  0.9437
17234TIP3    H273194   0.216   3.823   0.444 -1.8286 -0.6074  1.3409
17235TIP3   OH273195   6.232   2.374   1.950  0.0075 -0.0824 -0.2703
17235TIP3    H173196   6.270   2.361   1.863  2.7844 -1.1804  0.9879
17235TIP3    H273197   6.162   2.309   1.956 -0.3373  0.1267 -1.7109
17236TIP3   OH273198   2.517   0.759   3.246 -0.1624  0.4586 -0.4989
17236TIP3    H173199   2.553   0.807   3.320 -2.4709  0.0470  1.0129
17236TIP3    H273200   2.553   0.671   3.254 -1.1436  0.1392  0.7890
17237TIP3   OH273201   3.219   3.983  16.942  0.1308  0.1270 -0.0810
17237TIP3    H173202   3.277   3.911  16.921  0.8543  1.1823 -1.9949
17237TIP3    H273203   3.263   4.030  17.013  0.8981  0.0867 -0.5238
17238TIP3   OH273204   3.321   1.029  13.980 -0.3817  0.1799 -0.0978
17238TIP3    H173205   3.307   0.958  13.918 -1.5289  0.9293 -0.7388
17238TIP3    H273206   3.232   1.055  14.007  0.0619 -0.9125  2.8084
17239TIP3   OH273207   3.681   1.551   5.785  0.1924  0.2568  0.0335
17239TIP3    H173208   3.631   1.475   5.754  2.8316 -0.9004 -1.6726
17239TIP3    H273209   3.700   1.531   5.876 -1.0404 -0.0081  0.2565
17240TIP3   OH273210   4.704   2.964  15.902 -0.2693  0.1680 -0.2913
17240TIP3    H173211   4.669   2.875  15.894  0.7245 -0.5708  2.3235
17240TIP3    H273212   4.798   2.953  15.891 -0.1598  0.9390 -0.1181
17241TIP3   OH273213   6.261   1.144   2.613  0.3457 -0.0178  0.2532
17241TIP3    H173214   6.318   1.096   2.553  1.1232 -0.9088  1.6353
17241TIP3    H273215   6.176   1.102   2.604 -0.0495  1.0575 -1.5316
17242TIP3   OH273216   2.741   6.720   3.896  0.4921 -0.1603  0.6480
17242TIP3    H173217   2.772   6.653   3.958  0.2062 -1.5285 -0.6259
17242TIP3    H273218   2.653   6.689   3.871  2.1564 -2.1557 -3.7224
17243TIP3   OH273219   2.942   0.135  13.390 -0.5402 -0.6468 -0.5379
17243TIP3    H173220   2.855   0.170  13.372 -0.9100 -0.4448  1.4558
17243TIP3    H273221   2.927   0.041  13.405 -0.1738 -0.8986 -1.6501
17244TIP3   OH273222   2.007   4.979  14.529 -1.2765  0.6080  0.0775
17244TIP3    H173223   1.935   5.030  14.494 -1.4713 -1.1954 -2.3917
17244TIP3    H273224   1.974   4.889  14.532  0.8599 -0.3280 -1.4502
17245TIP3   OH273225   2.544   0.046  14.606 -0.0824  0.3591 -0.6451
17245TIP3    H173226   2.480   0.103  14.565 -0.1844  0.4769 -0.3181
17245TIP3    H273227   2.517   0.039  14.697 -2.0863 -2.9317 -1.3262
17246TIP3   OH273228   1.320   5.875  12.639 -0.6996  0.3885 -0.2080
17246TIP3    H173229   1.352   5.785  12.638  0.5814  0.8140  0.1469
17246TIP3    H273230   1.291   5.891  12.550  0.9283  0.2330 -0.8056
17247TIP3   OH273231   6.446   4.585  14.266  0.8049 -0.6553 -0.0725
17247TIP3    H173232   6.489   4.620  14.188  0.4051  0.7490  0.3050
17247TIP3    H273233   6.356   4.620  14.261  0.7395 -0.6450  0.9474
17248TIP3   OH273234   1.182   4.164   3.496 -0.1894 -0.4780 -0.0598
17248TIP3    H173235   1.130   4.240   3.521  1.8384  0.2409  2.4228
17248TIP3    H273236   1.188   4.111   3.576  1.4422 -1.3713 -0.7144
17249TIP3   OH273237   6.223   0.259   1.186 -0.0678  0.1222  0.3545
17249TIP3    H173238   6.133   0.225   1.176  0.6511 -1.6820 -0.4431
17249TIP3    H273239   6.228   0.330   1.121 -0.5476 -0.6147 -0.5284
17250TIP3   OH273240   1.451   2.892   2.567  0.0483  0.7864  0.2502
17250TIP3    H173241   1.486   2.812   2.527 -0.6950  0.8229 -0.4967
17250TIP3    H273242   1.528   2.949   2.575  0.4070  0.3685 -0.1303
17251TIP3   OH273243   0.761   3.086   2.447  0.2707  0.2944 -0.1431
17251TIP3    H173244   0.820   3.154   2.415 -1.2365  1.0498 -1.4509
17251TIP3    H273245   0.673   3.123   2.437 -0.4668 -0.9087  1.4406
17252TIP3   OH273246   0.502   4.311   6.533 -0.1457  0.6230 -0.5692
17252TIP3    H173247   0.591   4.274   6.537  0.3872  1.5725 -2.4773
17252TIP3    H273248   0.495   4.364   6.612  1.1153  0.7673 -0.5210
17253TIP3   OH273249   4.183   2.581  11.404 -1.1314 -0.1046  0.0239
17253TIP3    H173250   4.140   2.530  11.474 -2.6914  0.6448 -0.3541
17253TIP3    H273251   4.276   2.562  11.416 -1.3903 -0.4362  1.9656
17254TIP3   OH273252   5.598   2.801   1.239  0.1649  0.0747 -0.5831
17254TIP3    H173253   5.609   2.794   1.144 -1.0524 -0.8356 -0.6876
17254TIP3    H273254   5.523   2.744   1.258  0.5712  0.0193  0.9626
17255TIP3   OH273255   1.921   1.472   2.087  0.1947  0.0746  0.4197
17255TIP3    H173256   1.905   1.428   2.003 -1.1715 -0.4247  0.9148
17255TIP3    H273257   1.870   1.553   2.081 -0.3806 -0.2419  0.9868
17256TIP3   OH273258   5.163   6.410   3.839 -0.3623  0.3229 -0.0188
17256TIP3    H173259   5.105   6.473   3.881 -1.7443 -1.6777  1.2792
17256TIP3    H273260   5.104   6.347   3.797  0.9655  0.1414 -1.7464
17257TIP3   OH273261   4.576   1.201  11.885  0.4689 -0.5210 -0.0857
17257TIP3    H173262   4.618   1.259  11.948  0.1723 -1.4612  1.0127
17257TIP3    H273263   4.522   1.142  11.938 -3.0960  1.1976 -1.4326
17258TIP3   OH273264   5.621   4.943   3.094  0.3609  0.3441  0.0893
17258TIP3    H173265   5.564   4.938   3.170 -0.2888  0.9240 -0.3524
17258TIP3    H273266   5.707   4.966   3.130 -0.0701  1.1882  0.5968
17259TIP3   OH273267   2.281   0.198   3.608  0.7476 -0.1558  0.2267
17259TIP3    H173268   2.291   0.128   3.673 -0.7242  0.4320  1.1411
17259TIP3    H273269   2.201   0.176   3.560  1.6299 -0.3955 -1.1821
17260TIP3   OH273270   6.710   4.994   2.830 -0.0971 -0.0024  0.1740
17260TIP3    H173271   6.797   4.987   2.793 -0.3607 -0.6818 -0.3331
17260TIP3    H273272   6.720   4.967   2.921  0.0492 -1.0564 -0.1430
17261TIP3   OH273273   3.362   1.247   5.318  0.1514  0.6979  0.3719
17261TIP3    H173274   3.301   1.190   5.271  0.7946  1.1494 -1.0658
17261TIP3    H273275   3.346   1.228   5.411 -1.4527  0.0802  0.0063
17262TIP3   OH273276   5.866   5.118  12.036 -0.2818 -0.3759 -0.1797
17262TIP3    H173277   5.867   5.108  11.940  0.2085  0.1554 -0.2359
17262TIP3    H273278   5.792   5.176  12.053 -0.0326 -0.0293 -0.2826
17263TIP3   OH273279   5.643   0.677   3.898 -0.1038 -0.3585  0.2596
17263TIP3    H173280   5.643   0.639   3.810 -0.2045 -0.1192  0.1549
17263TIP3    H273281   5.724   0.646   3.937 -0.1034 -0.5428  0.1144
17264TIP3   OH273282   5.397   0.313   0.316 -0.4329  0.6232 -0.3150
17264TIP3    H173283   5.382   0.337   0.225  0.2724  2.2089 -0.0468
17264TIP3    H273284   5.425   0.222   0.312  1.2832  1.1546 -1.8889
17265TIP3   OH273285   1.081   1.694  12.142 -0.2085  0.5282 -0.3477
17265TIP3    H173286   1.008   1.671  12.200  1.6457 -0.1396  1.8933
17265TIP3    H273287   1.048   1.766  12.090 -3.6651 -1.9665 -2.0495
17266TIP3   OH273288   4.582   6.337   0.322 -0.0898 -0.2604  0.7865
17266TIP3    H173289   4.495   6.330   0.362 -1.1394 -0.1612 -1.3358
17266TIP3    H273290   4.617   6.420   0.353 -1.3114  0.3167  0.6463
17267TIP3   OH273291   4.163   3.562   5.547  0.0981 -0.2198  0.5327
17267TIP3    H173292   4.228   3.513   5.497  0.2093  0.9423 -0.4869
17267TIP3    H273293   4.082   3.551   5.498  0.3247  1.3872 -0.2538
17268TIP3   OH273294   1.916   6.217   5.098 -0.3240  0.5162  0.2206
17268TIP3    H173295   1.898   6.309   5.076 -0.2840  0.5309  0.2486
17268TIP3    H273296   1.886   6.208   5.188 -0.0097  0.5934  0.3353
17269TIP3   OH273297   4.920   1.676   2.334  0.3370  0.2864 -0.0760
17269TIP3    H173298   4.962   1.590   2.330  0.0998  0.1352  0.6043
17269TIP3    H273299   4.975   1.727   2.394 -0.5900 -0.0004  1.0414
17270TIP3   OH273300   6.374   0.151   4.494 -0.4586  0.3481  0.1394
17270TIP3    H173301   6.300   0.133   4.552 -1.1681 -0.6810 -1.0268
17270TIP3    H273302   6.373   0.246   4.482 -1.0395  0.4399  0.8468
17271TIP3   OH273303   2.216   5.652   4.078  0.2302  0.3022  0.2580
17271TIP3    H173304   2.167   5.572   4.097 -0.5396  0.0101 -2.4991
17271TIP3    H273305   2.299   5.641   4.124 -0.0485 -1.8511  0.3460
17272TIP3   OH273306   2.986   0.160  12.802 -0.2435 -0.4914 -0.2069
17272TIP3    H173307   2.968   0.102  12.728  0.3310 -0.4045 -0.4171
17272TIP3    H273308   2.993   0.247  12.763 -1.8057 -0.1505  0.1950
17273TIP3   OH273309   2.821   0.420  17.019 -0.7050  0.9398  0.1069
17273TIP3    H173310   2.739   0.461  16.990  0.2140  1.8533 -1.3333
17273TIP3    H273311   2.879   0.493  17.039 -0.4802  0.3057  1.9550
17274TIP3   OH273312   6.437   1.272  14.470  0.3602 -0.1755 -0.7770
17274TIP3    H173313   6.516   1.243  14.515  0.7634  0.9515 -0.7432
17274TIP3    H273314   6.425   1.208  14.400  0.9582 -0.6932 -0.4183
17275TIP3   OH273315   1.154   6.219  15.914  0.1310 -0.0957  0.1645
17275TIP3    H173316   1.104   6.141  15.939  1.1932 -0.8158  0.1073
17275TIP3    H273317   1.106   6.292  15.953 -0.6496 -0.8181  0.5815
17276TIP3   OH273318   0.526   2.841   1.690  0.4486 -0.2295  0.4595
17276TIP3    H173319   0.546   2.908   1.624 -1.1041  2.4040  2.4856
17276TIP3    H273320   0.435   2.818   1.673  0.1893  0.1061  1.3633
17277TIP3   OH273321   4.009   1.152  11.121  0.7330 -0.2295  0.2191
17277TIP3    H173322   4.047   1.163  11.034  3.1422 -2.2850  0.9167
17277TIP3    H273323   3.938   1.089  11.109  0.9756 -0.4074 -0.2696
17278TIP3   OH273324   0.725   4.497  12.776 -0.4316  0.5850 -0.2457
17278TIP3    H173325   0.680   4.578  12.800 -0.2732  0.3083  1.0721
17278TIP3    H273326   0.685   4.431  12.832  0.0931 -0.0742 -0.6455
17279TIP3   OH273327   4.372   3.626   5.193 -0.1280 -0.2405  0.3475
17279TIP3    H173328   4.402   3.634   5.284 -1.8606  0.7484  0.8730
17279TIP3    H273329   4.390   3.535   5.170  2.3189  0.0450  0.9119
17280TIP3   OH273330   3.526   3.653   2.283 -0.7343 -0.2051  0.4137
17280TIP3    H173331   3.600   3.681   2.338 -0.6856  0.6645 -0.0834
17280TIP3    H273332   3.455   3.712   2.307 -1.4478 -1.3812  1.2747
17281TIP3   OH273333   5.220   1.305  15.451  0.1122 -0.2419 -0.1847
17281TIP3    H173334   5.154   1.371  15.474  0.0790 -0.4169  0.2358
17281TIP3    H273335   5.262   1.284  15.534  1.1545  0.3423 -0.5385
17282TIP3   OH273336   6.822   1.723  16.015  0.1730 -0.3783  0.2041
17282TIP3    H173337   6.737   1.735  16.058 -0.6621 -0.5483 -1.3285
17282TIP3    H273338   6.860   1.810  16.015 -1.5139  0.4521 -2.0624
17283TIP3   OH273339   0.949   4.726   5.360  0.1582  0.2744  0.2304
17283TIP3    H173340   0.893   4.756   5.288 -0.7056 -2.3114 -0.2575
17283TIP3    H273341   0.902   4.753   5.439 -0.8370 -0.2029 -0.1845
17284TIP3   OH273342   1.184   4.409   5.395  0.0507 -0.1716 -0.6256
17284TIP3    H173343   1.099   4.398   5.352 -0.0943 -1.8348  0.0008
17284TIP3    H273344   1.171   4.372   5.483  0.2307  3.4302  1.0844
17285TIP3   OH273345   3.752   3.341   5.117 -0.4074 -0.4192  0.7662
17285TIP3    H173346   3.808   3.407   5.077  1.4229 -0.9757  2.2444
17285TIP3    H273347   3.685   3.391   5.164  0.6111  0.3845  1.3963
17286TIP3   OH273348   6.180   3.574  14.504  0.1273  0.3668  0.3116
17286TIP3    H173349   6.152   3.484  14.525  1.3354  0.0840  0.8411
17286TIP3    H273350   6.128   3.629  14.563 -1.4807  0.1381 -0.8323
17287TIP3   OH273351   2.799   5.489   1.872 -0.3866 -0.0767  0.2212
17287TIP3    H173352   2.866   5.433   1.833 -0.5406 -0.1587  0.0731
17287TIP3    H273353   2.790   5.562   1.810  0.8282  0.8648  1.0891
17288TIP3   OH273354   4.666   3.233  16.639 -0.0154 -0.0488  0.3229
17288TIP3    H173355   4.625   3.171  16.579  0.4063  0.6123 -0.6825
17288TIP3    H273356   4.722   3.287  16.583 -1.1945  1.9488  0.9684
17289TIP3   OH273357   0.492   3.883   4.245  0.2604 -0.1846  0.4021
17289TIP3    H173358   0.429   3.831   4.194  1.5187  0.6740 -2.1688
17289TIP3    H273359   0.437   3.940   4.300 -1.2030 -0.3074 -0.8795
17290TIP3   OH273360   6.447   5.255   5.620 -0.0343 -0.5008 -0.4770
17290TIP3    H173361   6.434   5.350   5.610  0.2462 -0.2997  0.8445
17290TIP3    H273362   6.383   5.230   5.687  1.1624 -0.8894  0.5596
17291TIP3   OH273363   5.369   4.283   0.096  0.4306  0.6842  0.0076
17291TIP3    H173364   5.387   4.189   0.102  0.7064  0.6961 -0.6404
17291TIP3    H273365   5.455   4.324   0.091  0.3137  0.9886  0.4135
17292TIP3   OH273366   0.320   3.424   1.990  0.5041  0.1115 -0.1717
17292TIP3    H173367   0.358   3.350   1.943 -1.8240  1.1496 -4.1967
17292TIP3    H273368   0.226   3.419   1.971 -0.0263  2.9399  1.1243
17293TIP3   OH273369   1.675   5.961   2.289  0.1095  0.0262  0.0814
17293TIP3    H173370   1.651   6.030   2.350 -0.5007 -2.0310  2.3667
17293TIP3    H273371   1.604   5.897   2.296  1.0797 -1.2532 -1.1777
17294TIP3   OH273372   1.016   6.597   4.851 -0.0135  0.3298  0.3828
17294TIP3    H173373   0.989   6.583   4.941  1.5457 -0.5567  0.7489
17294TIP3    H273374   1.092   6.654   4.857  0.5883 -0.3734 -0.2902
17295TIP3   OH273375   0.917   6.723   3.332  0.1017 -0.0286  0.1716
17295TIP3    H173376   0.965   6.805   3.323  1.4417 -0.9260 -1.3223
17295TIP3    H273377   0.838   6.736   3.280  0.3955  0.2464 -0.2108
17296TIP3   OH273378   2.393   1.490   1.049  0.6168 -0.2489 -0.3370
17296TIP3    H173379   2.302   1.506   1.024 -0.0561 -0.5619  1.6660
17296TIP3    H273380   2.409   1.399   1.024 -0.2762 -0.7913  0.9495
17297TIP3   OH273381   6.398   3.572   1.955  0.0832 -0.0169 -0.3632
17297TIP3    H173382   6.395   3.484   1.917  0.3914  0.6288 -1.9655
17297TIP3    H273383   6.307   3.601   1.954  0.1029  0.0437 -0.7651
17298TIP3   OH273384   0.007   1.820  16.689  0.0767  0.4198  0.1760
17298TIP3    H173385   0.017   1.746  16.748  0.9087  0.4215  0.0418
17298TIP3    H273386   0.080   1.878  16.709  0.6883  0.1702 -1.2087
17299TIP3   OH273387   3.474   1.323   0.609  0.4089  0.1663 -0.3804
17299TIP3    H173388   3.385   1.352   0.588 -0.5188 -1.0783  1.5338
17299TIP3    H273389   3.486   1.243   0.558 -0.6965 -1.2010  1.3772
17300TIP3   OH273390   5.402   3.603  12.526  0.1623  0.1811  0.3914
17300TIP3    H173391   5.323   3.574  12.571 -1.8333 -1.4916 -3.6314
17300TIP3    H273392   5.371   3.660  12.456  2.4991 -0.2565 -1.1513
17301TIP3   OH273393   4.385   6.052   1.376  0.5031 -0.5836 -0.3863
17301TIP3    H173394   4.318   6.012   1.431  0.9926 -2.5480 -1.1481
17301TIP3    H273395   4.453   6.078   1.437 -0.1495 -0.2269  0.2042
17302TIP3   OH273396   2.744   4.843   5.287 -0.0586  0.4038 -0.1969
17302TIP3    H173397   2.824   4.791   5.299  0.8032  1.0563 -2.6814
17302TIP3    H273398   2.773   4.934   5.297 -1.1114  0.5902  1.7430
17303TIP3   OH273399   1.306   3.137  14.369  0.4886  0.1024 -0.2169
17303TIP3    H173400   1.262   3.188  14.437  1.2678 -0.1858  0.5230
17303TIP3    H273401   1.346   3.064  14.415  0.1936 -0.6665 -1.1351
17304TIP3   OH273402   1.018   6.414  14.150  0.7762  0.0447 -0.3435
17304TIP3    H173403   0.966   6.395  14.072 -0.3688 -2.8102  0.9649
17304TIP3    H273404   1.037   6.328  14.188  0.4735  1.2970  3.0295
17305TIP3   OH273405   3.259   1.495  16.696 -0.0697  0.5020  0.2392
17305TIP3    H173406   3.207   1.416  16.709  0.9666 -0.3389 -0.5553
17305TIP3    H273407   3.301   1.482  16.611  2.0289  0.7836  1.1638
17306TIP3   OH273408   3.321   0.893  16.951 -0.4888 -0.6190 -0.5035
17306TIP3    H173409   3.285   0.872  16.865 -0.6157 -0.2918 -0.5335
17306TIP3    H273410   3.288   0.825  17.008 -1.0067 -0.4269 -0.5701
17307TIP3   OH273411   4.532   3.073   2.819  0.2718  0.4503  0.2511
17307TIP3    H173412   4.461   3.135   2.806 -1.2329 -0.9340  1.5383
17307TIP3    H273413   4.520   3.007   2.751  1.8417  1.4355 -1.0835
17308TIP3   OH273414   3.447   5.091   5.486 -0.2267 -0.7254  0.1929
17308TIP3    H173415   3.460   5.183   5.509  3.2669 -1.3158  1.1041
17308TIP3    H273416   3.448   5.091   5.390  1.3998  0.0861  0.1589
17309TIP3   OH273417   0.133   3.566  11.277 -0.1946 -0.2146 -0.2154
17309TIP3    H173418   0.083   3.485  11.286  4.4608 -3.3076  0.9040
17309TIP3    H273419   0.153   3.572  11.183  2.0681 -2.2903  0.0599
17310TIP3   OH273420   5.916   0.562  13.011  0.4339  0.0801 -0.2013
17310TIP3    H173421   5.938   0.633  12.950 -0.9177 -1.1548 -2.2635
17310TIP3    H273422   5.912   0.604  13.097 -3.5951  3.3985 -1.6485
17311TIP3   OH273423   4.620   1.543  15.519 -0.5741 -0.1848  0.5616
17311TIP3    H173424   4.553   1.531  15.585 -0.7343  0.0654  0.4479
17311TIP3    H273425   4.703   1.529  15.565 -0.7319 -1.7665  0.4250
17312TIP3   OH273426   3.000   5.223  15.017  0.1841  0.0137 -0.6504
17312TIP3    H173427   2.959   5.138  14.997 -1.6716  1.0882 -1.7587
17312TIP3    H273428   2.937   5.266  15.075  0.9907  0.7337 -0.2947
17313TIP3   OH273429   4.335   0.053   0.912  0.0975  0.1877 -0.5785
17313TIP3    H173430   4.351  -0.007   0.985  1.4249 -0.0786 -1.0752
17313TIP3    H273431   4.266   0.009   0.860 -0.1915 -0.0604  0.0029
17314TIP3   OH273432   0.213   1.340  12.277  0.1632 -0.1824 -0.0694
17314TIP3    H173433   0.196   1.365  12.368 -1.1296  1.5001 -0.7166
17314TIP3    H273434   0.136   1.287  12.252 -0.7151  1.3998 -0.8643
17315TIP3   OH273435   5.161   3.609  12.700 -0.4935 -0.2279  0.3295
17315TIP3    H173436   5.198   3.684  12.745  2.2675  0.2784 -2.4290
17315TIP3    H273437   5.131   3.643  12.616 -2.1574 -1.7232  0.2409
17316TIP3   OH273438   5.153   0.587   3.500  0.0172  0.4372  0.0216
17316TIP3    H173439   5.244   0.573   3.525  0.2102  1.8166  0.1951
17316TIP3    H273440   5.136   0.679   3.521 -1.8507 -0.1428  1.3050
17317TIP3   OH273441   2.239   2.780  16.861  0.0561 -0.4527  0.3495
17317TIP3    H173442   2.212   2.719  16.793  0.1397  0.5498 -0.6130
17317TIP3    H273443   2.289   2.848  16.815  0.7793 -0.1485  1.5154
17318TIP3   OH273444   1.857   1.016   1.133 -0.0650  0.0328 -0.6894
17318TIP3    H173445   1.777   0.973   1.164 -0.5153 -0.5031 -2.4725
17318TIP3    H273446   1.876   0.973   1.049  2.9373 -0.8820  0.3346
17319TIP3   OH273447   4.904   6.740   0.470 -0.2504  0.6121 -0.0123
17319TIP3    H173448   4.975   6.743   0.534 -0.6183 -1.7076  0.5735
17319TIP3    H273449   4.845   6.811   0.496 -0.1861 -0.0273  1.9825
17320TIP3   OH273450   5.800   3.733   1.577  0.1599 -0.0790  0.1262
17320TIP3    H173451   5.794   3.741   1.672 -0.2164 -1.0257  0.1932
17320TIP3    H273452   5.757   3.811   1.544  1.3253  0.8496  0.7290
17321TIP3   OH273453   0.946   4.728  12.354  0.2245  0.5927  0.0872
17321TIP3    H173454   0.897   4.805  12.329  0.2086 -0.0981 -2.2472
17321TIP3    H273455   1.036   4.759  12.365 -0.1392  1.2833  1.2313
17322TIP3   OH273456   0.420   2.594   2.949 -0.9452  0.1238 -0.0931
17322TIP3    H173457   0.350   2.603   2.884 -2.0776  1.6949  1.2806
17322TIP3    H273458   0.444   2.684   2.970  1.0631 -0.3824 -0.0405
17323TIP3   OH273459   4.339   0.211   1.184 -0.1734  0.0928  0.3089
17323TIP3    H173460   4.378   0.298   1.193 -0.2148  0.0016  1.4760
17323TIP3    H273461   4.395   0.167   1.119  0.0085  0.8916 -0.0870
17324TIP3   OH273462   6.196   4.728   2.866  0.1801  0.0484 -0.0394
17324TIP3    H173463   6.219   4.739   2.773 -1.8533  0.1089 -0.5807
17324TIP3    H273464   6.253   4.790   2.912  3.1163 -1.8192 -0.8999
17325TIP3   OH273465   1.581   3.755  11.428 -0.2927 -0.1566 -0.6810
17325TIP3    H173466   1.571   3.850  11.423 -1.8602 -0.0626  1.9837
17325TIP3    H273467   1.505   3.721  11.381 -0.7392 -0.0164 -0.0759
17326TIP3   OH273468   5.586   6.026  17.046  1.0074  0.3942  0.8501
17326TIP3    H173469   5.501   6.069  17.036  0.3037 -1.1287 -0.0030
17326TIP3    H273470   5.593   6.009  17.140 -0.2147 -0.5448  0.8032
17327TIP3   OH273471   3.527   2.909  12.397 -0.2235 -0.7034 -0.0825
17327TIP3    H173472   3.548   2.817  12.386 -3.1860 -1.5944  0.7682
17327TIP3    H273473   3.471   2.929  12.322  0.2473  0.3850 -0.1626
17328TIP3   OH273474   6.499   1.758  15.581  0.1452  0.1143 -0.1910
17328TIP3    H173475   6.481   1.697  15.653  0.9253 -0.2536 -0.2952
17328TIP3    H273476   6.554   1.826  15.621  0.7818 -0.2174 -0.4825
17329TIP3   OH273477   4.844   0.385   0.098 -0.5959 -0.2903  0.6643
17329TIP3    H173478   4.826   0.299   0.134 -1.4404 -0.4415 -0.0873
17329TIP3    H273479   4.848   0.443   0.175 -2.9434 -0.5006  1.0213
17330TIP3   OH273480   1.596   5.631   4.162  0.4770 -0.3281 -0.4395
17330TIP3    H173481   1.666   5.584   4.207  1.3412  0.5126 -0.8670
17330TIP3    H273482   1.599   5.598   4.072 -0.3699 -1.0348 -0.2242
17331TIP3   OH273483   2.496   2.635  10.432  0.6869 -0.4283  0.5930
17331TIP3    H173484   2.581   2.598  10.455  0.5810 -0.2005  1.3678
17331TIP3    H273485   2.457   2.571  10.373  0.9251 -1.0837  1.1362
17332TIP3   OH273486   3.437   1.428  16.504 -0.0741 -0.0409  0.5183
17332TIP3    H173487   3.432   1.355  16.442  1.2355  0.4919 -0.2561
17332TIP3    H273488   3.523   1.421  16.544 -0.1918  0.6852  0.9242
17333TIP3   OH273489   4.764   2.378  12.494  0.1596  0.3109  0.5916
17333TIP3    H173490   4.773   2.291  12.533 -1.0715 -0.0825  0.0317
17333TIP3    H273491   4.793   2.367  12.404 -0.6168  0.3192  0.3352
17334TIP3   OH273492   6.808   0.425   5.991  0.5770 -0.0196 -0.3992
17334TIP3    H173493   6.727   0.387   6.025  0.6908 -1.1279 -1.3239
17334TIP3    H273494   6.823   0.380   5.908  2.7361 -0.6651  0.2654
17335TIP3   OH273495   3.317   3.629  12.633  0.4130  0.1413  0.0503
17335TIP3    H173496   3.262   3.707  12.641  0.1334  0.0181 -0.6156
17335TIP3    H273497   3.283   3.569  12.699  0.3970  0.4446  0.3218
17336TIP3   OH273498   0.233   4.005   4.797 -0.1952 -0.7088 -0.4868
17336TIP3    H173499   0.250   3.937   4.863 -0.0377  1.5218  1.9000
17336TIP3    H273500   0.138   4.017   4.799 -0.0164  0.7404  0.8661
17337TIP3   OH273501   5.837   3.397  13.055  0.0040 -0.3053 -0.3687
17337TIP3    H173502   5.788   3.403  12.973 -0.7701  1.4324  0.1512
17337TIP3    H273503   5.781   3.344  13.112 -1.9500  2.4688  0.5487
17338TIP3   OH273504   4.339   0.283  12.250  0.1795  0.4060 -0.1078
17338TIP3    H173505   4.349   0.378  12.254  0.7146  0.4671 -2.0223
17338TIP3    H273506   4.416   0.252  12.202  0.2463 -1.0556  0.8662
17339TIP3   OH273507   2.076   5.483  11.395  0.6457  0.1980  0.2721
17339TIP3    H173508   2.108   5.565  11.358 -0.0188  0.4282  0.1978
17339TIP3    H273509   2.051   5.430  11.319  0.2351  0.2763  0.3495
17340TIP3   OH273510   4.487   1.884  10.856  0.5150 -0.0615  0.8395
17340TIP3    H173511   4.479   1.843  10.770  0.9473 -1.4502  1.4381
17340TIP3    H273512   4.482   1.812  10.918 -0.3626  0.9750  2.0356
17341TIP3   OH273513   5.136   2.067  16.440  0.9559  0.3196 -0.4992
17341TIP3    H173514   5.092   2.013  16.506  0.1073  0.6022 -0.8206
17341TIP3    H273515   5.091   2.151  16.444  0.7334  0.2682 -1.5907
17342TIP3   OH273516   4.312   1.796   1.027  0.1480  0.5877  0.1906
17342TIP3    H173517   4.370   1.748   1.087 -0.0120  1.0451  0.7306
17342TIP3    H273518   4.329   1.759   0.941 -0.3961 -0.8441  0.6648
17343TIP3   OH273519   5.242   4.011   0.636  0.2334  0.3703 -0.2983
17343TIP3    H173520   5.203   4.095   0.659  0.9679 -0.0343  2.8525
17343TIP3    H273521   5.259   4.017   0.542 -0.7793  3.2702 -0.3802
17344TIP3   OH273522   4.278   4.195   2.891  0.6858 -0.0436 -0.0502
17344TIP3    H173523   4.264   4.206   2.985 -1.1967 -1.3261 -0.1330
17344TIP3    H273524   4.308   4.105   2.881  4.6829  1.1517 -0.4104
17345TIP3   OH273525   3.395   6.820   3.024 -0.4112 -0.1859 -0.3147
17345TIP3    H173526   3.433   6.742   2.982 -0.7145  0.0800 -1.0967
17345TIP3    H273527   3.311   6.789   3.058  0.3324 -0.7005  1.1592
17346TIP3   OH273528   4.064   1.328  13.407  0.3232 -0.3471  0.5496
17346TIP3    H173529   4.042   1.418  13.382  0.3748 -0.4130  0.2657
17346TIP3    H273530   4.158   1.322  13.390 -0.0427 -1.1076 -1.4652
17347TIP3   OH273531   4.118   5.122   0.877 -0.0965 -0.5429  0.6832
17347TIP3    H173532   4.071   5.073   0.810  0.8014 -2.2069  1.1999
17347TIP3    H273533   4.168   5.055   0.925  3.1284  1.1165 -0.0825
17348TIP3   OH273534   4.552   6.801   2.235  0.2161 -0.0764  0.4697
17348TIP3    H173535   4.629   6.765   2.279 -0.0772  0.1507  1.1670
17348TIP3    H273536   4.483   6.800   2.301 -0.3888 -0.2730 -0.1475
17349TIP3   OH273537   4.789   1.727  14.635 -0.0951 -0.0829  0.1485
17349TIP3    H173538   4.770   1.640  14.669 -0.2495 -1.7417 -3.6688
17349TIP3    H273539   4.706   1.775  14.643  0.0647 -0.0705  2.5271
17350TIP3   OH273540   0.061   2.196  16.817 -0.4346 -0.7255 -0.3484
17350TIP3    H173541   0.102   2.275  16.853 -0.6440 -0.2059 -1.2099
17350TIP3    H273542   0.064   2.209  16.722 -2.1941 -0.8592 -0.4631
17351TIP3   OH273543   0.431   4.747  15.260 -0.4608 -0.0770  0.1015
17351TIP3    H173544   0.407   4.773  15.171 -0.3678  0.9533  0.3671
17351TIP3    H273545   0.513   4.700  15.250  1.1807  2.6172 -0.0988
17352TIP3   OH273546   1.506   4.135  16.967 -0.4031 -0.8993 -0.0891
17352TIP3    H173547   1.542   4.133  17.055 -0.9951  1.2741  0.2594
17352TIP3    H273548   1.583   4.136  16.910  0.0736  0.6000  0.5312
17353TIP3   OH273549   1.886   1.726  15.414  0.3505  0.1829 -0.0149
17353TIP3    H173550   1.917   1.733  15.324 -0.3845 -0.3514 -0.3221
17353TIP3    H273551   1.863   1.634  15.424 -2.5536  0.8000 -0.3090
17354TIP3   OH273552   1.727   5.836   4.531  0.5922  0.8652 -0.3405
17354TIP3    H173553   1.667   5.864   4.601  0.4859 -1.7433  0.7326
17354TIP3    H273554   1.804   5.891   4.541  0.3566  0.9088  1.5289
17355TIP3   OH273555   5.134   1.782   0.147 -0.2279  0.0386 -0.7702
17355TIP3    H173556   5.174   1.715   0.092 -1.0571 -1.7094  0.6334
17355TIP3    H273557   5.195   1.794   0.220  0.3899  1.6047 -1.4899
17356TIP3   OH273558   3.820   5.880   1.382 -0.0396  0.1000 -0.3747
17356TIP3    H173559   3.899   5.881   1.327 -0.3093  2.0893 -0.8041
17356TIP3    H273560   3.748   5.896   1.320 -0.5427  0.4766  0.2969
17357TIP3   OH273561   5.004   2.384   3.392  0.1712  0.2091 -0.0119
17357TIP3    H173562   5.095   2.397   3.418  0.2540 -1.5077  0.6812
17357TIP3    H273563   4.999   2.420   3.304  1.0569  1.9400  0.5826
17358TIP3   OH273564   2.545   3.243   2.869 -0.3752 -0.0516  0.0445
17358TIP3    H173565   2.540   3.321   2.813  2.3388 -0.2999 -0.7094
17358TIP3    H273566   2.471   3.189   2.843 -1.0308  1.2962 -1.0022
17359TIP3   OH273567   2.699   3.192   6.297  0.4916 -0.2289  0.4646
17359TIP3    H173568   2.694   3.205   6.202  1.3252 -1.9905  0.1536
17359TIP3    H273569   2.674   3.277   6.333  0.8379  0.6976 -1.3338
17360TIP3   OH273570   5.076   3.693  11.475 -0.3359  0.4887 -0.1989
17360TIP3    H173571   5.074   3.785  11.449  0.8780  0.7011  0.3566
17360TIP3    H273572   5.167   3.666  11.461 -0.8843 -0.9299 -1.2985
17361TIP3   OH273573   4.539   1.809  16.793  0.2574 -0.1194 -0.3757
17361TIP3    H173574   4.516   1.718  16.811 -0.6754  0.0750 -0.5089
17361TIP3    H273575   4.536   1.852  16.879 -2.2555  0.3930 -0.6495
17362TIP3   OH273576   2.075   5.953  15.540 -0.6002 -0.5846 -0.0395
17362TIP3    H173577   2.120   5.963  15.624  0.6027 -0.7776 -0.6390
17362TIP3    H273578   2.082   5.859  15.521  4.0057 -0.0081 -2.8559
17363TIP3   OH273579   6.432   3.643  14.736  0.5101 -0.3012  0.2283
17363TIP3    H173580   6.429   3.712  14.670  0.8960 -0.7638 -0.2753
17363TIP3    H273581   6.364   3.668  14.800 -0.5849 -0.3902 -0.8690
17364TIP3   OH273582   2.334   3.736   5.075  0.7607 -0.0392 -0.0978
17364TIP3    H173583   2.335   3.759   4.982  0.7532 -2.0006 -0.6353
17364TIP3    H273584   2.267   3.793   5.113 -0.2098 -0.1289 -1.5634
17365TIP3   OH273585   4.749   6.771  14.634  0.3178 -0.8820 -0.1317
17365TIP3    H173586   4.825   6.823  14.606  0.3892 -0.6144  0.5364
17365TIP3    H273587   4.684   6.787  14.566  1.0011 -1.4675 -0.9477
17366TIP3   OH273588   6.599   4.939   2.226 -0.6986 -0.4466  0.8452
17366TIP3    H173589   6.653   5.012   2.257 -0.5955 -0.5792  0.9816
17366TIP3    H273590   6.544   4.977   2.158  1.7243 -0.9708 -1.5691
17367TIP3   OH273591   3.922   1.081  10.797  0.5433 -0.1585  0.4196
17367TIP3    H173592   3.962   1.015  10.741  0.5802  1.8027 -2.0109
17367TIP3    H273593   3.997   1.132  10.830  0.5131 -1.2085  2.2364
17368TIP3   OH273594   0.227   5.065  13.049  0.2140 -0.6208  0.4396
17368TIP3    H173595   0.315   5.069  13.086  0.8669 -1.5393 -0.9375
17368TIP3    H273596   0.171   5.108  13.115  1.8200  0.9575  0.8430
17369TIP3   OH273597   4.631   3.623  11.958  0.3618  0.2828 -0.0314
17369TIP3    H173598   4.571   3.568  12.009  1.8780 -1.0981  0.3513
17369TIP3    H273599   4.665   3.687  12.021  0.5822 -0.0289  0.1668
17370TIP3   OH273600   4.995   0.034   2.803 -0.1484  0.0063  0.4917
17370TIP3    H173601   5.026   0.079   2.725 -1.4008 -1.2063 -0.7682
17370TIP3    H273602   5.074   0.012   2.852  0.6191  1.3152 -0.1143
17371TIP3   OH273603   2.286   3.457  13.665 -0.5130  0.3602 -0.7173
17371TIP3    H173604   2.256   3.377  13.623  2.4460 -0.4803 -1.4593
17371TIP3    H273605   2.364   3.483  13.616  0.3795  2.0062  1.3663
17372TIP3   OH273606   3.003   0.824   3.840 -0.3967 -0.0413  0.1858
17372TIP3    H173607   3.046   0.854   3.920 -1.6586  0.4859  0.6808
17372TIP3    H273608   2.939   0.892   3.820 -1.0739 -0.8579 -0.4907
17373TIP3   OH273609   6.310   4.314   3.164 -0.5707  0.2683  0.0889
17373TIP3    H173610   6.291   4.237   3.217 -2.0596 -0.0398 -0.8442
17373TIP3    H273611   6.241   4.316   3.097 -0.2969  2.1274 -0.2127
17374TIP3   OH273612   4.012   6.525  16.702  0.4432  0.3137  0.1421
17374TIP3    H173613   4.021   6.616  16.672 -0.7627  1.0188  1.7954
17374TIP3    H273614   4.094   6.507  16.749  0.1262  1.0219  0.9772
17375TIP3   OH273615   0.852   5.984   0.634  0.1109 -0.4586  0.0504
17375TIP3    H173616   0.898   5.900   0.640  0.4309 -0.2110  1.4385
17375TIP3    H273617   0.894   6.029   0.561  1.2076 -0.7602  0.4698
17376TIP3   OH273618   0.030   4.301   4.918 -0.2379 -0.1885  0.4732
17376TIP3    H173619  -0.007   4.382   4.883  1.4036  0.5776  0.4433
17376TIP3    H273620   0.019   4.237   4.847  0.3604  0.5730 -0.3310
17377TIP3   OH273621   4.203   0.696  13.489 -0.2351  0.5410  0.3829
17377TIP3    H173622   4.171   0.669  13.402 -0.3473 -1.6532  1.0290
17377TIP3    H273623   4.271   0.632  13.510 -0.9451  0.3736  2.3424
17378TIP3   OH273624   1.914   1.856   4.103 -0.2723 -0.7374  0.3327
17378TIP3    H173625   1.875   1.931   4.057 -0.6710 -0.9420  0.3395
17378TIP3    H273626   2.008   1.868   4.090 -0.3823 -0.9097 -0.7205
17379TIP3   OH273627   1.847   0.043   4.763 -0.1539 -0.9221 -0.1113
17379TIP3    H173628   1.755   0.038   4.790 -0.4195 -1.8739 -1.1339
17379TIP3    H273629   1.853  -0.014   4.686  0.5931  1.5128 -1.9999
17380TIP3   OH273630   1.486   2.463   0.202 -0.2664  0.3928 -0.5808
17380TIP3    H173631   1.567   2.445   0.154 -1.1913 -1.1958 -1.6792
17380TIP3    H273632   1.486   2.400   0.274  0.0539  1.2577  0.1935
17381TIP3   OH273633   2.311   2.359   0.496 -0.0521  0.4079  0.0907
17381TIP3    H173634   2.254   2.413   0.440 -0.1148  0.8016  0.5281
17381TIP3    H273635   2.301   2.397   0.583  0.0471 -0.2042  0.3692
17382TIP3   OH273636   3.158   6.281   3.629 -0.3442 -0.1639 -0.6540
17382TIP3    H173637   3.200   6.363   3.655  3.1477 -1.4572 -1.6488
17382TIP3    H273638   3.173   6.221   3.702 -1.5457 -0.3612 -0.5469
17383TIP3   OH273639   3.118   6.450  13.338 -0.4056 -0.2287  0.1161
17383TIP3    H173640   3.148   6.511  13.270  1.8823  1.7354  2.6677
17383TIP3    H273641   3.022   6.454  13.332 -0.2971  0.6713 -2.2613
17384TIP3   OH273642   3.168   4.133  11.542  0.1812  0.0282 -0.7970
17384TIP3    H173643   3.100   4.139  11.476 -0.5843 -1.7284 -0.2296
17384TIP3    H273644   3.204   4.045  11.531  1.0915  0.2643  0.1287
17385TIP3   OH273645   6.303   5.886   2.725 -0.1842 -0.2377 -0.1767
17385TIP3    H173646   6.242   5.892   2.652  0.6433 -4.4242 -1.4984
17385TIP3    H273647   6.247   5.883   2.803 -1.4285 -0.6772 -1.0702
17386TIP3   OH273648   0.142   3.088  16.098 -0.5097 -0.3812 -0.4564
17386TIP3    H173649   0.216   3.122  16.047  0.6479 -0.6887  0.9466
17386TIP3    H273650   0.182   3.029  16.162 -1.7869  0.6600  1.3874
17387TIP3   OH273651   2.347   6.150  11.551 -0.0909 -0.3272 -0.3779
17387TIP3    H173652   2.404   6.143  11.628  1.1631  0.0554 -1.2472
17387TIP3    H273653   2.358   6.067  11.506 -1.1632 -0.7269  0.0444
17388TIP3   OH273654   1.185   6.825   6.265  0.2168 -0.2295 -0.2775
17388TIP3    H173655   1.117   6.759   6.248  1.2755 -0.8641 -2.4063
17388TIP3    H273656   1.267   6.776   6.259  0.9977  1.1343 -1.2000
17389TIP3   OH273657   3.044   4.775   0.455  0.4912 -0.5847 -0.0523
17389TIP3    H173658   2.962   4.787   0.406  1.1011 -1.6889 -1.4273
17389TIP3    H273659   3.023   4.803   0.544 -0.5515  1.8788 -0.9844
17390TIP3   OH273660   6.715   3.833   2.281 -0.0714  0.6053  0.5233
17390TIP3    H173661   6.632   3.880   2.292  0.7313  1.9053  1.1885
17390TIP3    H273662   6.721   3.776   2.358  0.2580  1.4720  1.1486
17391TIP3   OH273663   3.622   5.951   2.494  0.2243  0.3695  0.2567
17391TIP3    H173664   3.564   5.893   2.444  0.6389 -0.3729  0.6153
17391TIP3    H273665   3.649   6.018   2.431 -0.7390  0.5254 -0.0085
17392TIP3   OH273666   6.213   3.018  13.576  0.3600 -0.0388 -0.6523
17392TIP3    H173667   6.141   3.081  13.583 -0.8261 -1.2764 -1.2590
17392TIP3    H273668   6.245   3.029  13.487 -0.5337 -0.9689 -1.1101
17393TIP3   OH273669   4.829   6.622  12.734 -0.2127  0.3655 -0.0944
17393TIP3    H173670   4.737   6.612  12.757 -0.0077 -0.9026  0.2331
17393TIP3    H273671   4.850   6.543  12.684  1.0538 -0.0446  1.0428
17394TIP3   OH273672   5.233   0.216   1.287  0.4088  0.0059  0.2275
17394TIP3    H173673   5.195   0.304   1.297  0.0717 -0.0394 -0.6249
17394TIP3    H273674   5.208   0.171   1.368  0.3380  0.5999  0.5479
17395TIP3   OH273675   1.851   2.235  11.551 -0.2361  0.2114 -0.0099
17395TIP3    H173676   1.856   2.312  11.607 -0.4775  0.4876 -0.3673
17395TIP3    H273677   1.943   2.212  11.533 -0.1519  0.0438  0.5904
17396TIP3   OH273678   0.862   6.657  11.691  0.1744 -0.4275 -0.0205
17396TIP3    H173679   0.846   6.664  11.597  3.8038  2.0628 -0.6282
17396TIP3    H273680   0.938   6.599  11.699 -0.0105 -0.5185  1.3854
17397TIP3   OH273681   4.682   6.363   5.635 -0.0049  0.1247 -0.0945
17397TIP3    H173682   4.703   6.343   5.544 -1.2508  1.4316 -0.7145
17397TIP3    H273683   4.657   6.279   5.673  0.7264 -0.4736 -0.8980
17398TIP3   OH273684   4.052   3.728  11.796  0.3604 -0.1593  0.3188
17398TIP3    H173685   4.136   3.684  11.811 -0.3983 -2.1235 -0.8547
17398TIP3    H273686   3.995   3.660  11.759 -0.8037  1.8874 -1.9358
17399TIP3   OH273687   3.962   0.282  14.591  0.4327  0.1047 -0.1798
17399TIP3    H173688   4.011   0.359  14.562  1.3792  0.3855  1.9994
17399TIP3    H273689   3.898   0.316  14.653 -0.4860 -0.6509 -0.6861
17400TIP3   OH273690   3.273   5.438  12.166  0.0591  0.6538  0.3574
17400TIP3    H173691   3.217   5.456  12.090  1.6810 -2.4291 -1.7975
17400TIP3    H273692   3.213   5.409  12.234 -1.2285  0.6464 -0.7428
17401TIP3   OH273693   0.811   4.177   2.098 -0.1799  0.5537  0.0575
17401TIP3    H173694   0.869   4.166   2.173 -1.3910  1.1842  1.1280
17401TIP3    H273695   0.857   4.136   2.026  0.6202 -0.8839  1.3349
17402TIP3   OH273696   1.750   5.527  15.774  0.3171 -0.1706 -0.4718
17402TIP3    H173697   1.789   5.461  15.716  0.5731  1.4072 -2.1686
17402TIP3    H273698   1.811   5.600  15.771  0.2238  0.0474  1.6870
17403TIP3   OH273699   4.905   4.911   1.624 -0.2558 -0.0540  0.0605
17403TIP3    H173700   4.866   4.858   1.694  0.1997 -0.7453 -0.2002
17403TIP3    H273701   4.859   4.883   1.545  0.1520 -0.2273 -0.1141
17404TIP3   OH273702   6.638   6.451   4.629 -0.4439 -0.4516  0.1888
17404TIP3    H173703   6.552   6.491   4.645  0.6486  2.4696 -0.5734
17404TIP3    H273704   6.664   6.415   4.713 -2.1582 -0.8699  0.5759
17405TIP3   OH273705   2.496   0.381  16.294  0.2502  0.6987 -0.4782
17405TIP3    H173706   2.568   0.428  16.336  0.4266 -0.6777  0.8756
17405TIP3    H273707   2.418   0.431  16.314  0.6496  1.4059 -0.6761
17406TIP3   OH273708   0.725   1.436   0.359 -0.2097  0.2260 -0.3336
17406TIP3    H173709   0.738   1.510   0.300  0.3302 -0.4020 -1.0101
17406TIP3    H273710   0.792   1.448   0.427 -1.4273  1.4598  0.7025
17407TIP3   OH273711   2.664   6.536  12.361 -0.3600  0.2250  0.1721
17407TIP3    H173712   2.576   6.506  12.387  0.1423  0.2791  2.0920
17407TIP3    H273713   2.698   6.579  12.439  1.4462  0.0769 -0.5024
17408TIP3   OH273714   4.355   4.712  16.709 -0.2178  0.1082 -0.0936
17408TIP3    H173715   4.266   4.698  16.740 -0.3006  2.0625  0.6612
17408TIP3    H273716   4.348   4.779  16.642  0.5596 -0.5939 -0.9050
17409TIP3   OH273717   0.119   6.659   0.797 -0.0733 -0.0862 -0.1341
17409TIP3    H173718   0.109   6.672   0.891 -2.3027 -0.1938 -0.2822
17409TIP3    H273719   0.032   6.678   0.761  0.0469 -2.3348 -1.8736
17410TIP3   OH273720   3.657   1.011   3.073 -0.5098  0.4311  0.2812
17410TIP3    H173721   3.639   0.954   2.998 -2.2371  1.9341 -0.5255
17410TIP3    H273722   3.753   1.020   3.074 -0.0531 -3.1538  1.0517
17411TIP3   OH273723   1.050   6.322   1.359  0.4003 -0.8243  0.2147
17411TIP3    H173724   1.053   6.365   1.445  0.9772 -0.6205  0.0984
17411TIP3    H273725   1.039   6.229   1.378 -1.3081 -0.5934  0.4623
17412TIP3   OH273726   4.658   5.286  14.633 -0.0457 -0.1872  0.4208
17412TIP3    H173727   4.562   5.281  14.635 -0.0213 -1.1117 -0.0298
17412TIP3    H273728   4.677   5.370  14.590 -0.6256  0.8423  2.0773
17413TIP3   OH273729   6.090   1.684   4.860 -0.0918 -0.3657 -0.1990
17413TIP3    H173730   6.127   1.697   4.947 -1.3725 -0.5301  0.4009
17413TIP3    H273731   6.140   1.611   4.823  0.1007 -0.6634  0.6227
17414TIP3   OH273732   3.390   2.232  13.183 -0.0491  0.4754 -0.5195
17414TIP3    H173733   3.358   2.206  13.097  1.9227 -0.5025 -1.0198
17414TIP3    H273734   3.449   2.162  13.209  0.0448  1.1671  1.2672
17415TIP3   OH273735   5.196   1.000  12.402  0.2086  0.0844  0.1481
17415TIP3    H173736   5.126   1.036  12.457  1.1194 -1.2342  2.2881
17415TIP3    H273737   5.276   1.037  12.438  0.8229 -0.7720 -0.2956
17416TIP3   OH273738   3.754   1.752   1.315  0.0416 -0.3505  0.3324
17416TIP3    H173739   3.744   1.657   1.311 -1.1611 -0.4957  3.4831
17416TIP3    H273740   3.805   1.767   1.395 -0.8193  1.6925  0.5614
17417TIP3   OH273741   1.486   4.684  11.201  0.3617 -0.2718  0.1949
17417TIP3    H173742   1.516   4.598  11.170  2.3786  0.6840 -0.6671
17417TIP3    H273743   1.536   4.700  11.281 -1.7156 -0.8503  1.6981
17418TIP3   OH273744   4.066   0.134   1.992  0.0277 -0.2478  0.0876
17418TIP3    H173745   4.143   0.080   2.008 -0.2528 -0.6326  0.1386
17418TIP3    H273746   3.993   0.083   2.025 -0.5017 -0.7973 -1.7886
17419TIP3   OH273747   1.043   4.749  15.271 -0.5375 -0.2330 -0.4164
17419TIP3    H173748   1.082   4.671  15.311  0.3716  0.8142  0.7842
17419TIP3    H273749   0.950   4.742  15.294 -0.2744 -0.3912  0.6807
17420TIP3   OH273750   5.150   1.192  13.826  0.6974  0.1285 -0.5295
17420TIP3    H173751   5.214   1.248  13.781 -1.1309  0.4443 -2.9879
17420TIP3    H273752   5.191   1.170  13.909  3.3992  1.4065 -1.4098
17421TIP3   OH273753   0.410   3.141  14.230  0.2123 -0.5543  0.2744
17421TIP3    H173754   0.412   3.147  14.134 -0.5135 -2.0158  0.1383
17421TIP3    H273755   0.471   3.208  14.259  0.0723  0.2640 -1.1940
17422TIP3   OH273756   1.033   1.637  16.020  0.4533 -0.8396  0.1902
17422TIP3    H173757   1.079   1.708  16.067 -0.7916 -0.1349  0.3918
17422TIP3    H273758   0.945   1.638  16.057  0.2422 -2.1010 -0.2557
17423TIP3   OH273759   1.424   0.254   2.681  0.3140 -0.1368 -0.1568
17423TIP3    H173760   1.396   0.326   2.738  1.9131 -1.4789  2.5311
17423TIP3    H273761   1.346   0.231   2.630 -2.2175 -0.6929  3.5930
17424TIP3   OH273762   3.103   3.133   3.321  0.0198 -0.8267  0.0096
17424TIP3    H173763   3.126   3.128   3.414 -0.7875 -1.0329  0.2098
17424TIP3    H273764   3.030   3.072   3.312 -0.3366 -0.3154 -0.6215
17425TIP3   OH273765   6.649   5.182   4.467 -0.3612  0.3506 -0.2976
17425TIP3    H173766   6.742   5.200   4.482 -0.5058 -0.5128  2.0645
17425TIP3    H273767   6.607   5.267   4.477 -0.0735  0.3305  1.3375
17426TIP3   OH273768   5.134   3.068  13.809 -0.3259 -0.6465 -0.2421
17426TIP3    H173769   5.108   3.147  13.857 -0.9421  0.1482 -1.8034
17426TIP3    H273770   5.211   3.095  13.759  0.3021 -1.4554  0.2740
17427TIP3   OH273771   5.146   1.490   2.567 -0.3299  0.6000 -0.0411
17427TIP3    H173772   5.203   1.431   2.519 -0.3422  0.8558 -0.3747
17427TIP3    H273773   5.177   1.578   2.543 -0.1085  0.7289  0.6934
17428TIP3   OH273774   1.555   4.736  15.229 -0.5324  0.1295 -0.5014
17428TIP3    H173775   1.601   4.750  15.312 -2.0459 -0.2927  0.4588
17428TIP3    H273776   1.528   4.644  15.232  0.3485 -0.2038 -1.9893
17429TIP3   OH273777   5.897   2.766  17.046  0.4330 -0.2966  0.2409
17429TIP3    H173778   5.918   2.850  17.006  0.4143  0.5989  2.0185
17429TIP3    H273779   5.838   2.788  17.118 -0.8710 -2.0200 -0.2475
17430TIP3   OH273780   3.528   5.107   1.117 -0.1173 -0.3636  0.0187
17430TIP3    H173781   3.474   5.184   1.132 -1.5660 -1.1567 -0.8633
17430TIP3    H273782   3.501   5.045   1.184  0.2373 -0.4989  0.0371
17431TIP3   OH273783   0.383   2.781   4.354  0.9171 -0.0931 -0.0950
17431TIP3    H173784   0.310   2.817   4.302  0.0145 -0.5755  0.8098
17431TIP3    H273785   0.461   2.825   4.318  0.2488  0.1177 -1.3722
17432TIP3   OH273786   5.051   4.610   1.721  0.3208 -0.2246 -0.2850
17432TIP3    H173787   5.087   4.680   1.666 -0.0806  0.6565  0.5493
17432TIP3    H273788   5.093   4.530   1.689  1.9993  0.5942 -0.2095
17433TIP3   OH273789   5.731   5.175   3.988  0.3167 -0.3297 -0.2490
17433TIP3    H173790   5.755   5.095   4.036  2.6866 -0.6512 -1.7922
17433TIP3    H273791   5.671   5.220   4.046  1.6390 -1.5509  2.2465
17434TIP3   OH273792   4.177   5.432   3.915 -0.0836 -0.1764 -0.3027
17434TIP3    H173793   4.163   5.345   3.880 -1.1192 -0.1925  0.1174
17434TIP3    H273794   4.164   5.491   3.840  0.3929 -0.3628 -0.5342
17435TIP3   OH273795   6.027   6.516   4.687 -0.8001  0.0542 -0.4617
17435TIP3    H173796   6.054   6.586   4.746 -0.9167 -0.3100  0.0378
17435TIP3    H273797   5.949   6.550   4.643 -1.6922 -0.2567  0.7965
17436TIP3   OH273798   0.898   6.262  12.932  0.3770 -0.0837 -0.4753
17436TIP3    H173799   0.900   6.327  13.001 -1.6584 -1.7689  1.3047
17436TIP3    H273800   0.949   6.189  12.966 -2.1544 -1.6696  0.1823
17437TIP3   OH273801   1.886   6.483   5.929  0.1245 -0.3201  0.4433
17437TIP3    H173802   1.818   6.508   5.991 -0.9266  2.2797 -1.5673
17437TIP3    H273803   1.840   6.435   5.860  0.5959 -0.0398 -0.0823
17438TIP3   OH273804   4.363   2.062  15.586 -0.3017  0.6414 -0.4325
17438TIP3    H173805   4.365   1.996  15.654  0.4062  0.6744 -0.4186
17438TIP3    H273806   4.271   2.088  15.581 -0.2120  1.4106  1.2507
17439TIP3   OH273807   4.181   5.081  15.387 -0.1095  0.1718  0.0973
17439TIP3    H173808   4.190   5.009  15.449 -0.4841  0.0215 -0.0185
17439TIP3    H273809   4.183   5.160  15.441  0.3289  0.0751  0.2206
17440TIP3   OH273810   6.373   0.036  13.480 -0.3340 -0.6898  0.0126
17440TIP3    H173811   6.368   0.037  13.385 -1.1146 -4.4870 -0.1493
17440TIP3    H273812   6.418   0.118  13.503 -0.5323  0.5678 -3.5211
17441TIP3   OH273813   1.521   6.229   3.344 -0.1720 -0.4656  0.1096
17441TIP3    H173814   1.447   6.204   3.289 -1.0650 -1.0551  1.5345
17441TIP3    H273815   1.585   6.264   3.282 -1.8031  0.5215 -1.1240
17442TIP3   OH273816   3.278   6.673  16.629  0.3100  0.5824  0.5911
17442TIP3    H173817   3.208   6.609  16.620  0.9199  0.1880 -2.3899
17442TIP3    H273818   3.252   6.745  16.572  0.8194  1.9117  1.9721
17443TIP3   OH273819   6.094   5.548  14.133  0.1154  0.1282 -0.2647
17443TIP3    H173820   6.163   5.611  14.154 -0.4042 -0.0283  2.2655
17443TIP3    H273821   6.133   5.492  14.066  1.5593  1.4994 -0.6327
17444TIP3   OH273822   6.622   0.414  12.816 -0.1526  0.5526  0.3523
17444TIP3    H173823   6.535   0.378  12.798  0.3633  0.0939 -1.4099
17444TIP3    H273824   6.671   0.399  12.736  1.1393  2.0960  0.8040
17445TIP3   OH273825   3.917   6.763  13.042  0.1390  0.1892 -0.1250
17445TIP3    H173826   3.958   6.694  13.095 -0.0256 -0.0941 -0.3613
17445TIP3    H273827   3.854   6.804  13.101  0.1974  0.0975  0.0015
17446TIP3   OH273828   2.189   5.553  11.977  0.5881 -0.3698 -0.0208
17446TIP3    H173829   2.096   5.559  12.000  0.5215 -2.1344  0.3071
17446TIP3    H273830   2.193   5.585  11.887 -0.4401 -0.7242 -0.2065
17447TIP3   OH273831   1.343   3.911  13.013 -0.3197  0.0025 -0.2576
17447TIP3    H173832   1.364   3.898  12.921 -1.3065  1.2879 -0.6942
17447TIP3    H273833   1.290   3.834  13.036 -1.5910  0.5424 -1.2809
17448TIP3   OH273834   4.708   3.364  12.619 -0.2266 -0.0817  0.4940
17448TIP3    H173835   4.703   3.309  12.698 -0.5820  1.4871  1.6109
17448TIP3    H273836   4.661   3.313  12.552  0.6291 -1.7311  1.0835
17449TIP3   OH273837   3.027   2.074  15.385  0.3376  0.3668  0.6013
17449TIP3    H173838   2.947   2.108  15.345  0.3206 -0.5991 -0.2279
17449TIP3    H273839   2.996   2.013  15.452  0.3724  0.4058  0.6524
17450TIP3   OH273840   5.388   2.585   3.609  0.3593 -0.0957 -0.1361
17450TIP3    H173841   5.397   2.633   3.692 -0.1061 -0.1012 -0.0813
17450TIP3    H273842   5.446   2.510   3.619  0.2213 -0.1568  0.2298
17451TIP3   OH273843   2.868   1.895  10.434  0.5403 -0.4737  1.0294
17451TIP3    H173844   2.855   1.814  10.386  1.1815 -0.3898  0.7007
17451TIP3    H273845   2.963   1.907  10.437  0.4553  1.2781 -0.6955
17452TIP3   OH273846   1.368   5.982  15.623  0.0523 -0.4815  0.8028
17452TIP3    H173847   1.306   5.944  15.685 -0.1857  0.5763  1.2427
17452TIP3    H273848   1.347   6.075  15.623 -0.1417 -0.4895 -1.0961
17453TIP3   OH273849   6.333   4.947   4.109  0.8789 -0.2323 -0.1942
17453TIP3    H173850   6.399   4.933   4.041  0.3986  1.5585 -1.0914
17453TIP3    H273851   6.376   5.003   4.174  1.0422 -1.1823  0.5290
17454TIP3   OH273852   1.954   2.494  15.277  0.4776 -0.4205 -0.4288
17454TIP3    H173853   1.951   2.564  15.211  1.7373 -1.2144 -1.3843
17454TIP3    H273854   2.030   2.516  15.331 -0.5014  0.1786  0.7557
17455TIP3   OH273855   0.010   4.231  12.192 -0.0440  0.0486  0.3448
17455TIP3    H173856   0.051   4.145  12.199 -0.7985 -0.2664  1.2235
17455TIP3    H273857   0.047   4.269  12.113  1.2628 -0.5621  0.6294
17456TIP3   OH273858   0.074   2.439   2.250  0.2691 -0.3030 -0.3511
17456TIP3    H173859  -0.018   2.452   2.272 -0.1769 -2.3493 -0.8814
17456TIP3    H273860   0.121   2.501   2.307 -1.4320  1.3132 -0.5998
17457TIP3   OH273861   0.982   2.851  12.829 -0.1943 -0.4231 -0.8085
17457TIP3    H173862   0.927   2.788  12.783 -2.2577  0.8775 -0.2384
17457TIP3    H273863   1.059   2.801  12.857 -1.5765 -2.5728 -0.7156
17458TIP3   OH273864   3.693   3.378   4.312 -0.3442  0.2583  0.3683
17458TIP3    H173865   3.698   3.297   4.362 -3.6777 -1.1134 -1.2157
17458TIP3    H273866   3.617   3.424   4.348  0.1995  1.6222 -0.1887
17459TIP3   OH273867   5.465   5.549   5.719 -0.8722  0.8062 -0.3945
17459TIP3    H173868   5.472   5.539   5.624 -3.0326  1.9381 -0.7354
17459TIP3    H273869   5.394   5.611   5.731 -0.9635  0.3232  2.0013
17460TIP3   OH273870   0.897   0.606  15.288 -0.2822  0.2488  0.0767
17460TIP3    H173871   0.986   0.572  15.279  0.2670  1.7709 -0.4949
17460TIP3    H273872   0.845   0.528  15.309  1.4781 -0.3958  2.5812
17461TIP3   OH273873   0.355   5.999   5.256  0.6794  0.4860  0.0173
17461TIP3    H173874   0.271   5.957   5.240 -0.0184  1.8018  0.0975
17461TIP3    H273875   0.420   5.935   5.228 -0.2237 -1.6760  2.4075
17462TIP3   OH273876   6.584   0.992  15.171  0.2757 -0.5877  0.0760
17462TIP3    H173877   6.678   1.005  15.185  0.7351 -1.3390 -1.9521
17462TIP3    H273878   6.579   0.922  15.105 -1.6466  0.5619 -1.0920
17463TIP3   OH273879   6.412   2.204  16.619 -0.0742  0.1530 -0.2014
17463TIP3    H173880   6.411   2.185  16.712  1.0864  1.2093  0.0549
17463TIP3    H273881   6.504   2.226  16.600 -0.4022  0.5220 -1.4609
17464TIP3   OH273882   4.084   1.207   5.914  0.4569 -0.3226  0.0786
17464TIP3    H173883   4.011   1.252   5.871 -0.0462 -0.0195  1.2128
17464TIP3    H273884   4.119   1.271   5.976  1.6787 -0.4826 -0.4136
17465TIP3   OH273885   1.970   0.040   1.682 -0.3262  0.0823  0.3702
17465TIP3    H173886   1.951   0.104   1.614 -0.5532  1.0264  1.2976
17465TIP3    H273887   1.889  -0.010   1.692  0.3742 -1.5832 -1.5798
17466TIP3   OH273888   5.260   2.948   0.540 -0.4879  0.3268  0.2186
17466TIP3    H173889   5.228   2.858   0.548 -1.9811  0.9112  0.9794
17466TIP3    H273890   5.283   2.956   0.447  3.5770 -2.0655  0.7476
17467TIP3   OH273891   0.931   4.653  12.065  0.5389  0.1051 -0.2692
17467TIP3    H173892   0.958   4.566  12.037 -0.1082 -0.7143  1.5094
17467TIP3    H273893   0.936   4.651  12.160  1.2773  2.2959 -0.2022
17468TIP3   OH273894   1.953   2.764   4.970  0.3503 -0.3889 -0.8691
17468TIP3    H173895   1.922   2.847   5.007 -1.5283 -1.2044 -0.4979
17468TIP3    H273896   1.999   2.789   4.890  1.2425  1.1161  0.0590
17469TIP3   OH273897   0.661   2.058  13.134 -0.2035  0.2423 -0.3196
17469TIP3    H173898   0.735   2.114  13.110  0.2883 -0.3319 -0.1602
17469TIP3    H273899   0.629   2.095  13.217  0.5312 -0.0952  0.1253
17470TIP3   OH273900   6.531   5.281  13.585  0.2075  0.3766 -0.0561
17470TIP3    H173901   6.450   5.327  13.565  0.4096 -0.0932 -2.3118
17470TIP3    H273902   6.522   5.196  13.542  1.8409  0.2893 -0.3172
17471TIP3   OH273903   0.752   6.088   0.877 -0.2807  0.5216  0.4485
17471TIP3    H173904   0.791   6.058   0.795 -0.7911  1.5535 -0.1826
17471TIP3    H273905   0.711   6.172   0.856 -2.2400 -0.1663  1.2442
17472TIP3   OH273906   5.357   4.160  17.002  0.3769 -0.5380 -0.3270
17472TIP3    H173907   5.328   4.082  16.955 -1.0179 -0.8098  0.9077
17472TIP3    H273908   5.299   4.165  17.078  0.5335  1.6214 -0.2914
17473TIP3   OH273909   5.666   4.138   2.330  0.0054  0.7213 -0.7260
17473TIP3    H173910   5.603   4.116   2.399 -1.4837 -0.0977 -2.2714
17473TIP3    H273911   5.675   4.058   2.279  2.6472  0.7053 -0.3603
17474TIP3   OH273912   0.358   4.870  12.746 -0.0027 -0.1501  0.1410
17474TIP3    H173913   0.350   4.885  12.652 -1.2290  1.1782  0.4232
17474TIP3    H273914   0.389   4.954  12.781 -2.1402  0.2701  1.2054
17475TIP3   OH273915   6.797   5.149   5.732  0.0107  0.8363  0.1297
17475TIP3    H173916   6.731   5.195   5.784 -0.2550 -0.4115  0.9277
17475TIP3    H273917   6.748   5.111   5.659 -0.0312  0.5652  0.2966
17476TIP3   OH273918   5.737   4.411   3.782 -0.3267  0.3068 -0.0657
17476TIP3    H173919   5.759   4.412   3.875 -0.8786 -0.6378  0.0920
17476TIP3    H273920   5.818   4.382   3.739 -0.5669 -1.0127  0.3078
17477TIP3   OH273921   1.611   6.121   2.504  0.4196 -0.1330 -0.3375
17477TIP3    H173922   1.593   6.181   2.577  1.0602  1.0674 -1.1410
17477TIP3    H273923   1.524   6.097   2.472  0.0712  2.5129 -1.6885
17478TIP3   OH273924   2.829   1.950   3.958 -0.1831  0.5982  0.0164
17478TIP3    H173925   2.841   1.874   4.014  2.1331 -0.8773 -2.2628
17478TIP3    H273926   2.917   1.973   3.928 -1.0218  3.0262 -0.8538
17479TIP3   OH273927   5.600   6.117   6.015 -0.3576  0.0977 -0.7437
17479TIP3    H173928   5.694   6.133   6.004  0.2512 -2.3403  0.4524
17479TIP3    H273929   5.559   6.181   5.956  2.0535  0.5828 -2.0398
17480TIP3   OH273930   0.177   3.332  15.088  0.2046  0.0764 -0.6740
17480TIP3    H173931   0.138   3.378  15.162  1.0773  0.0099 -0.1579
17480TIP3    H273932   0.126   3.252  15.079  0.6386 -0.3462  0.4404
17481TIP3   OH273933   0.756   4.169   1.388 -0.4791  0.5078 -0.4218
17481TIP3    H173934   0.705   4.250   1.385 -1.7715 -0.2810 -0.5630
17481TIP3    H273935   0.847   4.198   1.391 -0.8575  1.9526 -1.6558
17482TIP3   OH273936   4.808   4.510  15.076  0.4061  0.7746 -0.5256
17482TIP3    H173937   4.799   4.500  14.981  0.9941 -1.4526 -0.3842
17482TIP3    H273938   4.889   4.464  15.098 -1.1238 -1.1697  1.4015
17483TIP3   OH273939   4.463   0.345  14.232  0.1889  0.0600 -0.0685
17483TIP3    H173940   4.545   0.391  14.216 -1.0186  1.9394 -1.1726
17483TIP3    H273941   4.457   0.281  14.161  0.4891  0.2043 -0.2236
17484TIP3   OH273942   1.673   4.019  13.905 -0.5240  0.6009  0.2777
17484TIP3    H173943   1.709   4.089  13.851  0.9949 -0.4133 -0.0960
17484TIP3    H273944   1.635   4.064  13.980  0.9882  1.8158  0.3713
17485TIP3   OH273945   4.256   6.618  12.742  0.3736 -0.4575 -0.3723
17485TIP3    H173946   4.229   6.562  12.670  0.5581  0.2562 -1.0083
17485TIP3    H273947   4.212   6.581  12.819 -1.6519  0.0619 -1.2031
17486TIP3   OH273948   4.891   2.844   6.784 -0.3440 -0.0128  0.2451
17486TIP3    H173949   4.868   2.769   6.839  1.6038 -0.6776  0.2469
17486TIP3    H273950   4.814   2.858   6.729 -1.3389 -1.0095  1.3314
17487TIP3   OH273951   0.085   3.750  11.471 -0.0341 -0.4959 -0.2070
17487TIP3    H173952   0.164   3.801  11.453  0.6858 -0.9491  1.4434
17487TIP3    H273953   0.086   3.680  11.406 -1.0816  1.5396 -2.5747
17488TIP3   OH273954   3.992   5.193  11.396  1.0552 -0.1856  0.2899
17488TIP3    H173955   4.007   5.275  11.348 -0.6202 -0.4702 -0.7960
17488TIP3    H273956   4.032   5.208  11.482 -1.4038  2.8156  1.0998
17489TIP3   OH273957   5.812   2.646  11.541  0.3563  0.2116  0.4169
17489TIP3    H173958   5.764   2.728  11.547  1.1772  1.0939 -2.7477
17489TIP3    H273959   5.767   2.596  11.473  2.1371 -0.1802 -0.5600
17490TIP3   OH273960   0.484   2.132   2.409  0.0933  0.0723 -0.2293
17490TIP3    H173961   0.417   2.155   2.344  0.0511  0.4699 -0.0525
17490TIP3    H273962   0.566   2.131   2.359  0.0336  0.1701 -0.3316
17491TIP3   OH273963   1.051   4.003  11.696  0.4578  0.1737 -0.0583
17491TIP3    H173964   0.959   4.017  11.672  0.4063  0.6796  0.4371
17491TIP3    H273965   1.094   4.086  11.676  0.2915  0.8558  2.2118
17492TIP3   OH273966   0.515   4.218   5.509 -0.1130  0.0369  0.3080
17492TIP3    H173967   0.435   4.166   5.497 -0.1195 -0.0634  0.7776
17492TIP3    H273968   0.579   4.156   5.545 -0.1424  0.3686  0.9451
17493TIP3   OH273969   2.383   3.992   1.562 -0.0463 -0.4316 -0.4256
17493TIP3    H173970   2.455   4.035   1.609  0.4825  0.7419 -2.1975
17493TIP3    H273971   2.325   3.960   1.631 -0.5333  3.2244  1.1314
17494TIP3   OH273972   3.439   4.355  10.388 -0.3591  0.8485 -0.6753
17494TIP3    H173973   3.362   4.318  10.431  0.5158  0.2244  0.3924
17494TIP3    H273974   3.486   4.279  10.353  0.1994  1.1594 -0.6104
17495TIP3   OH273975   0.026   6.720  10.988  0.3780  0.3963 -0.1117
17495TIP3    H173976  -0.026   6.743  11.064  1.6564  0.5639  0.7399
17495TIP3    H273977   0.115   6.711  11.021  0.4590 -3.1447 -0.8412
17496TIP3   OH273978   3.799   5.295   1.229  0.6953  0.9704  0.2988
17496TIP3    H173979   3.755   5.317   1.311  1.5766  2.9521  0.2873
17496TIP3    H273980   3.868   5.234   1.254 -0.0212  0.3306  0.7669
17497TIP3   OH273981   5.282   4.476   3.680 -0.0507 -0.0017  0.7966
17497TIP3    H173982   5.351   4.483   3.745  1.2871  0.5139 -0.6281
17497TIP3    H273983   5.310   4.406   3.621 -1.1055 -0.2841  0.5970
17498TIP3   OH273984   1.157   6.197   0.939 -0.0594  0.0692 -0.0860
17498TIP3    H173985   1.208   6.209   0.859  0.3757 -0.7555  0.0620
17498TIP3    H273986   1.172   6.107   0.964 -1.2161 -0.0563  0.2316
17499TIP3   OH273987   6.087   0.759  12.166 -0.3809 -0.3262  0.1656
17499TIP3    H173988   6.041   0.839  12.140 -1.3411 -0.4098  1.5340
17499TIP3    H273989   6.028   0.688  12.142 -0.7167 -0.4687  1.3389
17500TIP3   OH273990   1.999   2.106  15.532 -0.2846 -0.1197  0.4047
17500TIP3    H173991   1.946   2.186  15.541 -0.1723 -0.1872  2.0402
17500TIP3    H273992   1.946   2.038  15.573 -0.4784 -0.9676 -1.1837
17501TIP3   OH273993   3.813   4.418   3.558  0.0726 -0.5446 -0.4070
17501TIP3    H173994   3.871   4.383   3.491  0.8948  1.5908 -0.9120
17501TIP3    H273995   3.867   4.423   3.637 -0.8997 -3.0838  0.5208
17502TIP3   OH273996   5.064   2.770  14.992 -0.5000 -0.3591 -0.1066
17502TIP3    H173997   4.971   2.771  15.017 -0.3919 -0.6455  0.3198
17502TIP3    H273998   5.063   2.771  14.896 -1.0028 -2.8974 -0.2048
17503TIP3   OH273999   4.698   3.128  11.540  0.8909  0.2159 -0.3739
17503TIP3    H174000   4.670   3.118  11.449 -1.1560 -2.5417  0.4095
17503TIP3    H274001   4.759   3.055  11.554 -0.0057 -0.3407  0.8253
17504TIP3   OH274002   2.504   4.080   2.423 -0.0055 -0.0751  0.2683
17504TIP3    H174003   2.578   4.070   2.363 -1.7522 -0.0966 -2.0278
17504TIP3    H274004   2.480   4.172   2.416 -0.1457 -0.0459  1.0714
17505TIP3   OH274005   4.254   6.305   3.833  0.1178 -0.1605  0.2880
17505TIP3    H174006   4.219   6.277   3.749  1.3732 -0.4460 -0.1732
17505TIP3    H274007   4.243   6.229   3.890  0.4253 -0.4202  0.0066
17506TIP3   OH274008   0.513   4.686  12.478 -0.1836 -0.1135 -0.2222
17506TIP3    H174009   0.461   4.764  12.458 -0.2818 -0.3561 -0.9526
17506TIP3    H274010   0.602   4.719  12.492  0.2522 -0.0702 -2.7131
17507TIP3   OH274011   4.426   6.789   2.875 -0.1842  0.0651 -0.0868
17507TIP3    H174012   4.359   6.749   2.819  0.7179 -1.5694 -0.0421
17507TIP3    H274013   4.493   6.722   2.884  0.6234  1.0237  1.3586
17508TIP3   OH274014   5.965   4.937   6.142 -0.0956  0.1123 -0.2228
17508TIP3    H174015   6.013   4.935   6.225 -0.4072  1.1274 -0.0040
17508TIP3    H274016   5.944   4.846   6.125 -1.8609  0.0227  1.9042
17509TIP3   OH274017   2.173   2.798  11.505 -0.6596  0.6692 -0.0567
17509TIP3    H174018   2.238   2.797  11.576 -0.7655  1.3986  0.0611
17509TIP3    H274019   2.124   2.716  11.516  0.3381  0.0358 -0.2477
17510TIP3   OH274020   3.773   4.880   4.974  0.0237 -0.0929 -0.1192
17510TIP3    H174021   3.820   4.944   5.028 -0.0656 -0.1929  0.0781
17510TIP3    H274022   3.757   4.926   4.892 -0.6417  0.3887  0.2620
17511TIP3   OH274023   3.796   6.304  16.725 -0.1262  0.0018 -0.7615
17511TIP3    H174024   3.873   6.361  16.720 -1.7153  2.6042  1.8102
17511TIP3    H274025   3.764   6.298  16.635  1.2187  1.5655 -1.3894
17512TIP3   OH274026   0.142   3.493  12.166  0.4823  0.3666  0.2652
17512TIP3    H174027   0.161   3.443  12.246  1.2297 -2.0051 -1.2625
17512TIP3    H274028   0.081   3.561  12.194 -1.1211 -1.7684  2.4844
17513TIP3   OH274029   4.995   2.050   6.825  0.1367 -0.5800  0.8397
17513TIP3    H174030   5.082   2.060   6.787  0.0652 -1.1650  0.5067
17513TIP3    H274031   4.936   2.040   6.749 -0.1180 -0.9205  1.0769
17514TIP3   OH274032   6.119   1.743   5.473  0.1655  0.2450 -0.2141
17514TIP3    H174033   6.131   1.737   5.567 -0.0416  3.0321  0.0652
17514TIP3    H274034   6.024   1.747   5.461  0.2370  1.8102 -0.3524
17515TIP3   OH274035   6.312   3.002   2.302  0.1038  0.6916 -0.0185
17515TIP3    H174036   6.321   2.935   2.234  0.2998  1.1314 -0.4300
17515TIP3    H274037   6.315   2.953   2.384  1.0251  0.2750 -0.2912
17516TIP3   OH274038   4.170   3.839  13.075 -0.1403 -0.2089 -0.0702
17516TIP3    H174039   4.188   3.752  13.039  0.1874 -0.1188 -0.1218
17516TIP3    H274040   4.104   3.823  13.143  2.1581 -0.9506  2.1413
17517TIP3   OH274041   5.365   5.535   2.869  0.2305  0.1572  0.4328
17517TIP3    H174042   5.317   5.574   2.796  1.8917  0.0677 -0.7694
17517TIP3    H274043   5.303   5.536   2.942 -1.2794  0.8233 -0.8000
17518TIP3   OH274044   4.508   2.995  13.959 -0.2433 -0.1228 -0.2102
17518TIP3    H174045   4.568   3.043  13.902  0.9519 -0.4858  0.6983
17518TIP3    H274046   4.430   2.982  13.906  1.2725 -1.5659 -2.2696
17519TIP3   OH274047   5.645   4.270   5.931 -0.4201 -0.4358 -0.2307
17519TIP3    H174048   5.700   4.345   5.952 -1.9306  0.7107 -0.1629
17519TIP3    H274049   5.695   4.194   5.960  1.4404  0.4861 -0.9231
17520TIP3   OH274050   3.514   3.830   4.520  0.5562  0.3245 -0.1580
17520TIP3    H174051   3.592   3.789   4.556  2.2217  1.8533 -1.8367
17520TIP3    H274052   3.535   3.923   4.515 -0.3064  0.4692 -3.1003
17521TIP3   OH274053   0.793   0.139  13.367  0.1416  0.2810  0.3623
17521TIP3    H174054   0.773   0.127  13.274  0.4638  0.9039  0.2084
17521TIP3    H274055   0.713   0.110  13.412  0.4518 -1.2920 -0.0257
17522TIP3   OH274056   6.519   4.062  12.495 -0.2784 -0.0330  0.1781
17522TIP3    H174057   6.605   4.103  12.487 -0.6143  0.5839 -0.4238
17522TIP3    H274058   6.504   4.021  12.410  0.8689 -3.1356  1.3422
17523TIP3   OH274059   0.847   2.618   6.372 -0.3504 -0.5608  0.5035
17523TIP3    H174060   0.766   2.578   6.403  0.4572 -1.7482  1.1372
17523TIP3    H274061   0.917   2.562   6.406  0.7177  0.0684 -0.5653
17524TIP3   OH274062   4.498   5.601   6.331 -0.0129 -0.4628 -0.5306
17524TIP3    H174063   4.557   5.530   6.354  0.1667 -0.5191 -1.1577
17524TIP3    H274064   4.552   5.664   6.284  0.2219  0.9006  1.4372
17525TIP3   OH274065   2.233   2.941  13.681  0.1058 -0.0523 -0.0995
17525TIP3    H174066   2.256   2.892  13.760 -1.3474 -0.0481  0.3561
17525TIP3    H274067   2.302   2.919  13.618  0.2942 -1.5014  0.5751
17526TIP3   OH274068   2.852   0.660   6.103 -0.0698  0.3012  0.2261
17526TIP3    H174069   2.795   0.663   6.180  0.8513  1.0543  0.9070
17526TIP3    H274070   2.817   0.589   6.050 -1.9787  1.1114  0.3332
17527TIP3   OH274071   1.920   3.043  17.159 -0.3876  0.4813  0.3994
17527TIP3    H174072   1.858   2.994  17.213 -0.5573  0.7515  0.4466
17527TIP3    H274073   1.985   2.978  17.134 -1.0684  0.0263 -0.2425
17528TIP3   OH274074   0.794   2.244   4.302  0.4172  0.1759  0.6377
17528TIP3    H174075   0.785   2.325   4.252  0.5662  0.1894  0.6332
17528TIP3    H274076   0.748   2.261   4.384  0.0814  0.1175  0.4635
17529TIP3   OH274077   3.088   2.662   3.924  0.0003 -0.6651  0.1678
17529TIP3    H174078   3.092   2.677   3.829 -1.1890 -1.8771 -0.1146
17529TIP3    H274079   3.115   2.745   3.963 -2.5502  0.9770 -1.2460
17530TIP3   OH274080   0.792   3.974   1.160 -0.1184  0.0863  0.1114
17530TIP3    H174081   0.729   3.902   1.158  0.5959 -0.5420  0.1728
17530TIP3    H274082   0.759   4.032   1.228 -0.4717 -0.3852  0.3477
17531TIP3   OH274083   3.814   4.258   4.593  0.2493  0.2127  0.0127
17531TIP3    H174084   3.844   4.340   4.553 -1.2572  0.9776  0.3510
17531TIP3    H274085   3.894   4.209   4.612  1.2603  1.9957  0.6116
17532TIP3   OH274086   0.459   1.634   5.608  0.4620 -0.6753  0.2227
17532TIP3    H174087   0.404   1.644   5.686  0.1527 -1.4037  0.1036
17532TIP3    H274088   0.547   1.622   5.643  0.4674 -0.0862  0.4305
17533TIP3   OH274089   6.609   0.612   0.713 -0.6235 -0.3239 -0.3040
17533TIP3    H174090   6.600   0.530   0.665 -0.6806 -0.0938 -0.6960
17533TIP3    H274091   6.663   0.667   0.656  1.0196 -0.7410  0.7817
17534TIP3   OH274092   4.622   0.854  15.358 -0.0316 -0.2538 -0.1661
17534TIP3    H174093   4.716   0.873  15.355  0.0709 -0.3241  1.5685
17534TIP3    H274094   4.598   0.865  15.450 -1.2495 -2.4695 -0.1393
17535TIP3   OH274095   2.399   2.341  15.825 -0.8067  0.0538  0.3013
17535TIP3    H174096   2.372   2.274  15.762 -3.0585 -0.5846  1.8076
17535TIP3    H274097   2.491   2.322  15.844 -1.2146 -2.2614  0.2292
17536TIP3   OH274098   4.369   2.044  14.516  0.0384  0.7498  0.8160
17536TIP3    H174099   4.383   2.050  14.611  0.2559  0.6477  0.7927
17536TIP3    H274100   4.283   2.083  14.501 -0.0999  0.5478  1.0860
17537TIP3   OH274101   5.842   6.237   3.160 -0.4595  0.0189 -0.0983
17537TIP3    H174102   5.815   6.304   3.223 -2.2389 -0.7063 -0.0113
17537TIP3    H274103   5.852   6.283   3.078  0.9100  0.8093  0.4825
17538TIP3   OH274104   2.451   1.829   4.481 -0.1027 -0.2309  0.7079
17538TIP3    H174105   2.525   1.871   4.523  0.1388  0.3294 -0.2591
17538TIP3    H274106   2.448   1.867   4.393 -1.0439 -0.8319  0.4657
17539TIP3   OH274107   2.316   6.307   1.032 -0.2579 -0.1735  0.0530
17539TIP3    H174108   2.352   6.379   1.082 -1.2894  1.1059 -0.9614
17539TIP3    H274109   2.309   6.235   1.094 -1.3813  1.3066  1.7451
17540TIP3   OH274110   2.844   6.714  13.472 -0.3044 -0.2434  0.3216
17540TIP3    H174111   2.880   6.717  13.560  2.8935  1.0601 -0.8852
17540TIP3    H274112   2.849   6.621  13.447  1.3910 -0.2462  0.5752
17541TIP3   OH274113   3.565   4.656   2.427 -0.7695  0.3184 -0.3262
17541TIP3    H174114   3.588   4.608   2.347 -0.0034  0.0450  0.0529
17541TIP3    H274115   3.567   4.748   2.400 -0.4490  0.2338 -0.6112
17542TIP3   OH274116   1.961   6.743   5.994 -0.2673  0.3125 -0.1626
17542TIP3    H174117   1.933   6.654   5.972  0.6631  0.1205 -0.6291
17542TIP3    H274118   1.892   6.776   6.051  0.5835 -1.6182  2.1768
17543TIP3   OH274119   0.005   2.174   0.464  0.2335 -0.5617  0.2859
17543TIP3    H174120   0.007   2.270   0.473  0.5082 -0.6957  2.0667
17543TIP3    H274121  -0.077   2.148   0.505 -0.3953 -1.0445 -1.2078
17544TIP3   OH274122   3.900   6.538  11.333 -0.1958  0.8405 -0.8345
17544TIP3    H174123   3.959   6.613  11.335  0.1391  0.6135 -1.7048
17544TIP3    H274124   3.817   6.574  11.300 -0.2197  0.9398 -0.6698
17545TIP3   OH274125   1.477   4.116   2.408  0.0022  0.3635 -0.1352
17545TIP3    H174126   1.548   4.055   2.430  0.6678  1.8161  1.9358
17545TIP3    H274127   1.401   4.081   2.455 -0.2775 -0.2601 -1.0196
17546TIP3   OH274128   2.512   4.751  14.038  0.1558 -0.0266 -0.4262
17546TIP3    H174129   2.487   4.751  14.131 -1.9662 -1.8932 -0.9001
17546TIP3    H274130   2.606   4.734  14.038  0.1484 -0.2451  1.3798
17547TIP3   OH274131   3.408   4.141  12.928  0.2611 -0.1903  0.0237
17547TIP3    H174132   3.427   4.205  12.997 -1.2231  0.7129 -0.3581
17547TIP3    H274133   3.397   4.194  12.849 -1.9007 -0.7794 -0.1359
17548TIP3   OH274134   4.404   2.861  13.687 -0.4795 -0.3148 -1.0711
17548TIP3    H174135   4.433   2.941  13.643 -0.9824  0.3975 -0.1611
17548TIP3    H274136   4.318   2.883  13.723  1.5582  0.8111  4.1156
17549TIP3   OH274137   5.298   4.240  11.073  0.0002  0.0329 -0.7862
17549TIP3    H174138   5.284   4.238  10.978  0.3414  1.8273 -0.9029
17549TIP3    H274139   5.322   4.330  11.092 -0.3039 -0.2343  1.0582
17550TIP3   OH274140   2.192   1.599   3.465 -0.2410 -0.1687 -0.0381
17550TIP3    H174141   2.227   1.574   3.380 -1.4445 -0.2839 -0.5136
17550TIP3    H274142   2.100   1.574   3.462 -0.6127  1.0072  0.8312
17551TIP3   OH274143   3.951   2.596  16.882  0.2951 -0.2898  0.4404
17551TIP3    H174144   3.964   2.501  16.885 -1.3709 -0.5588 -0.1381
17551TIP3    H274145   3.973   2.626  16.970  0.6274 -1.2329  0.6890
17552TIP3   OH274146   3.364   6.398   1.376  0.2364  0.2564 -0.2427
17552TIP3    H174147   3.367   6.470   1.313 -0.0787  2.1143  1.7373
17552TIP3    H274148   3.313   6.330   1.332  0.1995  1.3875 -2.0559
17553TIP3   OH274149   5.469   4.011   0.058 -0.2638 -0.2752 -0.5372
17553TIP3    H174150   5.437   3.968  -0.021 -1.1643  0.1823 -0.4340
17553TIP3    H274151   5.396   4.007   0.119  0.1992 -0.0421  0.0413
17554TIP3   OH274152   5.844   2.262   3.460 -0.0293 -0.6626  0.2479
17554TIP3    H174153   5.874   2.288   3.372 -0.9904 -0.9947 -0.1939
17554TIP3    H274154   5.845   2.167   3.459 -0.6131 -0.6758  0.3883
17555TIP3   OH274155   4.553   4.477  15.647  0.0952 -0.7825  0.0916
17555TIP3    H174156   4.633   4.501  15.600  0.6279  0.3701  1.5219
17555TIP3    H274157   4.491   4.546  15.624  0.3252 -0.2728  0.9638
17556TIP3   OH274158   2.534   1.048   1.915  0.0766 -0.7967  0.3787
17556TIP3    H174159   2.457   1.022   1.864  0.1216 -1.1854  0.5057
17556TIP3    H274160   2.516   1.138   1.943  1.0843  0.3483 -2.3401
17557TIP3   OH274161   3.154   1.372   3.938 -0.2944  0.1682 -0.4849
17557TIP3    H174162   3.103   1.358   3.859 -1.1321  0.6853 -0.0502
17557TIP3    H274163   3.122   1.455   3.974 -0.4323 -0.3932  0.7639
17558TIP3   OH274164   3.335   0.378   2.681  0.3945 -0.0453  0.1840
17558TIP3    H174165   3.324   0.441   2.611  1.5302  0.6658  0.6223
17558TIP3    H274166   3.248   0.339   2.692  0.1693 -0.1179 -1.5374
17559TIP3   OH274167   0.400   3.576  12.473 -0.1924 -0.6700  0.3703
17559TIP3    H174168   0.343   3.550  12.401 -0.1711  0.5109 -0.0978
17559TIP3    H274169   0.446   3.496  12.498  0.1186 -1.0160 -1.2213
17560TIP3   OH274170   2.926   2.281   2.668  0.1961  0.4020 -0.3323
17560TIP3    H174171   2.986   2.292   2.742  2.6574  2.9450 -2.4541
17560TIP3    H274172   2.979   2.237   2.602 -1.1064  0.4588 -1.4420
17561TIP3   OH274173   6.602   1.938  16.590  0.2778  0.3407 -0.6725
17561TIP3    H174174   6.690   1.904  16.606 -0.0982 -0.6100 -0.5541
17561TIP3    H274175   6.560   1.938  16.676 -0.3518 -0.7259 -0.9654
17562TIP3   OH274176   6.724   3.098  14.903  0.1797  0.0154  0.0202
17562TIP3    H174177   6.727   3.058  14.989 -0.1819  0.3339  0.1861
17562TIP3    H274178   6.769   3.182  14.914 -1.2943  0.7984  0.3178
17563TIP3   OH274179   1.114   5.342   0.036 -0.7284  0.2272  0.3821
17563TIP3    H174180   1.031   5.384   0.061 -0.3319 -0.0811  2.4030
17563TIP3    H274181   1.087   5.262  -0.010 -1.4978  1.2179 -0.9679
17564TIP3   OH274182   5.759   5.396   3.347  0.5885  0.3980  0.8048
17564TIP3    H174183   5.771   5.471   3.404  0.4028  1.0093  0.0542
17564TIP3    H274184   5.841   5.347   3.355  1.9374  2.1944 -0.8633
17565TIP3   OH274185   1.842   4.443   2.528 -0.0586  0.5997  0.1248
17565TIP3    H174186   1.768   4.386   2.548 -0.0559  0.4112 -0.3845
17565TIP3    H274187   1.814   4.492   2.450  1.1289 -0.9491 -1.3405
17566TIP3   OH274188   1.377   5.620   1.910  0.0289 -0.3992 -0.5284
17566TIP3    H174189   1.458   5.628   1.960  0.2598  1.0654 -1.0692
17566TIP3    H274190   1.403   5.638   1.820 -1.0554  1.2205 -0.5612
17567TIP3   OH274191   2.496   6.212   1.831 -0.3980  0.6534 -0.4227
17567TIP3    H174192   2.430   6.272   1.797 -0.3274  1.0443  0.1050
17567TIP3    H274193   2.451   6.165   1.901 -1.7621 -2.9148 -3.3708
17568TIP3   OH274194   1.908   0.652  12.169 -1.1012 -0.1860 -0.8602
17568TIP3    H174195   2.004   0.647  12.165 -0.9897  0.0717  0.8799
17568TIP3    H274196   1.881   0.568  12.206 -1.4957  0.0587 -0.5870
17569TIP3   OH274197   6.657   4.310  16.265 -0.0604 -0.0707  0.1791
17569TIP3    H174198   6.615   4.350  16.189  2.4707 -0.1301 -1.3990
17569TIP3    H274199   6.681   4.385  16.321  1.6955  0.4406 -1.1517
17570TIP3   OH274200   5.087   6.821  12.963 -0.2027 -0.4834 -0.2841
17570TIP3    H174201   5.011   6.874  12.988 -0.5754 -1.2661  0.2829
17570TIP3    H274202   5.051   6.735  12.945  0.7095 -1.2475  1.3609
17571TIP3   OH274203   2.709   4.759  12.219 -0.2289 -0.6941  0.2873
17571TIP3    H174204   2.752   4.808  12.289  0.4942  0.3242 -0.8200
17571TIP3    H274205   2.659   4.690  12.263  0.7709 -0.5077  1.7345
17572TIP3   OH274206   4.232   2.006   0.181 -0.6425 -0.7990 -0.1044
17572TIP3    H174207   4.225   1.933   0.242 -1.8414 -1.0292 -0.4843
17572TIP3    H274208   4.148   2.051   0.187  0.3915  1.1228  0.7914
17573TIP3   OH274209   3.963   1.451   3.825  0.4189 -0.2142 -0.1126
17573TIP3    H174210   4.007   1.405   3.753 -0.7068  0.5615 -1.3191
17573TIP3    H274211   4.030   1.511   3.859  1.1380 -0.9969 -0.1128
17574TIP3   OH274212   2.400   6.781  15.699  0.3963 -0.2027  0.1006
17574TIP3    H174213   2.354   6.865  15.688  2.1987  1.0420  1.4918
17574TIP3    H274214   2.441   6.766  15.614  0.9048  0.8927  0.1344
17575TIP3   OH274215   0.158   1.613   1.350 -0.3920  0.5188 -0.1875
17575TIP3    H174216   0.193   1.701   1.352 -0.6047  0.5870  0.8137
17575TIP3    H274217   0.083   1.618   1.291 -1.3553  1.3859  1.0651
17576TIP3   OH274218   4.795   0.428  11.516 -0.1555 -0.3168  0.3848
17576TIP3    H174219   4.789   0.339  11.549 -0.9716 -0.7032 -0.7215
17576TIP3    H274220   4.720   0.436  11.456  0.9159  0.5147 -0.8958
17577TIP3   OH274221   3.976   0.471   5.531 -0.0908 -0.0371 -0.6581
17577TIP3    H174222   4.021   0.415   5.595  1.5650  0.7990 -1.0176
17577TIP3    H274223   4.044   0.531   5.501 -1.1872  0.4937 -2.1834
17578TIP3   OH274224   2.190   4.697   0.241  0.3350 -0.0080 -0.3209
17578TIP3    H174225   2.284   4.683   0.252  0.2169  0.5266  1.7499
17578TIP3    H274226   2.155   4.610   0.223  0.9140 -0.6624  1.5413
17579TIP3   OH274227   4.609   1.281   1.675  0.1169 -0.2684  0.1627
17579TIP3    H174228   4.630   1.190   1.697  0.7581 -0.3394 -0.7150
17579TIP3    H274229   4.572   1.276   1.587 -0.5290  0.2410  0.4020
17580TIP3   OH274230   0.812   1.449  12.341 -0.1023 -0.5961  0.1649
17580TIP3    H174231   0.858   1.441  12.258  0.7676  3.6074  0.0309
17580TIP3    H274232   0.860   1.392  12.401 -1.1813 -4.3203 -2.1506
17581TIP3   OH274233   1.507   1.885  15.405 -0.7161 -0.3798 -0.5133
17581TIP3    H174234   1.585   1.941  15.402 -0.5988 -0.5343 -0.3098
17581TIP3    H274235   1.525   1.815  15.343 -0.2594 -0.9863  0.3041
17582TIP3   OH274236   6.735   2.972   5.927 -0.0414 -0.6333  0.4206
17582TIP3    H174237   6.653   3.022   5.921  0.3924  0.0973  0.4340
17582TIP3    H274238   6.795   3.031   5.972  1.5962  0.3084 -2.7043
17583TIP3   OH274239   2.334   2.293   5.074 -0.8579  0.1475 -0.1366
17583TIP3    H174240   2.273   2.237   5.025 -1.0153 -0.8333  1.1473
17583TIP3    H274241   2.278   2.339   5.137 -0.2849 -0.8231  1.1090
17584TIP3   OH274242   5.068   2.449  14.661  0.0256 -0.2192 -0.3693
17584TIP3    H174243   5.113   2.418  14.740 -0.3270 -0.2493 -0.1801
17584TIP3    H274244   5.025   2.371  14.626 -2.4665  0.3608  1.1508
17585TIP3   OH274245   6.525   0.376   4.230 -0.0679 -0.2927 -0.1424
17585TIP3    H174246   6.591   0.407   4.167 -0.5308 -1.2765 -1.1528
17585TIP3    H274247   6.517   0.283   4.211 -1.6532 -0.2173  0.0659
17586TIP3   OH274248   6.624   5.869   4.992 -0.5919 -0.2805  0.0104
17586TIP3    H174249   6.659   5.833   4.910 -2.4718 -1.4063 -0.3717
17586TIP3    H274250   6.590   5.955   4.968 -1.5990 -0.8148 -0.5533
17587TIP3   OH274251   4.860   0.270  14.788 -0.3998 -0.2208 -0.1537
17587TIP3    H174252   4.930   0.317  14.743 -0.5614  0.6342  0.4526
17587TIP3    H274253   4.796   0.252  14.720 -0.0414 -0.1243 -0.5219
17588TIP3   OH274254   4.037   1.390  14.068  0.2757 -0.4099  0.0581
17588TIP3    H174255   3.985   1.451  14.120  1.1803 -1.0700  1.8453
17588TIP3    H274256   4.030   1.307  14.116  0.0965 -1.3970 -1.6188
17589TIP3   OH274257   6.651   2.734   3.685  0.2977 -0.2275 -0.1000
17589TIP3    H174258   6.661   2.732   3.590  0.1579  1.3159 -0.1710
17589TIP3    H274259   6.621   2.822   3.704  0.3897 -0.4915  1.3974
17590TIP3   OH274260   4.997   4.648  11.315 -0.1092 -0.2640 -0.3820
17590TIP3    H174261   5.014   4.577  11.253 -3.0095 -0.2033 -1.3812
17590TIP3    H274262   4.981   4.724  11.260  1.8969  1.0134  0.6579
17591TIP3   OH274263   3.734   1.047   0.329 -0.2234  0.0868  0.3137
17591TIP3    H174264   3.715   0.969   0.276 -0.7894  0.5827 -0.2345
17591TIP3    H274265   3.780   1.013   0.406  0.6722 -0.6524 -0.5203
17592TIP3   OH274266   6.325   5.681   5.744 -0.0939  0.1331 -0.3488
17592TIP3    H174267   6.236   5.681   5.778 -0.6580  3.2256 -1.5094
17592TIP3    H274268   6.380   5.697   5.820 -0.9067  1.9781 -0.1005
17593TIP3   OH274269   6.310   2.389  14.149 -0.0861 -0.4284 -0.4365
17593TIP3    H174270   6.283   2.478  14.125 -1.3911 -0.1495  1.7396
17593TIP3    H274271   6.380   2.402  14.213  0.0831 -1.0009 -0.5038
17594TIP3   OH274272   0.881   5.027  17.195  0.3852 -0.0775  0.2381
17594TIP3    H174273   0.909   5.070  17.276 -0.1943 -2.4181  1.7682
17594TIP3    H274274   0.937   4.950  17.188  0.1692 -0.1125 -1.4194
17595TIP3   OH274275   2.803   3.533  10.673  0.2716  0.5335 -0.3193
17595TIP3    H174276   2.753   3.460  10.709  1.1716 -1.8563 -3.4811
17595TIP3    H274277   2.894   3.514  10.698  0.2334  2.5772  1.7770
17596TIP3   OH274278   5.913   0.390   3.809  0.4888  0.1014 -0.3931
17596TIP3    H174279   5.879   0.307   3.844 -1.1382  1.1532  0.6647
17596TIP3    H274280   6.002   0.395   3.843 -0.7913  0.7601  3.3051
17597TIP3   OH274281   5.380   3.632   4.964 -0.6319 -0.8417 -0.0355
17597TIP3    H174282   5.353   3.638   4.872  0.2823 -0.2680 -0.2856
17597TIP3    H274283   5.314   3.576   5.005 -1.3875 -0.6154 -0.9068
17598TIP3   OH274284   6.349   6.216   3.149  0.0461  0.4227  0.2572
17598TIP3    H174285   6.404   6.247   3.222 -1.0786  0.6508  1.0265
17598TIP3    H274286   6.288   6.154   3.190 -0.2201  0.1066 -0.6044
17599TIP3   OH274287   2.791   5.595  12.062 -0.1370  0.0520  0.4771
17599TIP3    H174288   2.746   5.520  12.100 -1.0783  0.8830  1.0609
17599TIP3    H274289   2.808   5.570  11.971 -1.0898 -0.5866  0.4658
17600TIP3   OH274290   1.893   3.422   3.131 -0.1545  0.1578  0.1175
17600TIP3    H174291   1.883   3.517   3.127  4.9225  0.9468 -0.3448
17600TIP3    H274292   1.952   3.408   3.205 -0.4428 -2.6262 -0.0880
17601TIP3   OH274293   4.106   2.026   3.808 -0.1110 -0.1351 -0.3302
17601TIP3    H174294   4.184   2.047   3.757  0.7451  1.5650  1.5521
17601TIP3    H274295   4.139   2.009   3.896 -1.8255  0.3689  0.4516
17602TIP3   OH274296   3.149   4.929   0.098  0.1170  0.3558 -0.0508
17602TIP3    H174297   3.074   4.877   0.067 -0.1350  1.6477 -1.7827
17602TIP3    H274298   3.129   4.949   0.189 -0.4676 -1.3379  0.2306
17603TIP3   OH274299   6.161   0.323  16.556  0.4571 -0.2992 -0.6602
17603TIP3    H174300   6.217   0.371  16.617 -1.4619 -0.1855  1.1217
17603TIP3    H274301   6.170   0.370  16.473  2.3683  0.1558 -0.2401
17604TIP3   OH274302   1.283   1.256  16.355  0.0571 -0.1814  0.0738
17604TIP3    H174303   1.355   1.290  16.303 -0.6272  0.0287 -0.7642
17604TIP3    H274304   1.303   1.281  16.445  1.0204 -0.1370 -0.1496
17605TIP3   OH274305   5.799   4.145   3.426 -0.0584 -0.9645 -0.6059
17605TIP3    H174306   5.785   4.063   3.378 -3.1660 -0.2889 -1.0076
17605TIP3    H274307   5.766   4.213   3.368  0.3071  0.3426  0.6812
17606TIP3   OH274308   1.491   0.251   6.199  0.5444 -0.1233  0.1803
17606TIP3    H174309   1.574   0.285   6.165  1.4439 -2.3079  0.0173
17606TIP3    H274310   1.429   0.261   6.126  0.9310  0.5158 -0.0697
17607TIP3   OH274311   3.819   4.220  11.431  0.4313 -0.3119 -0.2183
17607TIP3    H174312   3.763   4.251  11.502  0.5493 -0.9138  0.1499
17607TIP3    H274313   3.906   4.254  11.452  0.3535 -0.0051 -0.3874
17608TIP3   OH274314   3.726   1.517   3.694 -0.5543 -0.3689 -0.1451
17608TIP3    H174315   3.668   1.446   3.665  1.3751 -0.9336 -3.0524
17608TIP3    H274316   3.798   1.472   3.738 -1.3506  0.2183  1.9137
17609TIP3   OH274317   6.018   4.560  17.028  1.0571  0.4749 -0.4763
17609TIP3    H174318   5.970   4.627  17.077 -0.4016 -2.7669  3.0092
17609TIP3    H274319   5.952   4.493  17.008  3.0764 -1.7233 -0.1932
17610TIP3   OH274320   0.166   3.695   0.255  0.1223  0.2079  0.1673
17610TIP3    H174321   0.091   3.718   0.201  0.1858  0.1300  0.0444
17610TIP3    H274322   0.237   3.680   0.192 -0.0268 -0.7599  0.2048
17611TIP3   OH274323   3.460   0.349   3.598 -0.1868 -0.0118 -0.1590
17611TIP3    H174324   3.404   0.340   3.675  0.1257 -3.0475 -0.1418
17611TIP3    H274325   3.409   0.311   3.526  1.2862 -1.6541 -0.4083
17612TIP3   OH274326   5.620   4.246  17.013 -0.2189  0.4070  0.3410
17612TIP3    H174327   5.629   4.307  17.086 -1.1615  1.7834 -0.6287
17612TIP3    H274328   5.528   4.219  17.014 -0.3714  0.8144 -0.5675
17613TIP3   OH274329   3.026   3.453   4.512  0.2468  0.3781 -0.0381
17613TIP3    H174330   3.016   3.545   4.537 -1.8781  0.0305  0.5791
17613TIP3    H274331   3.084   3.456   4.436 -0.2715  2.3006 -0.4265
17614TIP3   OH274332   2.964   4.631  13.100  0.1849  0.3154 -0.5172
17614TIP3    H174333   3.052   4.655  13.074  0.1230  0.1783 -0.8588
17614TIP3    H274334   2.927   4.712  13.137  0.9429 -0.0019  0.9925
17615TIP3   OH274335   0.859   2.514   5.824 -0.2536 -0.0171  0.8599
17615TIP3    H174336   0.909   2.432   5.823  0.9276  0.5718 -2.4196
17615TIP3    H274337   0.843   2.531   5.916  1.8115 -2.5405  1.8240
17616TIP3   OH274338   1.364   4.355   3.238  0.3745 -0.0641  1.0030
17616TIP3    H174339   1.434   4.368   3.302  1.5424  2.2783 -0.5855
17616TIP3    H274340   1.407   4.367   3.153 -1.4921 -1.1493 -0.1617
17617TIP3   OH274341   5.053   3.681   4.800  0.2104  0.0421 -0.0100
17617TIP3    H174342   5.016   3.766   4.823 -1.8938 -1.4761  2.8378
17617TIP3    H274343   5.055   3.681   4.704 -0.5764  2.9150 -0.1202
17618TIP3   OH274344   4.147   3.220  16.219 -0.6676 -0.4073  0.0087
17618TIP3    H174345   4.141   3.126  16.238 -0.2624 -0.4116  0.1272
17618TIP3    H274346   4.203   3.225  16.142  1.5424 -0.1340  1.5125
17619TIP3   OH274347   3.231   0.733   2.797  0.4452 -0.1075  0.2014
17619TIP3    H174348   3.176   0.654   2.794  1.4613 -0.9438  1.9159
17619TIP3    H274349   3.217   0.776   2.713 -0.3087 -2.0075 -0.6903
17620TIP3   OH274350   3.823   4.835   4.405  0.1991 -0.0912  0.0013
17620TIP3    H174351   3.884   4.896   4.446  1.3374 -0.2186 -1.4342
17620TIP3    H274352   3.832   4.852   4.312  0.4082 -2.3237 -0.4263
17621TIP3   OH274353   3.102   1.056   5.320  0.1622  0.1123 -0.3021
17621TIP3    H174354   3.068   1.087   5.404 -1.8600  1.9921 -1.7034
17621TIP3    H274355   3.052   0.976   5.302  2.2051 -1.6158  1.2375
17622TIP3   OH274356   2.897   4.925  13.991 -0.5848  0.2262 -0.6170
17622TIP3    H174357   2.974   4.974  14.021  0.9573 -1.7587 -1.1120
17622TIP3    H274358   2.890   4.946  13.898  0.2136 -0.6169 -0.8815
17623TIP3   OH274359   1.265   5.694   1.206 -0.5385  0.4080  0.3406
17623TIP3    H174360   1.176   5.716   1.234 -1.6660 -2.3322 -0.7972
17623TIP3    H274361   1.304   5.650   1.282 -0.8914 -0.1796  0.1896
17624TIP3   OH274362   2.396   0.100  11.354  0.2520 -0.3908 -0.0589
17624TIP3    H174363   2.393   0.020  11.407 -2.6215 -0.4512 -0.1651
17624TIP3    H274364   2.435   0.072  11.271  0.3218 -1.4124  0.3015
17625TIP3   OH274365   1.093   1.292  13.023 -0.2325  0.5691  0.4232
17625TIP3    H174366   1.166   1.249  12.979  0.1157  0.1607  1.3790
17625TIP3    H274367   1.099   1.384  12.995  0.7555  0.5772  0.6283
17626TIP3   OH274368   0.583   1.402   5.447 -0.4001  0.4286  0.2789
17626TIP3    H174369   0.648   1.469   5.469 -1.3467  1.7624 -0.8853
17626TIP3    H274370   0.577   1.404   5.352 -0.8782 -0.9320  0.2516
17627TIP3   OH274371   4.206   3.551   3.234 -0.7299  0.1549 -0.0099
17627TIP3    H174372   4.230   3.521   3.322  0.4600 -1.4864 -0.8642
17627TIP3    H274373   4.118   3.588   3.245 -0.9749 -0.8396  1.6915
17628TIP3   OH274374   4.134   6.615  15.040  0.1772  0.0406  0.4375
17628TIP3    H174375   4.122   6.526  15.074  1.0737 -0.3728 -0.2876
17628TIP3    H274376   4.122   6.606  14.945 -2.4060  1.1973  0.5833
17629TIP3   OH274377   0.260   2.255   2.243 -0.1070 -0.8290 -0.3985
17629TIP3    H174378   0.274   2.207   2.162  1.5837  0.6775 -1.0566
17629TIP3    H274379   0.204   2.328   2.219 -1.3540 -1.5285  0.2689
17630TIP3   OH274380   3.038   4.378   0.131  0.1591  0.6789  0.0422
17630TIP3    H174381   3.116   4.373   0.076  1.5552 -2.1331  2.0479
17630TIP3    H274382   3.071   4.392   0.220 -1.5602 -0.6797  0.9755
17631TIP3   OH274383   1.369   5.630   3.794  0.4248 -0.5654 -0.0192
17631TIP3    H174384   1.364   5.726   3.794  0.6411 -0.5219  1.7059
17631TIP3    H274385   1.348   5.605   3.884 -0.0567 -2.1742 -0.5538
17632TIP3   OH274386   4.315   1.481   0.767  0.1897  0.1905  0.3008
17632TIP3    H174387   4.349   1.556   0.816 -0.9866  1.3322 -0.5675
17632TIP3    H274388   4.245   1.517   0.713 -0.6327 -1.6055  0.0912
17633TIP3   OH274389   0.464   3.424  16.800  0.2643  0.1188 -0.4564
17633TIP3    H174390   0.408   3.376  16.861 -0.3412  1.0795 -0.2266
17633TIP3    H274391   0.467   3.369  16.722  1.7513 -1.5441  0.7107
17634TIP3   OH274392   1.865   0.355  11.909 -0.2466  0.2132 -0.7878
17634TIP3    H174393   1.811   0.327  11.983 -0.3249  2.1820 -0.0343
17634TIP3    H274394   1.950   0.314  11.923 -1.2476 -2.2911 -1.5639
17635TIP3   OH274395   0.556   0.867  14.892 -0.0284 -0.6486  0.2566
17635TIP3    H174396   0.497   0.823  14.954 -1.9058 -0.4914 -1.3231
17635TIP3    H274397   0.540   0.960  14.906 -0.6209 -0.6157 -0.5712
17636TIP3   OH274398   5.404   2.906   0.771  0.2069 -0.6107 -0.5494
17636TIP3    H174399   5.462   2.836   0.739 -0.5530 -1.0201 -1.0500
17636TIP3    H274400   5.352   2.930   0.695 -0.3016 -0.2516 -0.0923
17637TIP3   OH274401   1.886   6.526  17.003 -0.4672 -0.1820  0.0006
17637TIP3    H174402   1.822   6.457  16.982 -0.6343 -0.1538  0.4081
17637TIP3    H274403   1.970   6.489  16.975 -0.5013 -0.7155  0.5726
17638TIP3   OH274404   6.198   3.147  14.317 -0.5860  0.0157  0.0803
17638TIP3    H174405   6.171   3.088  14.246  0.4014  0.3381 -0.5911
17638TIP3    H274406   6.199   3.091  14.395 -1.8580 -0.3040 -0.1175
17639TIP3   OH274407   1.193   0.838   1.680  0.0375 -0.2932  0.3612
17639TIP3    H174408   1.266   0.793   1.638  0.4480 -1.1470  1.9160
17639TIP3    H274409   1.233   0.883   1.755 -0.9466 -0.3146  0.9145
17640TIP3   OH274410   1.579   6.008   5.207 -0.5666 -0.2635 -0.0827
17640TIP3    H174411   1.499   6.006   5.259 -0.0817 -0.0841  0.6824
17640TIP3    H274412   1.583   6.098   5.172 -0.3948 -0.0933  0.3688
17641TIP3   OH274413   2.070   2.283  16.699  0.0628 -0.1893  0.2156
17641TIP3    H174414   1.980   2.286  16.667  0.2377  0.5026 -0.2281
17641TIP3    H274415   2.095   2.190  16.692 -0.4157 -0.2889 -0.2141
17642TIP3   OH274416   2.586   4.148   2.040  0.0472 -0.4527  0.1040
17642TIP3    H174417   2.664   4.200   2.057  0.4671 -1.4757  1.5261
17642TIP3    H274418   2.608   4.060   2.071 -1.6722 -0.7550  0.6163
17643TIP3   OH274419   5.139   5.608   6.454  1.0976 -0.6786 -0.0938
17643TIP3    H174420   5.139   5.536   6.517 -0.3284  0.8100  1.7081
17643TIP3    H274421   5.231   5.619   6.430  1.6842 -1.3246  1.7256
17644TIP3   OH274422   6.265   1.064   6.183 -0.1589  0.4840 -0.2531
17644TIP3    H174423   6.332   1.028   6.125  0.7655  0.0250  1.0771
17644TIP3    H274424   6.193   1.087   6.124  0.9764  0.5736 -1.6543
17645TIP3   OH274425   6.546   5.213  14.944  0.0332  0.8687 -0.2662
17645TIP3    H174426   6.488   5.270  14.894 -0.0207  1.4930  0.4812
17645TIP3    H274427   6.619   5.269  14.970 -0.1287  0.6722  0.6690
17646TIP3   OH274428   0.655   0.257   2.725  0.1784 -0.2471 -0.1320
17646TIP3    H174429   0.706   0.200   2.783 -0.8799 -0.5813  0.5024
17646TIP3    H274430   0.672   0.224   2.637 -0.6636 -1.7717  0.2495
17647TIP3   OH274431   1.939   2.712  14.106  0.3069  0.4672  0.7474
17647TIP3    H174432   1.853   2.674  14.123  0.6542 -1.1500 -0.8786
17647TIP3    H274433   1.921   2.803  14.081 -0.7730  0.5913  1.8856
17648TIP3   OH274434   3.779   0.747  10.958  0.4142  0.4212  0.3136
17648TIP3    H174435   3.721   0.733  10.883  1.2966  1.9598 -0.7311
17648TIP3    H274436   3.862   0.709  10.931 -0.0720 -2.0420  1.9197
17649TIP3   OH274437   1.799   3.967   5.379  0.5438 -0.0592  0.1228
17649TIP3    H174438   1.873   3.940   5.433  0.5543 -3.4103 -1.3241
17649TIP3    H274439   1.839   3.990   5.294  0.0625 -1.2711 -0.4617
17650TIP3   OH274440   0.692   1.717  12.902 -0.4000  0.6211 -0.2049
17650TIP3    H174441   0.771   1.768  12.916 -0.5672  0.9633 -0.5155
17650TIP3    H274442   0.722   1.626  12.904 -0.1366  0.7138  0.5694
17651TIP3   OH274443   5.896   0.541  14.717  0.0967 -0.4276 -1.0388
17651TIP3    H174444   5.833   0.507  14.653 -1.5332  1.8379 -0.7757
17651TIP3    H274445   5.879   0.491  14.796 -0.5852 -0.6508 -1.3135
17652TIP3   OH274446   2.422   2.592  15.937 -0.4747 -0.2063  0.2897
17652TIP3    H174447   2.483   2.625  16.004 -1.2017  0.8417  0.4729
17652TIP3    H274448   2.446   2.500  15.926 -1.1500 -0.7935  2.9521
17653TIP3   OH274449   1.975   6.488   3.969  0.0275  0.7203  0.2807
17653TIP3    H174450   1.996   6.447   4.052  0.5528 -0.5546 -0.4473
17653TIP3    H274451   1.896   6.443   3.938  1.6555 -1.1829 -1.4092
17654TIP3   OH274452   2.318   3.925   5.351 -0.2499  0.0756 -0.1611
17654TIP3    H174453   2.235   3.924   5.303 -0.9104  1.5365  0.8676
17654TIP3    H274454   2.384   3.940   5.284 -0.9681  0.2863 -0.8380
17655TIP3   OH274455   6.649   5.473   3.734  0.0825 -0.6522  0.3456
17655TIP3    H174456   6.560   5.509   3.738  0.4614  0.1839  2.6462
17655TIP3    H274457   6.695   5.515   3.807  2.1698 -1.6348 -0.3351
17656TIP3   OH274458   0.388   5.715   2.908 -0.4940 -0.5418 -0.1787
17656TIP3    H174459   0.382   5.810   2.906 -0.5896 -0.5362  0.3322
17656TIP3    H274460   0.446   5.696   2.981 -1.7837 -0.9348  0.7706
17657TIP3   OH274461   0.306   3.025   5.175  0.8706 -0.0523  0.8341
17657TIP3    H174462   0.374   3.008   5.110  0.5493  1.0053  0.1953
17657TIP3    H274463   0.264   2.940   5.189 -0.6208  0.0894 -2.1432
17658TIP3   OH274464   4.911   4.397  11.463  0.0606 -0.2125 -0.4540
17658TIP3    H174465   4.942   4.336  11.395  1.2554 -0.0678 -0.0618
17658TIP3    H274466   4.923   4.484  11.424 -0.0809 -0.1624 -0.3870
17659TIP3   OH274467   6.652   6.414  16.331 -0.3512  0.1462 -0.2604
17659TIP3    H174468   6.580   6.389  16.389  0.2094 -1.2076 -0.1023
17659TIP3    H274469   6.645   6.509  16.323 -0.8252  0.2888  1.5022
17660TIP3   OH274470   4.536   4.272   3.477 -0.1435  0.4679  0.6219
17660TIP3    H174471   4.624   4.236   3.465  0.5829  2.4007 -0.2073
17660TIP3    H274472   4.534   4.301   3.568  0.3640  1.1462  0.4191
17661TIP3   OH274473   6.350   2.135   1.029 -0.4987  0.1820 -0.1487
17661TIP3    H174474   6.409   2.187   1.083  0.8273 -0.3836 -0.9919
17661TIP3    H274475   6.262   2.162   1.057 -0.0003 -1.3691  3.6136
17662TIP3   OH274476   5.580   4.902  10.650 -0.2870  0.1174  0.3239
17662TIP3    H174477   5.648   4.897  10.718 -0.1562 -0.9176  0.1238
17662TIP3    H274478   5.614   4.967  10.588  1.9962 -2.4705 -1.3489
17663TIP3   OH274479   2.413   5.427  10.345 -0.3684  0.3686 -0.0646
17663TIP3    H174480   2.502   5.391  10.335 -0.3796  0.6416 -1.2386
17663TIP3    H274481   2.414   5.466  10.433  0.8472  0.8243 -0.2497
17664TIP3   OH274482   5.580   0.755  13.752 -0.0237 -0.6332  0.1551
17664TIP3    H174483   5.651   0.817  13.770  1.0640 -1.5356 -0.9407
17664TIP3    H274484   5.542   0.784  13.669 -0.8889 -0.2288  0.6718
17665TIP3   OH274485   5.992   3.245   0.961 -0.0185 -0.6378 -0.2054
17665TIP3    H174486   5.927   3.186   0.998  2.6368 -2.7956  1.4099
17665TIP3    H274487   6.022   3.298   1.034  1.0627 -0.7459 -0.5429
17666TIP3   OH274488   4.642   2.422  14.422 -0.2078  0.3482  0.2817
17666TIP3    H174489   4.614   2.355  14.360  0.7806  0.0396  0.1461
17666TIP3    H274490   4.578   2.418  14.493 -0.0697 -0.8604  0.3519
17667TIP3   OH274491   2.199   0.157   4.660 -0.4599  0.5379  0.1615
17667TIP3    H174492   2.141   0.122   4.593  0.4084 -0.1599 -0.2519
17667TIP3    H274493   2.287   0.129   4.633 -0.1158 -0.0275  1.7404
17668TIP3   OH274494   5.356   0.977   2.903 -0.2375  0.1208  0.1893
17668TIP3    H174495   5.383   0.890   2.932  0.6916 -0.3534 -1.9574
17668TIP3    H274496   5.266   0.966   2.873 -0.7248  0.3199  1.4977
17669TIP3   OH274497   0.386   4.314   3.147 -0.8006  0.2433 -0.2103
17669TIP3    H174498   0.433   4.366   3.081 -1.5770 -0.4704 -1.3572
17669TIP3    H274499   0.451   4.301   3.217  0.2582  0.4836 -1.1109
17670TIP3   OH274500   5.201   5.570  16.571 -0.0880  0.3770 -0.5945
17670TIP3    H174501   5.242   5.532  16.649 -0.4976  1.1517  0.0070
17670TIP3    H274502   5.143   5.638  16.605 -0.0521  0.9235 -1.6020
17671TIP3   OH274503   5.461   6.304   1.446 -0.2037  0.0604  0.1105
17671TIP3    H174504   5.382   6.357   1.459 -0.0257  0.7608 -1.4467
17671TIP3    H274505   5.525   6.366   1.412 -0.1765 -1.2194 -2.3647
17672TIP3   OH274506   1.861   2.991   5.084 -0.1114 -0.0620 -0.2138
17672TIP3    H174507   1.840   3.007   5.176  1.0747 -2.8611  0.6691
17672TIP3    H274508   1.909   3.069   5.057 -2.7545  2.0184  0.6400
17673TIP3   OH274509   3.759   3.519  15.924 -0.2802 -0.5817  0.1281
17673TIP3    H174510   3.803   3.437  15.901 -1.7485 -1.1460 -0.7880
17673TIP3    H274511   3.827   3.586  15.916  1.8110 -1.9421  3.6842
17674TIP3   OH274512   5.900   4.573   5.339 -0.3838 -0.0957  0.0108
17674TIP3    H174513   5.814   4.533   5.325 -0.8503  1.1068 -0.6873
17674TIP3    H274514   5.888   4.628   5.416 -0.3521  0.3910 -0.3314
17675TIP3   OH274515   3.907   3.011   6.244  0.3082 -0.0857  0.8030
17675TIP3    H174516   3.914   2.926   6.287  0.2307 -1.5274 -1.8301
17675TIP3    H274517   3.846   3.060   6.298  1.2317 -1.2431  3.0391
17676TIP3   OH274518   6.750   3.317  13.806 -0.8076  0.1622  0.0917
17676TIP3    H174519   6.802   3.295  13.883 -1.0997  1.0849  0.5698
17676TIP3    H274520   6.815   3.344  13.741 -0.5651 -0.5338  0.0425
17677TIP3   OH274521   3.787   6.660   3.146  0.9093  0.4621  0.2782
17677TIP3    H174522   3.771   6.572   3.113 -0.2013  0.0425  1.8711
17677TIP3    H274523   3.804   6.649   3.239  0.2703  1.9835  0.6058
17678TIP3   OH274524   2.982   6.057   3.609 -0.9091  0.4826 -0.0578
17678TIP3    H174525   3.021   6.122   3.551 -2.4468  1.0140 -0.5459
17678TIP3    H274526   2.953   6.107   3.686 -0.4017  0.0553  0.4195
17679TIP3   OH274527   2.545   2.558   0.370 -0.1555  0.1425 -0.4830
17679TIP3    H174528   2.608   2.629   0.367 -1.4648  1.3329 -0.9811
17679TIP3    H274529   2.460   2.601   0.385 -0.8812 -1.3810  0.0710
17680TIP3   OH274530   1.721   4.148  13.177  0.4176 -0.0324 -0.0011
17680TIP3    H174531   1.748   4.116  13.263  0.1728  1.5539  0.7124
17680TIP3    H274532   1.686   4.071  13.133 -1.6891 -0.4679  2.2193
17681TIP3   OH274533   1.581   2.534  12.201  0.1481 -0.3966 -0.3843
17681TIP3    H174534   1.641   2.534  12.276 -1.2526 -0.8161  0.7750
17681TIP3    H274535   1.618   2.468  12.142  1.5935  0.3549 -0.3689
17682TIP3   OH274536   0.650   6.310   0.534  0.3062 -0.4477 -0.0545
17682TIP3    H174537   0.740   6.278   0.528  0.2618 -0.3659 -1.5581
17682TIP3    H274538   0.659   6.400   0.567  0.6789 -0.7966  0.8369
17683TIP3   OH274539   1.196   6.205  16.509 -0.2016  0.4529 -0.1663
17683TIP3    H174540   1.121   6.264  16.504 -0.6028 -0.0200  0.0377
17683TIP3    H274541   1.166   6.125  16.465 -0.0208  0.0600  0.4090
17684TIP3   OH274542   3.318   4.423   5.644  0.1536  0.3211  0.0431
17684TIP3    H174543   3.339   4.511   5.675  0.4536 -0.3215  1.7867
17684TIP3    H274544   3.402   4.388   5.613  0.3093  0.1731  0.6251
17685TIP3   OH274545   0.867   4.313   4.339 -0.2663 -0.0290 -0.4168
17685TIP3    H174546   0.874   4.223   4.308  0.9208  0.2304 -0.9347
17685TIP3    H274547   0.773   4.332   4.335 -0.5215 -1.2177 -0.3503
17686TIP3   OH274548   0.446   1.034   6.206 -0.5400 -0.4451  0.5979
17686TIP3    H174549   0.434   0.955   6.257 -0.6101  0.1485  1.5274
17686TIP3    H274550   0.541   1.051   6.210 -0.7527  0.5946  2.1037
17687TIP3   OH274551   1.960   1.320   1.433  0.1827  0.1026  0.0739
17687TIP3    H174552   1.920   1.331   1.347  0.7656  0.9646 -0.0986
17687TIP3    H274553   1.968   1.225   1.443 -0.7343 -0.0361 -0.4157
17688TIP3   OH274554   4.098   3.662   6.376  0.2202 -0.1032 -0.0392
17688TIP3    H174555   4.145   3.635   6.455  2.7483  1.7117 -0.7717
17688TIP3    H274556   4.061   3.747   6.398 -1.1806 -0.6780 -0.0849
17689TIP3   OH274557   1.080   3.936   0.819  0.3933 -0.2003  0.4856
17689TIP3    H174558   1.075   3.915   0.726  1.5162 -1.5288  0.6878
17689TIP3    H274559   1.165   3.901   0.847  0.7114  1.4354  1.7169
17690TIP3   OH274560   3.781   4.200   0.751  0.1020  0.3021  0.0103
17690TIP3    H174561   3.820   4.182   0.837 -1.2223  0.1004  0.5954
17690TIP3    H274562   3.855   4.207   0.692  0.9496 -2.1969  0.6719
17691TIP3   OH274563   3.890   4.166  16.279 -0.6026 -0.0367 -0.2977
17691TIP3    H174564   3.815   4.145  16.334 -1.8029 -0.6173 -2.0698
17691TIP3    H274565   3.951   4.210  16.338 -1.0865 -2.0734  1.8728
17692TIP3   OH274566   2.338   1.285  14.243  0.1066 -0.2440 -0.9296
17692TIP3    H174567   2.332   1.273  14.149 -0.0526 -1.4409 -0.7826
17692TIP3    H274568   2.391   1.211  14.273  0.7491  0.5081 -0.1601
17693TIP3   OH274569   3.628   6.053  14.786 -0.2434  0.0796 -0.0378
17693TIP3    H174570   3.660   6.045  14.876 -2.0897 -0.8762  0.5662
17693TIP3    H274571   3.606   6.146  14.777 -0.2382  0.1447  0.5519
17694TIP3   OH274572   6.405   0.628   5.372 -0.3130 -0.2925 -0.6314
17694TIP3    H174573   6.469   0.679   5.421  0.2992 -0.4322 -1.2675
17694TIP3    H274574   6.447   0.544   5.357 -1.5063 -1.2035  0.8334
17695TIP3   OH274575   6.327   0.415  16.769  0.2350  0.1762 -0.2020
17695TIP3    H174576   6.258   0.391  16.830  0.1597 -0.6346 -0.5964
17695TIP3    H274577   6.341   0.508  16.785 -2.7184  1.0498 -1.8135
17696TIP3   OH274578   0.213   2.717   0.896  0.5932 -0.4090  0.1466
17696TIP3    H174579   0.207   2.630   0.857 -0.8025 -0.2813  0.0109
17696TIP3    H274580   0.220   2.776   0.821  3.2447 -0.4506  0.2599
17697TIP3   OH274581   3.246   6.553   0.513 -0.5840 -0.0138 -0.3410
17697TIP3    H174582   3.184   6.605   0.462 -0.3376  1.1618  0.5264
17697TIP3    H274583   3.202   6.469   0.524 -0.9339 -0.0606 -1.8796
17698TIP3   OH274584   4.206   3.678  15.552 -0.1413 -0.0985 -0.3315
17698TIP3    H174585   4.149   3.730  15.496 -1.6570 -1.9114 -0.5885
17698TIP3    H274586   4.179   3.699  15.641 -0.5967 -0.2797 -0.4259
17699TIP3   OH274587   1.579   3.630   6.041  0.1526 -0.2407  0.1104
17699TIP3    H174588   1.661   3.653   6.086 -0.3372  0.6620  0.5510
17699TIP3    H274589   1.521   3.600   6.111 -0.1423 -0.1802 -0.1085
17700TIP3   OH274590   2.722   1.232   3.199  0.0608 -0.1884  0.4191
17700TIP3    H174591   2.724   1.328   3.199 -1.6499 -0.1094  0.1849
17700TIP3    H274592   2.711   1.208   3.107 -3.1815 -0.3859  0.7416
17701TIP3   OH274593   2.820   5.811   1.891  0.2070  0.5447 -0.4322
17701TIP3    H174594   2.742   5.767   1.858 -1.2551  2.0642  0.8286
17701TIP3    H274595   2.867   5.745   1.941  0.0770 -0.5579 -1.7258
17702TIP3   OH274596   3.105   3.757  14.187 -0.3123 -0.5497 -0.7198
17702TIP3    H174597   3.067   3.844  14.191 -1.3462 -1.0215 -0.0771
17702TIP3    H274598   3.165   3.753  14.261 -0.1548 -0.3446 -0.8343
17703TIP3   OH274599   6.067   3.135   1.392 -0.6130 -0.5157  0.1628
17703TIP3    H174600   6.000   3.195   1.425 -0.4655 -1.1563  1.6929
17703TIP3    H274601   6.019   3.074   1.336 -1.6281 -1.8169  2.3161
17704TIP3   OH274602   6.658   4.977   1.294  0.5386 -0.0392  0.0603
17704TIP3    H174603   6.587   4.963   1.231 -0.1831 -0.1743  0.8888
17704TIP3    H274604   6.619   5.031   1.363  1.3842  0.3032  0.2810
17705TIP3   OH274605   5.340   3.463   5.433 -0.1129 -0.6810 -0.0380
17705TIP3    H174606   5.430   3.487   5.414 -0.3504  0.3096  0.0291
17705TIP3    H274607   5.324   3.385   5.379  0.2470  0.1687 -1.4364
17706TIP3   OH274608   3.227   6.201  11.577 -0.3829  0.4319 -0.0552
17706TIP3    H174609   3.192   6.262  11.512 -0.2125 -0.5707 -1.1225
17706TIP3    H274610   3.321   6.203  11.563 -0.4339 -0.5746 -0.5480
17707TIP3   OH274611   3.573   2.058  12.945  0.3472 -0.2250  0.4426
17707TIP3    H174612   3.484   2.086  12.967  0.5195 -0.0402  0.9158
17707TIP3    H274613   3.594   1.992  13.011  0.1989 -0.9787 -0.2528
17708TIP3   OH274614   2.004   4.395   3.992  0.2527 -1.0926  0.1621
17708TIP3    H174615   1.988   4.384   3.899 -0.8042 -0.6197  0.2742
17708TIP3    H274616   2.089   4.439   3.997 -0.7288  1.0400 -0.7012
17709TIP3   OH274617   1.647   2.948   2.118  0.6132  0.2624  0.2727
17709TIP3    H174618   1.673   3.041   2.121 -0.0831  0.4713  0.0163
17709TIP3    H274619   1.572   2.946   2.060 -1.3033  0.0096  2.6131
17710TIP3   OH274620   5.489   6.540   0.019 -0.1670  0.3783  1.3358
17710TIP3    H174621   5.437   6.476   0.066  0.7811 -0.2438  1.5611
17710TIP3    H274622   5.579   6.523   0.046  0.3312  0.4287 -0.1967
17711TIP3   OH274623   2.867   3.162  13.694 -0.2492  0.1189  0.1907
17711TIP3    H174624   2.917   3.211  13.629 -0.0097  1.2006  1.1544
17711TIP3    H274625   2.782   3.148  13.653 -0.2253  1.1095 -0.2267
17712TIP3   OH274626   1.291   0.723  10.805 -0.2392 -0.1555  0.8092
17712TIP3    H174627   1.328   0.808  10.781 -0.2010 -0.5446 -0.5957
17712TIP3    H274628   1.210   0.745  10.852 -0.4572  0.6734  0.0793
17713TIP3   OH274629   1.018   6.531   0.658 -0.1320  0.2021 -0.5291
17713TIP3    H174630   1.111   6.509   0.667 -0.1505  0.4153  0.2471
17713TIP3    H274631   0.979   6.509   0.743 -0.9026 -0.4083 -1.0285
17714TIP3   OH274632   0.990   3.905  14.481  0.4711  0.6333  0.0250
17714TIP3    H174633   1.038   3.955  14.415 -0.3541  0.6785 -0.5584
17714TIP3    H274634   1.025   3.816  14.475  1.3968  0.9501  0.5262
17715TIP3   OH274635   0.545   4.605   0.515  0.3221 -0.5375 -0.9747
17715TIP3    H174636   0.458   4.600   0.553  0.2746 -1.8306 -1.2151
17715TIP3    H274637   0.578   4.691   0.542 -0.4543 -0.6329  0.3388
17716TIP3   OH274638   1.258   4.094   6.238 -0.7217  0.4016  0.0708
17716TIP3    H174639   1.239   4.164   6.300  2.0030  2.9671 -1.7105
17716TIP3    H274640   1.226   4.126   6.154  0.6132 -0.4157 -0.8000
17717TIP3   OH274641   1.983   3.061  14.270  0.1408  0.3568 -0.5144
17717TIP3    H174642   1.935   2.996  14.219 -0.6329  0.7619 -0.3150
17717TIP3    H274643   2.044   3.100  14.207  1.8969 -1.7791 -0.2341
17718TIP3   OH274644   1.276   6.571  16.536 -0.0435 -0.2473 -0.1645
17718TIP3    H174645   1.327   6.584  16.456 -0.4049 -1.9493 -0.7161
17718TIP3    H274646   1.299   6.483  16.565  0.2635  0.4335  1.7755
17719TIP3   OH274647   1.961   6.466  15.543  0.3623  0.5558 -0.0960
17719TIP3    H174648   1.987   6.423  15.624  0.2851 -2.5896 -1.5591
17719TIP3    H274649   1.865   6.467  15.545  0.3552  0.2765 -0.2212
17720TIP3   OH274650   1.193   0.980   4.645 -0.4378  0.2931 -0.0622
17720TIP3    H174651   1.275   0.959   4.690 -0.2316  1.0871 -0.0437
17720TIP3    H274652   1.129   0.920   4.681  0.1367 -0.3305 -0.0640
17721TIP3   OH274653   6.225   2.467  16.380  0.3684  0.2367  0.2234
17721TIP3    H174654   6.226   2.384  16.333  0.7496 -0.5829  1.6226
17721TIP3    H274655   6.173   2.525  16.325  0.6474 -0.7279 -1.1001
17722TIP3   OH274656   1.488   6.824   6.312 -0.0762  0.6413 -0.0080
17722TIP3    H174657   1.472   6.918   6.306  1.3080  0.8753 -0.4302
17722TIP3    H274658   1.490   6.794   6.221  1.0226  0.5081  0.0419
17723TIP3   OH274659   4.391   2.597   0.024  0.0885 -0.0474 -0.3237
17723TIP3    H174660   4.312   2.620  -0.025 -1.1408 -1.0317  1.1094
17723TIP3    H274661   4.433   2.529  -0.029 -1.2961 -1.2141  0.0294
17724TIP3   OH274662   0.780   3.071   1.442  0.5403 -0.5255 -0.1039
17724TIP3    H174663   0.827   3.094   1.523  2.3851 -0.9020 -1.0044
17724TIP3    H274664   0.759   2.978   1.452  0.7878 -0.5777 -0.0611
17725TIP3   OH274665   3.927   0.726   0.470 -0.1430 -0.1539  0.1569
17725TIP3    H174666   3.909   0.644   0.516  2.4708 -0.2206  1.2690
17725TIP3    H274667   3.993   0.703   0.405  0.3210  0.9669  0.2008
17726TIP3   OH274668   2.790   4.043   4.853  0.5199 -0.0603 -0.2717
17726TIP3    H174669   2.697   4.021   4.862  1.0446 -2.3610  0.0248
17726TIP3    H274670   2.829   3.965   4.815  2.9215 -0.4755  2.7510
17727TIP3   OH274671   4.541   0.673   5.216 -0.5037 -0.2527 -0.3655
17727TIP3    H174672   4.472   0.614   5.248 -2.4911  1.2131 -1.6992
17727TIP3    H274673   4.600   0.616   5.168 -1.7939 -1.3274 -0.7367
17728TIP3   OH274674   1.083   5.784  11.405  0.0113  0.1364  0.3785
17728TIP3    H174675   1.160   5.730  11.421 -1.1958 -1.7199  0.2285
17728TIP3    H274676   1.067   5.777  11.311  0.1491  1.2283  0.2627
17729TIP3   OH274677   4.606   2.261  13.646  0.0865  0.1475 -0.1793
17729TIP3    H174678   4.697   2.252  13.674 -0.0763 -1.5281 -0.1001
17729TIP3    H274679   4.612   2.300  13.559  0.9354 -0.6613 -0.5022
17730TIP3   OH274680   1.246   3.823   2.765 -0.2810 -0.2244 -0.6331
17730TIP3    H174681   1.215   3.732   2.758  0.7048 -0.7420  1.0464
17730TIP3    H274682   1.166   3.876   2.756 -1.3549 -1.4060  1.1743
17731TIP3   OH274683   1.446   3.852   3.639  0.2792 -0.5768 -1.0038
17731TIP3    H174684   1.515   3.795   3.673 -0.6084 -2.0052 -1.4869
17731TIP3    H274685   1.492   3.918   3.587  1.4620  0.2061  0.9324
17732TIP3   OH274686   1.271   6.286   3.531  0.6625  0.3600 -0.5044
17732TIP3    H174687   1.354   6.288   3.483 -0.2146 -0.3291 -2.1181
17732TIP3    H274688   1.283   6.217   3.597  1.4809  0.4809 -0.5198
17733TIP3   OH274689   0.571   0.306  10.547 -0.3404 -0.0073 -0.4453
17733TIP3    H174690   0.625   0.350  10.481 -0.6241 -0.5284 -1.0313
17733TIP3    H274691   0.484   0.342  10.535 -1.4050 -2.9618 -3.1824
17734TIP3   OH274692   1.765   5.824   0.239  0.4647  0.2817 -0.2703
17734TIP3    H174693   1.769   5.850   0.331 -0.5773  0.0449 -0.1408
17734TIP3    H274694   1.768   5.728   0.240  1.6083  0.3019 -0.5693
17735TIP3   OH274695   4.325   2.825  12.942 -0.0176 -0.2257  0.6636
17735TIP3    H174696   4.240   2.846  12.904  0.4534  0.2203 -0.1646
17735TIP3    H274697   4.327   2.729  12.943 -0.3526 -0.2408  0.2834
17736TIP3   OH274698   2.684   4.572  13.105 -0.3075 -0.0816  0.2695
17736TIP3    H174699   2.770   4.602  13.076  1.1638 -2.5220  1.7968
17736TIP3    H274700   2.646   4.531  13.027 -0.0048  0.7731 -0.3445
17737TIP3   OH274701   6.020   4.257  14.492 -0.9184  0.4616  0.7069
17737TIP3    H174702   6.020   4.164  14.513 -2.1761  0.5226  1.0534
17737TIP3    H274703   6.113   4.282  14.493 -0.5778 -0.7653  0.6607
17738TIP3   OH274704   5.846   1.268  15.392 -0.3064  0.1492  0.1579
17738TIP3    H174705   5.834   1.174  15.380  1.3235  0.1554 -1.9651
17738TIP3    H274706   5.781   1.308  15.334  0.5529  0.3048 -0.7015
17739TIP3   OH274707   4.218   2.080   1.116 -0.6729  0.5418 -0.6222
17739TIP3    H174708   4.274   2.046   1.186 -0.1268  1.4499 -0.5980
17739TIP3    H274709   4.235   2.022   1.042  0.0675  0.6099 -0.5185
17740TIP3   OH274710   5.989   1.418  15.605  0.0506 -0.1321  0.0824
17740TIP3    H174711   6.081   1.429  15.579 -0.1220  0.6963 -0.2131
17740TIP3    H274712   5.944   1.396  15.523 -0.0039 -0.6341  0.2442
17741TIP3   OH274713   3.539   6.631   2.861 -0.3243 -0.5701  0.2179
17741TIP3    H174714   3.560   6.538   2.868 -0.1818 -0.5828 -0.3282
17741TIP3    H274715   3.621   6.676   2.884 -0.7232 -0.5484  1.6760
17742TIP3   OH274716   2.509   4.412   4.988  0.4667 -0.4737  0.4643
17742TIP3    H174717   2.528   4.500   4.958  0.3580 -0.1076  1.4154
17742TIP3    H274718   2.591   4.363   4.974  0.3465 -0.3919 -0.6045
17743TIP3   OH274719   2.296   0.878  14.684 -0.5171 -0.4829 -0.1772
17743TIP3    H174720   2.205   0.859  14.703 -1.2502  2.6741 -0.0458
17743TIP3    H274721   2.323   0.941  14.751  1.1197  0.1983 -1.3993
17744TIP3   OH274722   3.355   2.572   1.976 -0.0454 -0.1499 -0.4380
17744TIP3    H174723   3.430   2.574   2.035  0.0357 -0.3177 -0.5343
17744TIP3    H274724   3.391   2.541   1.893 -0.3968 -1.1598 -0.2259
17745TIP3   OH274725   3.481   2.191   4.845  0.0681 -0.2950  0.1803
17745TIP3    H174726   3.426   2.191   4.767  0.9931 -2.2095 -0.5218
17745TIP3    H274727   3.468   2.105   4.884  0.0443  0.4269  1.8717
17746TIP3   OH274728   3.367   5.219   4.013  0.1391  0.3100 -0.3176
17746TIP3    H174729   3.410   5.300   4.041  1.4847 -0.2036 -0.8024
17746TIP3    H274730   3.277   5.229   4.041  0.8541  0.8741  1.9653
17747TIP3   OH274731   6.034   1.276  15.875  0.3335 -0.4239 -0.2737
17747TIP3    H174732   6.020   1.352  15.819  2.2630  0.9154  0.9124
17747TIP3    H274733   5.948   1.256  15.912 -0.1214  1.6038 -0.1267
17748TIP3   OH274734   5.635   4.778  12.450 -0.5284 -0.0314 -0.1145
17748TIP3    H174735   5.702   4.846  12.458 -1.3455  0.9462 -1.2022
17748TIP3    H274736   5.667   4.707  12.505  1.6773  0.1727 -1.0096
17749TIP3   OH274737   3.493   3.889   0.869 -0.2836  0.0516  0.2807
17749TIP3    H174738   3.526   3.977   0.852  5.1448 -1.6886 -0.1638
17749TIP3    H274739   3.468   3.856   0.782 -1.7139  0.8381  0.3614
17750TIP3   OH274740   1.027   2.419  15.732  0.6490  0.1311  0.4997
17750TIP3    H174741   1.112   2.440  15.771  0.2295 -0.2710  1.6702
17750TIP3    H274742   1.049   2.375  15.650  1.5866 -0.5149  1.0711
17751TIP3   OH274743   6.654   3.523   1.145 -0.0265  0.2647 -0.6615
17751TIP3    H174744   6.581   3.463   1.131 -0.4618  0.7169 -0.3756
17751TIP3    H274745   6.677   3.513   1.237  1.4662 -1.1835 -1.1473
17752TIP3   OH274746   3.995   2.413   2.980  0.7728 -0.2653 -0.0405
17752TIP3    H174747   3.997   2.322   2.950 -0.8060 -0.5798  0.7173
17752TIP3    H274748   3.962   2.408   3.069 -0.4382  1.1328 -0.3796
17753TIP3   OH274749   2.822   6.151  15.038 -0.5900 -0.9620 -0.5875
17753TIP3    H174750   2.804   6.151  15.132  1.3217  0.3677 -0.1535
17753TIP3    H274751   2.845   6.242  15.019 -1.2277 -1.1502 -2.4313
17754TIP3   OH274752   4.390   0.268   1.608  0.3575 -0.1099  0.0263
17754TIP3    H174753   4.427   0.214   1.677  1.2135  0.2732 -0.1225
17754TIP3    H274754   4.466   0.296   1.556  0.1708  2.6900  1.1205
17755TIP3   OH274755   6.514   3.046   4.853  0.7945 -0.0377  0.2112
17755TIP3    H174756   6.430   3.019   4.889  1.7427 -0.5168  2.2627
17755TIP3    H274757   6.516   3.009   4.765 -0.8513 -0.5949  0.3777
17756TIP3   OH274758   4.038   3.959  14.033 -0.4578  0.1941  0.2709
17756TIP3    H174759   3.955   3.957  13.986 -0.8410 -0.0147  0.9440
17756TIP3    H274760   4.036   4.042  14.081 -0.9733 -0.4862  1.4891
17757TIP3   OH274761   5.299   6.306   3.367  0.4203 -0.9042 -0.0509
17757TIP3    H174762   5.240   6.356   3.424  3.5351  1.7158  1.1801
17757TIP3    H274763   5.342   6.244   3.426  0.6683 -1.0758 -0.4106
17758TIP3   OH274764   5.411   0.127  15.347 -0.0696 -0.5245 -0.0890
17758TIP3    H174765   5.318   0.129  15.370 -0.0303 -0.5013  0.0720
17758TIP3    H274766   5.418   0.062  15.277 -0.1865 -0.6213 -0.0095
17759TIP3   OH274767   3.670   5.437  16.480  0.0472  0.0600  0.6013
17759TIP3    H174768   3.730   5.512  16.478 -0.9459  0.9325  2.1717
17759TIP3    H274769   3.606   5.456  16.411 -0.6694  1.1022  1.5175
17760TIP3   OH274770   5.445   4.637   5.367  0.3877  0.0283 -0.5519
17760TIP3    H174771   5.516   4.573   5.368 -0.1196 -0.5449 -0.4242
17760TIP3    H274772   5.485   4.717   5.402  1.2064 -0.0098 -1.3630
17761TIP3   OH274773   3.097   0.155  16.262  0.0660 -0.1310 -0.3235
17761TIP3    H174774   3.087   0.235  16.211  0.0169  0.2230  0.2317
17761TIP3    H274775   3.007   0.123  16.273  0.0709 -0.1710 -0.3953
17762TIP3   OH274776   2.497   0.412   2.794  0.1767 -0.6518 -0.4935
17762TIP3    H174777   2.495   0.332   2.846  0.0623 -0.7816 -0.6992
17762TIP3    H274778   2.494   0.483   2.859  0.0117 -0.8128 -0.3253
17763TIP3   OH274779   1.505   1.004   3.593 -0.7379  0.4234 -0.5351
17763TIP3    H174780   1.579   1.030   3.648 -0.9538  0.1835 -0.1267
17763TIP3    H274781   1.545   0.969   3.513 -0.2831 -2.2656  0.7566
17764TIP3   OH274782   4.599   1.826  15.780  0.3069  0.5164  0.5147
17764TIP3    H174783   4.685   1.791  15.805 -0.3406 -0.8550  0.9286
17764TIP3    H274784   4.572   1.772  15.705 -0.8798 -0.1713  1.3947
17765TIP3   OH274785   5.779   4.385  16.144  0.0325  0.5714  0.2125
17765TIP3    H174786   5.788   4.438  16.065  1.1505  1.8257  1.1408
17765TIP3    H274787   5.685   4.385  16.162 -0.1057  1.2551 -0.4616
17766TIP3   OH274788   4.166   5.671   5.839 -0.0088  0.0650 -0.0731
17766TIP3    H174789   4.137   5.582   5.856  0.8838 -0.8901 -2.9213
17766TIP3    H274790   4.255   5.662   5.807 -0.1868  1.8724 -1.2558
17767TIP3   OH274791   4.831   6.202  16.639 -0.4257 -0.3511 -0.3867
17767TIP3    H174792   4.791   6.276  16.683 -0.3788 -0.5430 -0.0184
17767TIP3    H274793   4.892   6.166  16.703  0.5092  0.0723 -1.0172
17768TIP3   OH274794   4.320   5.986  12.138 -0.1906  0.0258  0.3308
17768TIP3    H174795   4.398   5.951  12.181  0.1238  0.5932  0.2248
17768TIP3    H274796   4.347   6.003  12.048 -0.4961  0.0299  0.2376
17769TIP3   OH274797   1.872   0.269  11.299  0.0915 -0.4505  0.4708
17769TIP3    H174798   1.887   0.256  11.206 -1.6628  3.6484 -0.5814
17769TIP3    H274799   1.960   0.282  11.336  0.6627  0.8326 -1.2193
17770TIP3   OH274800   1.309   5.416  10.649 -0.2449 -0.0779  0.1733
17770TIP3    H174801   1.325   5.492  10.706  0.1190  1.2153 -1.5775
17770TIP3    H274802   1.327   5.448  10.561 -0.4143 -2.1371 -0.6548
17771TIP3   OH274803   2.078   4.422   0.912  0.2577 -0.2632  0.1351
17771TIP3    H174804   2.137   4.358   0.873 -0.6492 -0.3955 -1.0582
17771TIP3    H274805   1.998   4.417   0.860  0.4615  2.4967 -0.5901
17772TIP3   OH274806   2.949   4.931  11.463  0.0213 -0.2456  0.5021
17772TIP3    H174807   2.981   4.997  11.524  0.5433 -0.8207  0.8554
17772TIP3    H274808   3.027   4.884  11.435 -0.2791 -0.3333 -0.2050
17773TIP3   OH274809   1.601   0.031   4.885 -0.3026 -0.0581  0.4250
17773TIP3    H174810   1.509   0.058   4.875  0.2809  1.3325 -1.8925
17773TIP3    H274811   1.619   0.041   4.979 -2.3929 -0.0020  0.8718
17774TIP3   OH274812   0.840   4.381  13.499 -0.1414  0.5601 -0.1612
17774TIP3    H174813   0.853   4.398  13.406  1.0003 -0.1582 -0.1566
17774TIP3    H274814   0.925   4.398  13.539  0.0657 -1.4416  0.3667
17775TIP3   OH274815   5.633   3.158   3.630 -0.2465 -0.4109 -0.6686
17775TIP3    H174816   5.636   3.101   3.553 -0.3763 -0.6571 -0.4922
17775TIP3    H274817   5.549   3.137   3.672  1.1101 -2.4809  1.2135
17776TIP3   OH274818   1.977   6.600   6.302 -0.1309 -0.2745  0.2856
17776TIP3    H174819   1.988   6.636   6.214  2.9247  0.3346  0.7938
17776TIP3    H274820   1.945   6.674   6.354  1.2773  0.3732  0.2945
17777TIP3   OH274821   0.366   5.967  16.370 -0.5167 -0.0637  0.8992
17777TIP3    H174822   0.459   5.986  16.353  0.0845 -3.1138  0.0099
17777TIP3    H274823   0.335   6.039  16.424  2.4816  0.8847  1.5178
17778TIP3   OH274824   2.885   6.555  16.295  0.5493  0.4770 -0.2663
17778TIP3    H174825   2.904   6.589  16.208 -0.6820  1.3849 -0.2178
17778TIP3    H274826   2.923   6.467  16.296 -0.3245  0.0289 -2.0958
17779TIP3   OH274827   6.715   2.875   1.551  0.9147 -0.0066 -0.0631
17779TIP3    H174828   6.742   2.802   1.606 -1.9307 -0.2910  1.1288
17779TIP3    H274829   6.672   2.936   1.611  1.0259  1.4955 -1.4335
17780TIP3   OH274830   3.986   4.328  10.510  0.0257 -0.0556 -0.5145
17780TIP3    H174831   4.036   4.354  10.587 -0.2632 -2.6423  0.6601
17780TIP3    H274832   4.039   4.259  10.469 -1.9220 -2.0525  0.1267
17781TIP3   OH274833   0.729   5.088   3.571 -0.3690 -0.1718 -0.3812
17781TIP3    H174834   0.702   5.180   3.572 -1.1626 -0.3944 -0.1894
17781TIP3    H274835   0.823   5.090   3.590 -0.0026  0.7062 -2.1085
17782TIP3   OH274836   4.278   3.083   1.808  0.4712  0.2792 -0.0074
17782TIP3    H174837   4.310   3.008   1.757 -0.2745  1.4910 -2.3977
17782TIP3    H274838   4.188   3.059   1.832 -0.1049  0.7447 -1.5967
17783TIP3   OH274839   5.222   4.772   1.191 -0.5120  0.1139  0.0196
17783TIP3    H174840   5.261   4.853   1.224  0.2092 -0.2282  0.0172
17783TIP3    H274841   5.135   4.770   1.230 -0.3202  0.5966  0.4818
17784TIP3   OH274842   1.635   6.677  12.448  0.3332 -0.2516  0.0717
17784TIP3    H174843   1.570   6.640  12.509 -1.4780  1.8341 -0.4728
17784TIP3    H274844   1.656   6.762  12.485  1.1335 -0.0127 -0.9130
17785TIP3   OH274845   3.946   3.301  11.209  0.3870 -0.3263 -0.0210
17785TIP3    H174846   4.007   3.254  11.152  2.3157  0.5363  1.1954
17785TIP3    H274847   4.000   3.326  11.285 -1.6900 -0.1249  1.4629
17786TIP3   OH274848   5.259   1.953   0.862  0.0194 -0.4657 -0.2994
17786TIP3    H174849   5.291   1.999   0.784  1.3172  1.5805  1.3543
17786TIP3    H274850   5.333   1.900   0.891 -0.0338 -0.2416  0.2530
17787TIP3   OH274851   4.598   6.644   0.192 -0.0970 -0.1336  0.0262
17787TIP3    H174852   4.558   6.559   0.211 -0.8567 -0.2658 -1.8589
17787TIP3    H274853   4.524   6.704   0.184  0.4076  0.6262  0.9414
17788TIP3   OH274854   2.164   1.434   1.577 -0.1226 -0.1012  0.5882
17788TIP3    H174855   2.149   1.505   1.514  0.3773 -0.2489  0.2964
17788TIP3    H274856   2.094   1.371   1.559  1.1353 -1.0717 -1.1661
17789TIP3   OH274857   1.293   2.405   5.976  0.9107 -0.9883  0.1023
17789TIP3    H174858   1.313   2.492   5.942  0.5610 -0.7395  0.5233
17789TIP3    H274859   1.215   2.418   6.030  1.0215 -1.5103  0.3934
17790TIP3   OH274860   3.906   2.191  13.437 -0.0419 -0.2998  0.0400
17790TIP3    H174861   3.816   2.171  13.410 -1.1231  3.5854  0.1546
17790TIP3    H274862   3.909   2.170  13.530 -0.2319 -2.0633 -0.3201
17791TIP3   OH274863   1.049   6.040   2.340 -0.4609 -0.4195  0.3721
17791TIP3    H174864   1.066   6.079   2.426  1.5312  0.1486 -0.2086
17791TIP3    H274865   0.987   6.099   2.298  0.5678  0.7828  0.4717
17792TIP3   OH274866   4.259   6.489   5.938 -0.2545 -0.1001 -0.1974
17792TIP3    H174867   4.203   6.472   6.015 -0.8867  0.4892 -0.5149
17792TIP3    H274868   4.342   6.447   5.960 -0.1603  0.7177  1.1493
17793TIP3   OH274869   0.278   0.369   3.491 -0.6715  0.0530  0.7542
17793TIP3    H174870   0.292   0.331   3.404  0.2470  1.9778 -0.0183
17793TIP3    H274871   0.268   0.294   3.549 -1.6063 -1.3011 -1.0464
17794TIP3   OH274872   1.581   0.279  14.736 -0.3093 -0.2978  0.1316
17794TIP3    H174873   1.622   0.244  14.657  1.2327 -0.3377  0.9150
17794TIP3    H274874   1.654   0.312  14.788 -1.3873  0.6377  1.1034
17795TIP3   OH274875   4.170   3.157   0.899  0.1666  0.0835 -0.1286
17795TIP3    H174876   4.114   3.188   0.970 -0.8596  0.8178 -1.2108
17795TIP3    H274877   4.257   3.189   0.921  0.4217 -1.8733  2.0736
17796TIP3   OH274878   5.691   4.662   1.439 -0.4769  0.2806 -0.0721
17796TIP3    H174879   5.709   4.728   1.506 -0.4028  0.2506 -0.0628
17796TIP3    H274880   5.768   4.663   1.382 -0.2020 -0.2353  0.2825
17797TIP3   OH274881   6.007   5.029  11.751 -0.1939  0.1139  0.1014
17797TIP3    H174882   5.978   5.118  11.734 -1.6662 -0.6391 -1.6984
17797TIP3    H274883   6.095   5.039  11.788  0.6261  2.2659 -2.1371
17798TIP3   OH274884   1.142   5.490  14.384 -0.3537 -0.3098  0.4134
17798TIP3    H174885   1.092   5.541  14.448 -1.9921 -0.0131 -0.9938
17798TIP3    H274886   1.077   5.432  14.344  0.6272 -0.5638 -0.8756
17799TIP3   OH274887   2.503   5.968   4.596  0.1055  0.1448 -0.5132
17799TIP3    H174888   2.516   5.888   4.545  0.0065 -0.4894  0.4189
17799TIP3    H274889   2.557   5.955   4.674 -0.5512  0.6221  0.0376
17800TIP3   OH274890   0.271   2.728   6.146 -0.7976 -0.9607  0.1665
17800TIP3    H174891   0.201   2.777   6.189 -1.2406  1.6071 -3.0434
17800TIP3    H274892   0.231   2.695   6.065  1.6787  1.2824 -2.1819
17801TIP3   OH274893   6.536   4.775  17.116 -0.2031 -0.3908 -0.2676
17801TIP3    H174894   6.586   4.697  17.094  0.8184  0.0421  0.3726
17801TIP3    H274895   6.597   4.827  17.169 -1.1413  0.4535  0.0116
17802TIP3   OH274896   6.300   2.154   0.492 -0.6513  0.7514  0.1451
17802TIP3    H174897   6.260   2.183   0.410  0.4854 -2.1388 -1.5831
17802TIP3    H274898   6.232   2.102   0.535 -0.0864 -1.0307 -0.9836
17803TIP3   OH274899   5.491   5.862  14.874  0.1613 -0.2685 -0.5781
17803TIP3    H174900   5.486   5.796  14.944 -0.5230  0.4332  0.0554
17803TIP3    H274901   5.460   5.816  14.796 -1.0320 -0.5175  0.0107
17804TIP3   OH274902   4.910   3.144   3.934  0.2697  0.0769 -0.0440
17804TIP3    H174903   4.909   3.199   3.855 -0.0945  1.2035  0.7154
17804TIP3    H274904   4.838   3.178   3.987  2.0907  1.0668  1.9121
17805TIP3   OH274905   1.816   2.142   1.154  0.2221  0.5186 -0.3799
17805TIP3    H174906   1.813   2.237   1.170 -0.6043  0.0655  2.8032
17805TIP3    H274907   1.880   2.110   1.218 -0.8785 -1.2516 -0.1158
17806TIP3   OH274908   1.878   2.423   0.331 -0.1812  0.1856  0.0901
17806TIP3    H174909   1.799   2.384   0.370 -0.5930  1.8567  1.0008
17806TIP3    H274910   1.916   2.352   0.280 -0.6701 -1.5508  1.9952
17807TIP3   OH274911   0.667   5.745  15.131  0.7052  0.1340  0.2915
17807TIP3    H174912   0.753   5.779  15.106  0.3794  0.9561  0.2646
17807TIP3    H274913   0.686   5.662  15.175  1.4017 -0.5726 -1.2386
17808TIP3   OH274914   3.623   0.113  12.674 -0.2522 -0.8128  0.1423
17808TIP3    H174915   3.623   0.120  12.578  1.5609 -0.8602  0.0942
17808TIP3    H274916   3.550   0.055  12.694  0.2584 -2.0624 -1.3567
17809TIP3   OH274917   0.665   6.363   4.932 -0.2236 -0.9878  0.2269
17809TIP3    H174918   0.602   6.293   4.954  0.7122 -1.0433  3.1437
17809TIP3    H274919   0.611   6.436   4.903 -1.3589 -2.2038 -0.8544
17810TIP3   OH274920   6.537   4.318  14.245  0.4750  0.0872 -0.1903
17810TIP3    H174921   6.628   4.324  14.216  0.4534 -0.1038 -0.3032
17810TIP3    H274922   6.508   4.408  14.254  0.6615  0.1481 -0.2052
17811TIP3   OH274923   5.065   4.637   2.999 -0.3256  0.0147 -0.4017
17811TIP3    H174924   5.143   4.685   2.968 -1.8257  1.3241 -2.3873
17811TIP3    H274925   5.000   4.651   2.931 -1.9554 -2.0926  0.6119
17812TIP3   OH274926   1.215   0.988  16.359  0.4297 -0.3677 -0.3695
17812TIP3    H174927   1.239   1.077  16.335  2.3087 -0.9771 -1.0148
17812TIP3    H274928   1.291   0.955  16.407 -0.4086 -1.4720  0.2465
17813TIP3   OH274929   0.705   2.406  16.988 -0.4114 -0.5108  0.1694
17813TIP3    H174930   0.630   2.441  16.942  0.1573  0.1844 -0.2509
17813TIP3    H274931   0.694   2.436  17.079 -0.6762 -0.4760  0.1232
17814TIP3   OH274932   5.545   0.282   2.511  0.0098 -0.0738  0.2131
17814TIP3    H174933   5.554   0.235   2.594  2.1470 -0.0386  0.0460
17814TIP3    H274934   5.550   0.375   2.536  1.6272 -0.0779 -0.0184
17815TIP3   OH274935   4.969   3.291   3.538  0.3177  0.0630  0.5199
17815TIP3    H174936   4.965   3.248   3.452  0.5677 -2.5790  1.7291
17815TIP3    H274937   5.058   3.275   3.568  0.3523  1.3007  1.1509
17816TIP3   OH274938   0.639   2.998   5.493 -0.8686  0.4460 -0.3791
17816TIP3    H174939   0.613   3.043   5.573 -1.8108  1.0163 -0.9861
17816TIP3    H274940   0.734   3.010   5.489 -1.0658  2.2656 -0.4302
17817TIP3   OH274941   5.928   3.766   4.978  0.1227 -0.7822 -0.5396
17817TIP3    H174942   6.024   3.759   4.974  0.1703  0.3492 -3.0814
17817TIP3    H274943   5.899   3.677   4.997  1.6530 -0.9728  1.2725
17818TIP3   OH274944   1.740   0.299   3.119  0.3019 -0.1424  0.5020
17818TIP3    H174945   1.669   0.241   3.093 -0.4879  1.0334 -0.0388
17818TIP3    H274946   1.809   0.282   3.054 -0.0146 -0.2869  0.2010
17819TIP3   OH274947   6.297   0.356   6.295  0.2287 -0.0081 -0.1602
17819TIP3    H174948   6.250   0.337   6.376  1.3265  1.2499  0.8300
17819TIP3    H274949   6.325   0.447   6.305  0.5773  0.1099 -1.8806
17820TIP3   OH274950   3.013   1.777  11.545 -0.9158  0.4589  0.7957
17820TIP3    H174951   3.031   1.725  11.623  3.2494  1.4063  0.7303
17820TIP3    H274952   3.006   1.867  11.576  1.0609  0.8841  0.1889
17821TIP3   OH274953   5.906   5.706  14.267  0.8582 -0.0316 -0.6113
17821TIP3    H174954   5.932   5.722  14.357  2.3998 -0.4476 -0.9554
17821TIP3    H274955   5.966   5.638  14.236  0.2812  0.0151 -1.9124
17822TIP3   OH274956   6.682   5.337  11.598 -0.3242 -0.2856 -0.6592
17822TIP3    H174957   6.748   5.316  11.532  1.1096 -0.0431  0.6383
17822TIP3    H274958   6.701   5.278  11.671 -0.6351  0.7531  0.2858
17823TIP3   OH274959   3.953   4.726  15.053 -0.0590 -0.1805  0.0108
17823TIP3    H174960   3.980   4.638  15.079 -0.3824 -0.9533 -2.0943
17823TIP3    H274961   4.031   4.780  15.066  0.8427 -1.2471 -0.8236
17824TIP3   OH274962   6.311   0.368   3.289  0.1674 -0.3179 -0.1680
17824TIP3    H174963   6.309   0.370   3.384  0.2058 -2.5055 -0.0716
17824TIP3    H274964   6.292   0.458   3.263 -2.7601 -0.2028  1.8631
17825TIP3   OH274965   0.197   0.068   5.314  0.5081  0.0196  0.1024
17825TIP3    H174966   0.291   0.070   5.333  0.1661 -0.3920  1.9739
17825TIP3    H274967   0.189   0.116   5.231  2.2706  0.7273  0.2909
17826TIP3   OH274968   4.522   6.686  15.529  0.2777 -0.0021 -0.3168
17826TIP3    H174969   4.531   6.600  15.569  0.2575  0.7374  1.3899
17826TIP3    H274970   4.444   6.680  15.474 -0.4659 -0.7144  0.7911
17827TIP3   OH274971   2.806   5.070  10.340 -0.3430  0.1039  0.2970
17827TIP3    H174972   2.768   4.985  10.363  0.4178  0.0931  1.6879
17827TIP3    H274973   2.878   5.049  10.281  0.7858 -0.4092  1.7937
17828TIP3   OH274974   0.894   2.108   3.596 -0.2193  0.4549  0.0570
17828TIP3    H174975   0.824   2.042   3.601  0.8070 -0.6718  0.1518
17828TIP3    H274976   0.946   2.092   3.675 -1.6264  3.4230  1.7530
17829TIP3   OH274977   5.716   1.837  13.692 -0.4623 -0.6323  0.5935
17829TIP3    H174978   5.709   1.745  13.716 -0.7169 -0.8078 -0.1166
17829TIP3    H274979   5.803   1.864  13.722 -0.4991 -1.0194  1.0625
17830TIP3   OH274980   4.690   3.329  14.792 -0.0413 -0.0666  0.3693
17830TIP3    H174981   4.634   3.406  14.805  0.0646 -0.0723  0.8874
17830TIP3    H274982   4.703   3.324  14.697  1.3509  1.5598  0.4318
17831TIP3   OH274983   6.288   2.083   2.937  0.1104  0.1764 -0.5842
17831TIP3    H174984   6.215   2.113   2.883  0.6950  1.3477 -0.7718
17831TIP3    H274985   6.275   1.989   2.946 -2.2600  0.5641  0.6832
17832TIP3   OH274986   0.571   2.784   2.533 -0.1425 -0.6853  0.2060
17832TIP3    H174987   0.582   2.812   2.442  1.8195  0.5953  0.7590
17832TIP3    H274988   0.592   2.691   2.533  0.3001 -0.5901 -0.5885
17833TIP3   OH274989   5.032   1.206  17.012  0.6523  0.4705  0.5129
17833TIP3    H174990   5.084   1.188  16.934 -0.8686  1.1534 -0.7168
17833TIP3    H274991   5.001   1.120  17.042  1.6611  0.1611  0.6783
17834TIP3   OH274992   4.421   2.973  15.642  0.2708  0.1801 -0.3236
17834TIP3    H174993   4.381   3.046  15.690 -1.6396  0.3363 -2.0378
17834TIP3    H274994   4.515   2.987  15.653 -0.0342  0.5961  2.7004
17835TIP3   OH274995   3.875   5.780  12.795  0.3807  0.1338  0.3078
17835TIP3    H174996   3.877   5.865  12.751 -0.2738 -0.7108 -1.4650
17835TIP3    H274997   3.945   5.730  12.753  0.7634 -0.2276  1.3390
17836TIP3   OH274998   0.811   2.716   4.769 -0.1191  0.2468  0.2188
17836TIP3    H174999   0.879   2.700   4.703  0.2855  1.2286  0.3822
17836TIP3    H275000   0.805   2.633   4.818  0.5107 -0.0522 -0.2003
17837TIP3   OH275001   1.349   6.086   2.448 -1.1443 -0.2703  0.0549
17837TIP3    H175002   1.366   6.033   2.370  0.4493  0.9108 -0.4564
17837TIP3    H275003   1.311   6.167   2.415 -1.4594 -0.1942  0.6033
17838TIP3   OH275004   1.305   0.652  15.401  0.4336 -0.3469  0.4953
17838TIP3    H175005   1.384   0.608  15.433  0.4909  0.3971  1.4095
17838TIP3    H275006   1.336   0.737  15.369  0.1050 -0.3520  0.1549
17839TIP3   OH275007   4.704   2.961  12.607  0.3425  0.5182  0.0943
17839TIP3    H175008   4.653   2.912  12.671 -0.2422 -0.0633 -0.7953
17839TIP3    H275009   4.772   2.899  12.578  1.5566  1.2632  1.2275
17840TIP3   OH275010   4.201   6.118  14.549 -0.1989  0.0700  0.8603
17840TIP3    H175011   4.128   6.163  14.592 -0.0315  1.0156  0.1944
17840TIP3    H275012   4.270   6.116  14.615 -0.8563 -0.9818  1.5525
17841TIP3   OH275013   4.525   3.992  13.349  0.1080  0.3415  0.2684
17841TIP3    H175014   4.438   3.970  13.383  0.2191  0.4028  0.5945
17841TIP3    H275015   4.511   4.073  13.300  0.3999  1.7407  2.3449
17842TIP3   OH275016   2.233   5.097  14.637 -0.2314  0.2086  0.4011
17842TIP3    H175017   2.315   5.051  14.621 -0.2446  0.4029 -0.2573
17842TIP3    H275018   2.175   5.069  14.566 -0.4129  0.8210  0.3003
17843TIP3   OH275019   0.272   3.375  12.692 -0.1733  0.2244  0.1511
17843TIP3    H175020   0.327   3.439  12.736 -0.6293 -0.9297  2.5552
17843TIP3    H275021   0.319   3.292  12.701 -1.6332 -0.5432  1.0416
17844TIP3   OH275022   0.881   6.066   4.375  0.1381 -0.3328  0.3088
17844TIP3    H175023   0.974   6.086   4.363 -0.0721  0.8394  0.4243
17844TIP3    H275024   0.869   5.980   4.336  1.3625 -0.6955  0.6894
17845TIP3   OH275025   5.435   4.372   4.668 -0.0336 -0.2300 -0.0039
17845TIP3    H175026   5.372   4.329   4.610 -0.4650  0.4021 -0.0120
17845TIP3    H275027   5.496   4.302   4.694  0.0273 -0.5697 -1.0242
17846TIP3   OH275028   2.650   0.851   5.332  0.4822 -0.2212 -0.3582
17846TIP3    H175029   2.681   0.933   5.371  1.0794 -0.7685  0.3518
17846TIP3    H275030   2.716   0.830   5.266 -0.8071  0.9859 -2.1093
17847TIP3   OH275031   1.840   4.582   0.719  0.1951 -0.0838 -0.5511
17847TIP3    H175032   1.829   4.561   0.626 -0.0033 -2.5144 -0.0638
17847TIP3    H275033   1.929   4.616   0.726  0.4525 -0.5219 -1.5488
17848TIP3   OH275034   4.579   3.311  13.705 -1.1924  0.0331  0.2438
17848TIP3    H175035   4.603   3.344  13.791  2.2813  2.6796 -1.5189
17848TIP3    H275036   4.563   3.390  13.652 -1.7563 -1.4328 -1.9303
17849TIP3   OH275037   5.024   0.621   2.295 -0.2557 -0.5445  0.6579
17849TIP3    H175038   5.108   0.575   2.294 -0.2924 -0.6419 -0.8337
17849TIP3    H275039   5.032   0.685   2.365  0.6309 -1.3115  1.2885
17850TIP3   OH275040   1.975   3.312   3.932  0.1938 -0.0967  0.1498
17850TIP3    H175041   1.960   3.357   3.849 -0.4945  1.3961  1.0437
17850TIP3    H275042   2.010   3.226   3.907 -0.7524  0.0053 -1.7028
17851TIP3   OH275043   1.329   1.534  11.634  0.4033  0.4868 -0.2953
17851TIP3    H175044   1.303   1.453  11.590  0.7309  0.8942 -1.2807
17851TIP3    H275045   1.425   1.536  11.626  0.4331  0.7645  0.1014
17852TIP3   OH275046   1.071   2.192   4.187  0.4253  0.8757 -0.5959
17852TIP3    H175047   1.088   2.279   4.152 -0.2064  1.0024 -0.6013
17852TIP3    H275048   0.988   2.201   4.235  0.0860  0.1588 -1.0347
17853TIP3   OH275049   1.433   6.468  13.612 -0.3141 -0.5338 -1.0360
17853TIP3    H175050   1.440   6.534  13.680 -1.2429 -0.5225 -0.9398
17853TIP3    H275051   1.367   6.502  13.552  0.9955 -0.2070 -2.3386
17854TIP3   OH275052   3.334   3.716  16.084 -0.8748 -0.2402  0.1687
17854TIP3    H175053   3.290   3.749  16.005 -0.5510 -0.2576 -0.0187
17854TIP3    H275054   3.324   3.621  16.079  1.1395 -0.4364 -1.0558
17855TIP3   OH275055   0.490   0.338   2.354  0.2452 -0.8321 -0.6070
17855TIP3    H175056   0.508   0.399   2.282  1.1461 -1.0998 -0.6145
17855TIP3    H275057   0.457   0.394   2.424 -0.2391 -0.5150 -1.0805
17856TIP3   OH275058   3.957   0.841   2.136  0.1076  0.6475  0.7825
17856TIP3    H175059   3.953   0.861   2.043 -0.7979 -1.0169  0.4175
17856TIP3    H275060   3.909   0.912   2.179 -1.3178  0.3351 -0.2373
17857TIP3   OH275061   1.199   5.920   1.001 -0.1121  0.2788  0.0780
17857TIP3    H175062   1.195   5.824   1.010 -1.5250  0.2973 -0.0894
17857TIP3    H275063   1.278   5.936   0.950 -0.3281 -0.8705 -0.6649
17858TIP3   OH275064   5.964   3.412  16.413  0.5578  0.0798 -0.2339
17858TIP3    H175065   5.929   3.500  16.399  0.0223 -0.0165  0.4903
17858TIP3    H275066   5.935   3.363  16.336 -0.6213  0.0932  0.1816
17859TIP3   OH275067   2.010   3.193  15.080 -0.2322 -0.3911 -0.0014
17859TIP3    H175068   2.023   3.174  14.987  2.3055 -0.2991  0.2594
17859TIP3    H275069   2.095   3.175  15.121 -1.4459 -1.0771  2.4392
17860TIP3   OH275070   5.238   5.604   2.631  0.1409 -0.0481  0.5328
17860TIP3    H175071   5.228   5.581   2.538  0.7085 -1.4027  0.7868
17860TIP3    H275072   5.155   5.647   2.653 -0.1563 -0.0505 -0.4996
17861TIP3   OH275073   3.986   1.288   0.668 -0.0408 -0.1587  0.3671
17861TIP3    H175074   3.894   1.312   0.664  0.2985  1.6472  1.9015
17861TIP3    H275075   3.986   1.193   0.677 -1.6529 -0.3775 -1.4362
17862TIP3   OH275076   6.607   3.244   0.924 -0.6491 -0.4840  0.3645
17862TIP3    H175077   6.546   3.202   0.984 -1.0003 -1.4965 -0.6615
17862TIP3    H275078   6.670   3.175   0.901  1.3723  0.7083  1.9630
17863TIP3   OH275079   3.128   6.713  16.948  0.1382  0.7358  0.3111
17863TIP3    H175080   3.204   6.756  16.909 -0.4311  0.9504 -0.5776
17863TIP3    H275081   3.055   6.733  16.889 -0.9471  1.8347  1.9213
17864TIP3   OH275082   0.163   2.516   5.022  0.1981 -0.0363  0.5565
17864TIP3    H175083   0.166   2.481   4.932 -1.5902  2.4584 -0.5913
17864TIP3    H275084   0.239   2.574   5.026  0.3608 -0.2607  0.7055
17865TIP3   OH275085   1.728   1.684  13.290 -0.7352 -0.1334 -0.0949
17865TIP3    H175086   1.735   1.640  13.375 -1.1029 -2.3998 -1.1502
17865TIP3    H275087   1.657   1.747  13.302  1.5833  2.2720  2.2617
17866TIP3   OH275088   5.829   5.340  15.696 -0.0185 -0.3418  0.1045
17866TIP3    H175089   5.916   5.316  15.727 -0.4129 -1.3190  0.5003
17866TIP3    H275090   5.831   5.321  15.602  0.4171  0.3098 -0.0187
17867TIP3   OH275091   3.067   6.598   3.843  0.0177 -0.8896  0.0947
17867TIP3    H175092   2.986   6.624   3.887 -0.1960 -0.0120 -0.7642
17867TIP3    H275093   3.131   6.665   3.868 -0.3766  0.2391 -1.6686
17868TIP3   OH275094   5.485   4.472   3.864  0.5794  0.3539 -0.0309
17868TIP3    H175095   5.566   4.448   3.820  1.9469  2.2920  1.3120
17868TIP3    H275096   5.499   4.449   3.956 -0.6320  0.1863  0.1377
17869TIP3   OH275097   3.802   5.631  11.044 -0.1835 -0.4643  0.2920
17869TIP3    H175098   3.862   5.689  11.090  0.1993 -1.0965  0.6073
17869TIP3    H275099   3.823   5.641  10.951 -2.2624  2.3041 -0.0002
17870TIP3   OH275100   4.978   3.216   1.962 -0.0147 -0.8115 -0.4929
17870TIP3    H175101   4.942   3.186   2.046 -1.6849 -0.1925 -0.9495
17870TIP3    H275102   5.073   3.219   1.977 -0.3320  0.3507  1.7453
17871TIP3   OH275103   6.067   1.459   1.511  0.0124 -0.0193 -0.4150
17871TIP3    H175104   5.983   1.444   1.468 -1.2494  0.7848  1.6339
17871TIP3    H275105   6.059   1.415   1.596  0.3766  2.7249  1.1617
17872TIP3   OH275106   3.911   2.964   4.462  0.0742 -0.1537  0.5195
17872TIP3    H175107   3.860   2.910   4.523  0.7771 -1.5773 -0.1185
17872TIP3    H275108   3.985   2.995   4.514  0.4605 -1.0340  0.5034
17873TIP3   OH275109   0.967   2.247   5.787  0.2369 -0.1181  0.0708
17873TIP3    H175110   0.946   2.235   5.880  0.8712  0.2013  0.2638
17873TIP3    H275111   0.907   2.188   5.741  0.2028 -0.5976  0.7103
17874TIP3   OH275112   0.754   4.369   0.556  0.1368 -0.4528  0.4628
17874TIP3    H175113   0.721   4.453   0.524  0.8458 -0.5290 -0.5128
17874TIP3    H275114   0.765   4.315   0.477  2.1110 -0.5892  0.7705
17875TIP3   OH275115   3.156   5.010  10.813 -0.2711  0.5048 -1.0348
17875TIP3    H175116   3.109   5.002  10.730 -0.2228  0.3186 -1.0448
17875TIP3    H275117   3.241   4.969  10.798 -0.0578  0.9452 -1.0503
17876TIP3   OH275118   6.579   5.216   3.391 -0.9908  0.2534  0.0907
17876TIP3    H175119   6.551   5.282   3.454 -2.4433  0.1637 -0.4393
17876TIP3    H275120   6.500   5.194   3.342  0.0197  0.0407 -1.5162
17877TIP3   OH275121   1.805   4.134   3.439 -0.2292  0.7192  0.0686
17877TIP3    H175122   1.829   4.133   3.531  2.2767  0.1481 -0.5211
17877TIP3    H275123   1.862   4.201   3.400  1.2473 -1.3664 -1.5989
17878TIP3   OH275124   5.904   0.724  17.078 -0.1318 -0.0310  0.0319
17878TIP3    H175125   5.822   0.745  17.032  0.4254 -1.4080 -1.7022
17878TIP3    H275126   5.876   0.679  17.158 -1.0951  1.3257  0.5004
17879TIP3   OH275127   2.188   1.651   0.191  0.2356 -0.2184  0.0453
17879TIP3    H175128   2.261   1.605   0.149  1.9630  2.9384 -0.6804
17879TIP3    H275129   2.147   1.584   0.247  3.2988 -2.2938  0.0521
17880TIP3   OH275130   6.323   0.851   3.757 -0.1787 -0.6021 -0.4448
17880TIP3    H175131   6.377   0.898   3.820 -0.9867 -1.5660  1.0165
17880TIP3    H275132   6.263   0.918   3.722  1.7642  0.4352 -1.9635
17881TIP3   OH275133   0.011   2.806  12.448 -0.4979 -0.0520 -0.1496
17881TIP3    H175134  -0.004   2.741  12.378  1.2280 -0.3142 -0.3191
17881TIP3    H275135   0.070   2.762  12.509 -2.5065 -0.0790  1.9100
17882TIP3   OH275136   6.378   4.271  17.166  0.2122  0.7393  0.0578
17882TIP3    H175137   6.410   4.261  17.076  0.1163 -0.5217  0.1495
17882TIP3    H275138   6.374   4.366  17.179 -0.9221  0.9856 -1.6891
17883TIP3   OH275139   0.997   4.677  13.726  0.1874  0.0279 -0.2231
17883TIP3    H175140   0.902   4.683  13.714  0.0595 -1.7769 -0.4045
17883TIP3    H275141   1.013   4.722  13.809 -0.6960  1.1221 -0.6239
17884TIP3   OH275142   2.630   3.756  14.643  0.1990 -0.2463  0.3986
17884TIP3    H175143   2.600   3.668  14.621 -1.7446  0.7408 -1.2856
17884TIP3    H275144   2.675   3.786  14.563 -0.1185  0.6633  0.5536
17885TIP3   OH275145   0.701   5.403   0.362  0.2691  0.9219 -0.1695
17885TIP3    H175146   0.719   5.424   0.270  2.6962 -0.1759 -0.0223
17885TIP3    H275147   0.736   5.315   0.374 -1.0179  0.5936  1.5627
17886TIP3   OH275148   0.964   3.818   0.147 -0.0120  0.6418 -0.3203
17886TIP3    H175149   0.976   3.784   0.059 -2.2988  0.9831 -0.8395
17886TIP3    H275150   0.969   3.913   0.137  0.9015  0.6564  0.1564
17887TIP3   OH275151   5.009   1.433  13.402 -0.0410 -0.3141  0.1478
17887TIP3    H175152   5.034   1.354  13.354 -0.3292 -1.1530  1.3387
17887TIP3    H275153   4.917   1.420  13.424 -0.0713  0.3248  0.4129
17888TIP3   OH275154   3.313   2.666   1.572  0.0879 -0.2082 -0.2947
17888TIP3    H175155   3.238   2.627   1.526 -0.4367  2.0114 -1.4489
17888TIP3    H275156   3.375   2.688   1.502  0.8751 -0.0339  0.4445
17889TIP3   OH275157   3.472   1.108  14.568  0.2404 -0.0022  0.0904
17889TIP3    H175158   3.467   1.060  14.651  1.0751  0.1547  0.2403
17889TIP3    H275159   3.381   1.122  14.543 -0.0178 -0.1019  0.9556
17890TIP3   OH275160   0.916   6.169  17.078  0.5297 -0.0813 -0.3059
17890TIP3    H175161   0.897   6.133  16.991 -1.1940 -1.0958  0.4239
17890TIP3    H275162   0.979   6.108  17.115 -0.0445 -0.6416 -0.2269
17891TIP3   OH275163   5.948   5.696  14.553  0.4624  0.1488  0.9251
17891TIP3    H175164   5.964   5.774  14.606  1.7776  0.4287  0.1584
17891TIP3    H275165   6.025   5.641  14.568  0.3879 -0.1976  0.0546
17892TIP3   OH275166   0.805   2.713   2.134 -0.2534 -0.2833  0.0667
17892TIP3    H175167   0.856   2.723   2.053  1.1779 -0.8880  0.8695
17892TIP3    H275168   0.723   2.672   2.105 -0.5119  1.0627 -1.3031
17893TIP3   OH275169   5.970   1.672   4.300 -0.3803  0.1314 -0.7763
17893TIP3    H175170   6.006   1.638   4.218 -1.8750  1.9039 -2.2492
17893TIP3    H275171   5.952   1.764   4.282 -0.4881  0.6601  1.6725
17894TIP3   OH275172   2.478   6.084   2.541  0.2325 -0.5438 -0.6619
17894TIP3    H175173   2.426   6.057   2.466 -0.2155  0.1949 -0.6242
17894TIP3    H275174   2.548   6.137   2.505  1.0241 -1.5932 -0.7197
17895TIP3   OH275175   0.044   6.407  12.419 -0.4108 -0.3502  0.0662
17895TIP3    H175176   0.126   6.451  12.395 -0.0807 -0.4071  1.0543
17895TIP3    H275177   0.008   6.377  12.336 -0.2209  1.0403 -0.5450
17896TIP3   OH275178   5.666   6.104  11.155  0.1600  0.2452 -0.4541
17896TIP3    H175179   5.646   6.161  11.081 -0.7912  0.8566  0.2561
17896TIP3    H275180   5.601   6.126  11.221 -0.1806 -1.6059 -0.1104
17897TIP3   OH275181   2.514   0.484   0.719  0.0760 -0.7279  0.2755
17897TIP3    H175182   2.528   0.549   0.650  0.2478 -0.4859  0.5340
17897TIP3    H275183   2.577   0.508   0.787 -1.7327  0.5555  1.5874
17898TIP3   OH275184   6.458   3.287  14.495  0.2060 -0.2745 -0.0155
17898TIP3    H175185   6.508   3.257  14.419 -0.9496 -0.5608 -0.6755
17898TIP3    H275186   6.400   3.214  14.517 -1.1610  0.6771 -0.3493
17899TIP3   OH275187   2.665   4.336   3.563  0.1514 -0.6110 -0.1775
17899TIP3    H175188   2.610   4.265   3.531  0.9092 -0.8659 -0.9554
17899TIP3    H275189   2.731   4.348   3.495  0.0194  0.8629 -0.0705
17900TIP3   OH275190   2.287   5.520  13.974  0.6395 -0.3874 -0.8925
17900TIP3    H175191   2.220   5.462  13.940 -0.3421  0.3350 -0.2745
17900TIP3    H275192   2.370   5.477  13.953 -0.0383 -1.8467 -0.7191
17901TIP3   OH275193   6.681   6.172   6.050 -0.0371  0.0838 -0.1030
17901TIP3    H175194   6.591   6.176   6.082 -0.5046 -0.5188 -1.3258
17901TIP3    H275195   6.732   6.212   6.121 -1.5723  3.2777 -0.6194
17902TIP3   OH275196   5.649   6.026  14.261  0.0070  0.0366  0.3747
17902TIP3    H175197   5.568   6.076  14.246  1.1303  1.5803 -0.8380
17902TIP3    H275198   5.629   5.971  14.336 -1.3721  2.2446  1.7607
17903TIP3   OH275199   1.278   5.591  11.466 -0.5733  1.0481 -0.1249
17903TIP3    H175200   1.307   5.535  11.394 -1.6140  1.2743 -0.7430
17903TIP3    H275201   1.324   5.557  11.543  0.3565  0.6360 -0.8453
17904TIP3   OH275202   5.874   3.203  16.552 -0.0524 -0.0659  0.0962
17904TIP3    H175203   5.829   3.120  16.538 -1.7858  0.5540  1.6860
17904TIP3    H275204   5.883   3.241  16.464 -2.1604 -0.4768 -0.3333
17905TIP3   OH275205   4.277   1.603   1.433  0.0890  0.0907  0.6111
17905TIP3    H175206   4.239   1.522   1.467  0.4567 -0.7116 -0.8096
17905TIP3    H275207   4.367   1.581   1.411 -0.5877 -0.0221 -2.5614
17906TIP3   OH275208   3.698   6.249  11.812 -0.1370 -0.3832  0.0279
17906TIP3    H175209   3.612   6.233  11.851 -0.2792  1.2980  0.4876
17906TIP3    H275210   3.732   6.325  11.859  0.7160  0.2469 -1.5097
17907TIP3   OH275211   0.708   5.791   1.775  0.2863 -0.0588 -0.3261
17907TIP3    H175212   0.703   5.708   1.821  0.6238  0.3207  0.4039
17907TIP3    H275213   0.635   5.789   1.712 -0.6082 -0.2873  0.6997
17908TIP3   OH275214   6.776   6.162   0.572 -0.0658  0.7910 -0.1206
17908TIP3    H175215   6.801   6.071   0.586  0.9794  1.1963  0.7916
17908TIP3    H275216   6.811   6.208   0.648 -1.7871  1.7520  0.1301
17909TIP3   OH275217   4.104   6.233   4.240  0.2907  0.2410  0.3574
17909TIP3    H175218   4.050   6.228   4.161  1.0165 -1.2623 -0.0745
17909TIP3    H275219   4.174   6.294   4.217 -0.5207  1.2399  0.4938
17910TIP3   OH275220   6.598   6.696  13.926 -0.8740  0.2454  0.7680
17910TIP3    H175221   6.546   6.711  14.005 -2.3325 -1.6642  0.2386
17910TIP3    H275222   6.588   6.776  13.875 -0.2416  1.3429  2.2794
17911TIP3   OH275223   1.558   0.217  13.937  0.4697  0.1954 -0.2562
17911TIP3    H175224   1.510   0.155  13.992 -2.0528  0.2839 -2.1860
17911TIP3    H275225   1.614   0.163  13.881 -0.9169 -0.3185 -1.1863
17912TIP3   OH275226   2.520   1.248  11.620  0.0536  0.1315  0.2625
17912TIP3    H175227   2.437   1.250  11.667 -1.0267  0.9506 -1.5791
17912TIP3    H275228   2.573   1.183  11.667 -2.5320 -2.3364  0.0229
17913TIP3   OH275229   5.792   6.769  11.452  0.0064 -0.3435 -0.2146
17913TIP3    H175230   5.880   6.780  11.415 -0.1667  0.8118 -0.3184
17913TIP3    H275231   5.735   6.761  11.375  0.1510 -2.5873 -0.1600
17914TIP3   OH275232   1.133   0.943  12.932 -0.1450  0.0614  1.0145
17914TIP3    H175233   1.214   0.983  12.965  0.7093  0.3733 -1.2944
17914TIP3    H275234   1.162   0.863  12.888 -1.0845  0.1581  0.1841
17915TIP3   OH275235   1.793   5.204   0.890  0.2258  0.4293  0.0830
17915TIP3    H175236   1.854   5.276   0.909  0.2588  0.9368 -1.7637
17915TIP3    H275237   1.740   5.196   0.969  2.4883  0.1362  1.6881
17916TIP3   OH275238   2.986   6.123  12.016  0.0775 -0.0238 -0.0530
17916TIP3    H175239   3.024   6.165  11.939 -1.0196 -0.3199 -0.7799
17916TIP3    H275240   3.053   6.132  12.084  1.1285  0.1117 -1.0765
17917TIP3   OH275241   3.588   3.925  15.385  0.1202  1.1473  0.1898
17917TIP3    H175242   3.637   3.851  15.350 -1.3948  0.5741 -0.8360
17917TIP3    H275243   3.653   3.979  15.430  1.1561 -1.1364  1.5486
17918TIP3   OH275244   0.218   5.209  11.780  0.5606 -0.5050 -0.2243
17918TIP3    H175245   0.287   5.175  11.837  0.1968  0.1011  0.5868
17918TIP3    H275246   0.262   5.275  11.726  0.7832 -0.6915 -0.2756
17919TIP3   OH275247   1.112   2.521   2.601  0.1295  0.6881 -0.0067
17919TIP3    H175248   1.036   2.539   2.656 -0.0739  0.7456 -0.3058
17919TIP3    H275249   1.107   2.587   2.532  1.8369  2.3710  1.3425
17920TIP3   OH275250   6.521   1.765   1.627 -0.2904 -0.3487  0.5810
17920TIP3    H175251   6.601   1.732   1.669  2.0760  2.1704 -1.6100
17920TIP3    H275252   6.451   1.715   1.669  2.3207 -2.3419  3.0258
17921TIP3   OH275253   1.780   0.730  14.103 -0.1942  0.0158  0.5299
17921TIP3    H175254   1.689   0.759  14.103  0.2714  1.5830  0.0416
17921TIP3    H275255   1.813   0.754  14.191 -0.1009  0.0097  0.4968
17922TIP3   OH275256   1.641   0.880  15.407  0.0912 -0.4135 -0.1947
17922TIP3    H175257   1.682   0.852  15.489 -4.0262  0.9890  2.6472
17922TIP3    H275258   1.642   0.975  15.411  0.5705 -0.2670 -2.3371
17923TIP3   OH275259   6.707   3.494   1.412 -0.1830 -0.7182 -0.0991
17923TIP3    H175260   6.690   3.576   1.459 -1.7473  0.4503 -2.5257
17923TIP3    H275261   6.708   3.427   1.481 -1.0729  1.0432  1.7256
17924TIP3   OH275262   2.485   3.229  16.920 -0.0052 -0.1433  0.9203
17924TIP3    H175263   2.523   3.276  16.995 -1.5976  0.2188  1.5403
17924TIP3    H275264   2.395   3.261  16.915 -0.0032 -0.3508 -1.0257
17925TIP3   OH275265   5.534   3.945  12.861  0.0573 -0.7300 -0.6191
17925TIP3    H175266   5.501   3.968  12.774  0.7827 -2.5756 -1.4287
17925TIP3    H275267   5.627   3.928  12.848  0.6495  0.9721  0.9549
17926TIP3   OH275268   0.266   5.532   5.806  0.1161  0.6458  0.4426
17926TIP3    H175269   0.246   5.571   5.721  1.3142 -2.2826 -1.3258
17926TIP3    H275270   0.335   5.587   5.843  1.4825  0.5235 -1.7531
17927TIP3   OH275271   5.081   3.120   2.227 -0.2663  0.3067  0.2010
17927TIP3    H175272   5.029   3.040   2.212  0.0944  0.0508  0.2957
17927TIP3    H275273   5.029   3.170   2.290 -0.2321 -0.1168  0.5716
17928TIP3   OH275274   5.795   5.666   0.360  0.5320  0.4321  0.6315
17928TIP3    H175275   5.841   5.615   0.427  0.8742 -0.2630 -0.1142
17928TIP3    H275276   5.786   5.753   0.398  0.1547 -0.1150  1.8307
17929TIP3   OH275277   2.279   1.923   3.174  0.2561  0.2147  0.0752
17929TIP3    H175278   2.236   1.839   3.163 -0.5647  0.6105  0.1670
17929TIP3    H275279   2.213   1.987   3.148  1.1300  0.8027 -0.7541
17930TIP3   OH275280   2.495   2.893   1.846  0.0230  0.3154 -0.3730
17930TIP3    H175281   2.546   2.973   1.857 -0.6899  0.7240  0.0033
17930TIP3    H275282   2.480   2.862   1.935  0.5070 -0.3835 -0.5237
17931TIP3   OH275283   2.870   5.982  11.443 -0.0110 -0.4843 -0.5475
17931TIP3    H175284   2.876   5.890  11.420  0.9891 -0.5147 -0.1966
17931TIP3    H275285   2.953   6.020  11.413 -1.1684  0.7078 -2.4309
17932TIP3   OH275286   0.789   2.533   0.670 -0.4859  0.3940 -0.0673
17932TIP3    H175287   0.763   2.486   0.591  1.0351 -0.5439 -0.0445
17932TIP3    H275288   0.798   2.466   0.737  0.5028  0.8680  0.2975
17933TIP3   OH275289   0.228   6.806   4.052 -0.1318  0.3593 -0.0880
17933TIP3    H175290   0.319   6.830   4.031  0.5495 -0.3139  1.8296
17933TIP3    H275291   0.195   6.764   3.973  0.8378  1.6351 -1.2101
17934TIP3   OH275292   0.818   1.468   2.435  0.1223 -0.1073 -0.3070
17934TIP3    H175293   0.903   1.434   2.460  0.5491  0.5285 -0.8438
17934TIP3    H275294   0.806   1.438   2.345 -0.1796 -0.1195 -0.2643
17935TIP3   OH275295   2.454   1.853  15.605 -0.0386  0.2494  0.7308
17935TIP3    H175296   2.379   1.905  15.635 -0.2260  0.7890 -0.5926
17935TIP3    H275297   2.499   1.910  15.542 -0.1547 -1.1258 -0.6527
17936TIP3   OH275298   2.636   6.222   1.139  0.5905 -0.3282  0.2813
17936TIP3    H175299   2.645   6.266   1.055  0.6994  0.7456  0.8409
17936TIP3    H275300   2.688   6.142   1.130  2.7116  0.9755  0.1379
17937TIP3   OH275301   2.884   2.383   3.095 -0.0075 -0.0030 -0.0586
17937TIP3    H175302   2.901   2.370   3.002  2.8396 -0.6485  0.4474
17937TIP3    H275303   2.889   2.478   3.107  1.3224 -0.0193 -0.3377
17938TIP3   OH275304   5.187   0.554  11.865 -0.0579 -0.4195 -0.0780
17938TIP3    H175305   5.178   0.646  11.888 -0.3506 -0.5179  0.2023
17938TIP3    H275306   5.122   0.540  11.797 -1.1169 -0.7926  0.9757
17939TIP3   OH275307   4.329   4.414   6.297  0.1356  0.3432 -0.3510
17939TIP3    H175308   4.423   4.429   6.306 -0.0747  1.8624 -0.4542
17939TIP3    H275309   4.322   4.329   6.254  1.5499  1.0864 -2.1950
17940TIP3   OH275310   4.490   1.922  11.977  0.0207  0.2314  0.2411
17940TIP3    H175311   4.506   1.896  11.886 -0.5986  0.5347  0.0349
17940TIP3    H275312   4.561   1.983  11.997 -0.4956  1.0899 -0.4448
17941TIP3   OH275313   4.990   2.856   0.075  0.0052 -0.1075 -0.4900
17941TIP3    H175314   5.049   2.931   0.074  0.0130 -0.1103 -0.2337
17941TIP3    H275315   5.026   2.798   0.142 -0.7028  0.2166  0.1849
17942TIP3   OH275316   0.453   3.709   3.073  0.0103  0.2534  0.1520
17942TIP3    H175317   0.532   3.663   3.101  0.8879  2.0186  0.7187
17942TIP3    H275318   0.485   3.786   3.026 -1.4000  0.3478 -0.7045
17943TIP3   OH275319   5.247   5.350  16.432 -0.3724  0.3139  0.2895
17943TIP3    H175320   5.236   5.440  16.463  3.5354  1.0893 -0.0230
17943TIP3    H275321   5.274   5.301  16.509  1.5400  0.4278 -0.2576
17944TIP3   OH275322   1.781   2.813   4.554  0.4021  0.5580 -0.3816
17944TIP3    H175323   1.791   2.740   4.493 -1.4557 -0.0562 -0.0239
17944TIP3    H275324   1.730   2.776   4.627 -1.8763  2.5123 -0.8458
17945TIP3   OH275325   0.677   6.753   2.227  0.5033  0.1450 -0.1411
17945TIP3    H175326   0.588   6.746   2.194 -0.0804  1.0672  1.1665
17945TIP3    H275327   0.719   6.670   2.201 -0.8897 -0.5352 -0.2902
17946TIP3   OH275328   1.202   1.582  12.956  0.6348 -0.0226  0.1077
17946TIP3    H175329   1.254   1.539  12.888  0.3512  1.5080 -1.1144
17946TIP3    H275330   1.250   1.663  12.975 -0.6640  0.8290 -0.1701
17947TIP3   OH275331   0.727   4.628  15.676  0.1500  0.6465 -0.1206
17947TIP3    H175332   0.737   4.534  15.666 -1.2190  0.5595 -0.8918
17947TIP3    H275333   0.690   4.640  15.763 -0.3681  0.4150 -0.3083
17948TIP3   OH275334   1.419   0.291   4.129 -0.1414 -0.3768 -0.3745
17948TIP3    H175335   1.433   0.385   4.128 -0.7683 -0.2121  1.4438
17948TIP3    H275336   1.456   0.259   4.047 -0.2486  1.4891 -1.1862
17949TIP3   OH275337   0.098   1.475   6.007 -0.5629  0.0957  0.7298
17949TIP3    H175338   0.018   1.466   6.058 -2.5899  1.5512 -1.9159
17949TIP3    H275339   0.139   1.555   6.039 -0.9601  0.1438  1.1265
17950TIP3   OH275340   0.571   4.177   2.327 -0.2935 -0.3020  0.6352
17950TIP3    H175341   0.482   4.213   2.331 -0.4821 -0.8351  1.4699
17950TIP3    H275342   0.559   4.085   2.306  0.1342 -0.1415 -0.3849
17951TIP3   OH275343   0.584   4.525  16.042  0.0828 -0.1756 -0.0195
17951TIP3    H175344   0.543   4.610  16.058 -1.2276 -0.9107  0.6511
17951TIP3    H275345   0.564   4.474  16.120  1.1916 -0.9890 -0.2509
17952TIP3   OH275346   0.912   1.134  12.216  0.0004  0.1787  0.0939
17952TIP3    H175347   0.956   1.143  12.131 -0.8807  1.0056 -0.3041
17952TIP3    H275348   0.958   1.196  12.273 -0.1086  0.4359 -0.0927
17953TIP3   OH275349   4.319   2.484  11.737  0.5234  0.4005 -0.3576
17953TIP3    H175350   4.336   2.420  11.805  2.2844  0.3038 -0.8416
17953TIP3    H275351   4.265   2.551  11.780 -0.3313 -0.7670  0.4704
17954TIP3   OH275352   2.924   1.880  16.816  0.3269 -0.3898 -0.2759
17954TIP3    H175353   3.006   1.918  16.786 -0.7700  1.2748 -1.3746
17954TIP3    H275354   2.949   1.817  16.883  2.3911  0.9543  0.2902
17955TIP3   OH275355   2.632   4.466   4.299 -0.0929  0.5349  0.6941
17955TIP3    H175356   2.702   4.477   4.363  0.6101  2.4178 -0.3127
17955TIP3    H275357   2.664   4.400   4.238  0.2592  0.4550  0.9624
17956TIP3   OH275358   2.573   6.057   2.821 -0.0413  0.9558  0.3885
17956TIP3    H175359   2.486   6.062   2.782 -0.9794 -0.7580  2.0778
17956TIP3    H275360   2.576   5.970   2.861  2.1605  1.2797  1.0464
17957TIP3   OH275361   4.794   3.875  13.157 -0.4650 -0.2359  0.2528
17957TIP3    H175362   4.734   3.947  13.138  0.3004  0.2789 -0.2495
17957TIP3    H275363   4.872   3.894  13.106  0.7992  0.0094  2.1548
17958TIP3   OH275364   3.490   4.485   0.531 -0.1123  0.2432  0.2295
17958TIP3    H175365   3.441   4.566   0.518 -0.2211  0.1120 -0.2057
17958TIP3    H275366   3.501   4.478   0.626  0.2942  0.9932  0.2411
17959TIP3   OH275367   4.250   1.866   6.318  0.1553 -0.7361 -0.5195
17959TIP3    H175368   4.254   1.893   6.410  1.2989  0.8201 -0.9750
17959TIP3    H275369   4.175   1.914   6.283  0.2368 -0.6581 -0.5878
17960TIP3   OH275370   0.655   3.161   4.308 -0.4496  0.1767  0.3245
17960TIP3    H175371   0.625   3.240   4.263  0.0494 -0.3850 -1.0160
17960TIP3    H275372   0.720   3.193   4.371  2.1921  0.5666 -2.4158
17961TIP3   OH275373   6.214   5.787   3.977 -0.2584 -0.1859 -0.3892
17961TIP3    H175374   6.209   5.834   4.061 -0.6343  1.4054 -1.2601
17961TIP3    H275375   6.231   5.696   4.002 -2.1611 -0.1058  1.4990
17962TIP3   OH275376   5.720   5.807  10.578 -0.5454  0.3001 -0.4225
17962TIP3    H175377   5.663   5.861  10.523  0.3167  0.8485 -0.7926
17962TIP3    H275378   5.702   5.717  10.548  0.1336  0.6091 -1.8482
17963TIP3   OH275379   1.077   0.206  11.661 -0.2173  0.2180  0.0168
17963TIP3    H175380   1.126   0.151  11.722 -0.0199  0.6714  0.2708
17963TIP3    H275381   0.986   0.177  11.670  0.2712 -2.4397 -2.3620
17964TIP3   OH275382   5.234   4.602  17.006  0.0296 -0.2957  0.1383
17964TIP3    H175383   5.211   4.672  16.945 -1.9821 -0.8698  0.1579
17964TIP3    H275384   5.232   4.643  17.092  0.1702 -0.1003  0.0486
17965TIP3   OH275385   5.605   3.455  14.190  0.1271  0.1486  0.1078
17965TIP3    H175386   5.696   3.469  14.217 -0.4489  1.1518  1.6763
17965TIP3    H275387   5.567   3.403  14.261 -0.5060 -0.3483 -0.5866
17966TIP3   OH275388   1.255   2.152  13.614  0.3815 -0.3814  0.6407
17966TIP3    H175389   1.273   2.244  13.594 -0.4716 -0.0666  1.2686
17966TIP3    H275390   1.314   2.103  13.557  0.0884  0.5313 -0.4821
17967TIP3   OH275391   3.683   4.642  14.180 -0.3428  0.2268 -0.2771
17967TIP3    H175392   3.634   4.710  14.134 -1.7194 -1.1787 -0.9763
17967TIP3    H275393   3.765   4.634  14.131 -1.2236 -0.3115 -1.7323
17968TIP3   OH275394   6.050   5.936   5.247  0.3901  0.2784 -0.1109
17968TIP3    H175395   6.052   5.901   5.158  1.5029 -1.7474  0.6408
17968TIP3    H275396   6.135   5.912   5.284 -0.2980  0.4782  1.7063
17969TIP3   OH275397   2.121   5.127   5.296 -0.4226  0.1074  0.3817
17969TIP3    H175398   2.112   5.112   5.390  0.8086  0.8189  0.6381
17969TIP3    H275399   2.173   5.208   5.289  1.3231 -1.0335 -0.8754
17970TIP3   OH275400   3.914   0.937  15.020  0.1874 -0.2796 -0.1446
17970TIP3    H175401   3.827   0.930  15.060 -0.1103 -0.1320 -0.7446
17970TIP3    H275402   3.913   0.872  14.950  0.6444 -0.4340 -0.0057
17971TIP3   OH275403   0.052   3.690  12.579  0.3018 -0.5740  0.2845
17971TIP3    H175404  -0.004   3.767  12.592 -0.4863 -1.0188 -0.3202
17971TIP3    H275405   0.080   3.697  12.488 -0.8366 -1.6516 -0.1797
17972TIP3   OH275406   6.813   0.973  14.894  0.2855  0.1758  0.1287
17972TIP3    H175407   6.742   1.010  14.841  0.0286  0.5398  0.7108
17972TIP3    H275408   6.770   0.909  14.950  0.1580  1.3045  1.4022
17973TIP3   OH275409   1.766   1.211   5.795  0.6791 -0.0304 -0.2951
17973TIP3    H175410   1.730   1.250   5.875 -1.0563 -1.2686 -0.4145
17973TIP3    H275411   1.785   1.120   5.819 -1.4805 -0.9219 -1.6726
17974TIP3   OH275412   4.308   6.643   5.508  0.5318  0.3931 -0.0262
17974TIP3    H175413   4.372   6.708   5.479  1.2347  0.9748  2.5222
17974TIP3    H275414   4.345   6.608   5.589 -0.8802 -1.6158 -0.1824
17975TIP3   OH275415   2.698   2.204  15.609 -0.1617  0.4951  0.2317
17975TIP3    H175416   2.603   2.220  15.606  0.0983  2.0733 -0.1229
17975TIP3    H275417   2.725   2.202  15.517  0.2789  0.8675  0.3525
17976TIP3   OH275418   0.586   3.779   5.886  0.1537 -0.0327  0.0045
17976TIP3    H175419   0.665   3.825   5.858 -0.4804  0.1260 -1.6206
17976TIP3    H275420   0.565   3.819   5.970 -0.2521  2.6044 -1.2374
17977TIP3   OH275421   0.867   0.959  14.183  0.3421 -0.0825 -0.0167
17977TIP3    H175422   0.851   1.022  14.254  2.1168  0.4440 -0.0310
17977TIP3    H275423   0.845   0.874  14.220 -3.6356  0.5808 -0.4828
17978TIP3   OH275424   1.150   0.356   1.058  0.2869 -0.1201  0.0743
17978TIP3    H175425   1.151   0.273   1.105 -1.2837 -0.6791 -0.7981
17978TIP3    H275426   1.159   0.422   1.126 -0.0253 -0.9643  0.9679
17979TIP3   OH275427   1.270   1.726  11.825  0.2525  0.9766 -0.4166
17979TIP3    H175428   1.180   1.703  11.850  0.4590  1.1865  0.5917
17979TIP3    H275429   1.289   1.673  11.749 -0.9401  1.3608 -1.0068
17980TIP3   OH275430   4.376   2.156   5.831 -0.7434  0.2235  0.5357
17980TIP3    H175431   4.442   2.103   5.875 -0.0267 -0.1227 -0.8725
17980TIP3    H275432   4.303   2.097   5.815  0.9227 -1.1813 -3.0705
17981TIP3   OH275433   2.753   6.036   4.816  0.2668 -0.3686 -0.0611
17981TIP3    H175434   2.802   6.109   4.778  1.3119 -1.1615 -0.2853
17981TIP3    H275435   2.663   6.068   4.822  0.9604  1.5302  1.3372
17982TIP3   OH275436   1.802   0.578  11.758 -0.1533  0.8428 -0.0720
17982TIP3    H175437   1.815   0.489  11.791 -0.3401  0.8209 -0.0571
17982TIP3    H275438   1.883   0.624  11.781 -0.8394  1.2345  1.7110
17983TIP3   OH275439   4.396   4.687  15.599 -0.3282  0.0132 -0.2247
17983TIP3    H175440   4.374   4.751  15.531 -0.5690  0.2932  0.1081
17983TIP3    H275441   4.311   4.657  15.631 -0.2160 -0.1947 -0.1217
17984TIP3   OH275442   0.832   6.648  12.400  0.2361 -0.1433 -0.3520
17984TIP3    H175443   0.864   6.593  12.329  1.1967 -0.5342  0.3597
17984TIP3    H275444   0.746   6.611  12.422 -1.4018  1.6836 -3.1108
17985TIP3   OH275445   2.309   0.639   4.837 -0.4849  0.7252  0.4450
17985TIP3    H175446   2.383   0.657   4.895 -0.4341  2.0817 -0.0111
17985TIP3    H275447   2.308   0.712   4.775 -1.9020  0.4711  0.1240
17986TIP3   OH275448   3.497   3.292   1.726 -0.2223  0.0904  0.3025
17986TIP3    H175449   3.510   3.205   1.762  0.2389 -0.3157 -0.8051
17986TIP3    H275450   3.470   3.345   1.801  0.3568 -0.7979  1.1665
17987TIP3   OH275451   6.233   4.628  16.287 -0.0114 -0.5280 -0.5668
17987TIP3    H175452   6.279   4.562  16.339  2.2203 -0.0336 -1.7793
17987TIP3    H275453   6.179   4.578  16.226 -0.8237 -1.1373  0.6196
17988TIP3   OH275454   2.571   6.126   3.554 -0.5003 -0.6396  0.0363
17988TIP3    H175455   2.638   6.059   3.562 -0.6970 -0.7499  0.8171
17988TIP3    H275456   2.576   6.155   3.462  1.6834  0.4851  0.4526
17989TIP3   OH275457   2.731   6.550  12.954 -0.8549 -0.2110 -0.6465
17989TIP3    H175458   2.704   6.641  12.942  0.8117  0.3088 -0.7052
17989TIP3    H275459   2.739   6.539  13.048  0.2478  0.1281 -0.6891
17990TIP3   OH275460   3.459   1.667   0.026  0.2169 -0.1349 -0.1708
17990TIP3    H175461   3.461   1.741  -0.034  0.9935  0.4081  0.5052
17990TIP3    H275462   3.370   1.668   0.062  0.8943  2.0900  1.7442
17991TIP3   OH275463   6.229   6.356   1.396 -0.9275 -0.0639  0.7253
17991TIP3    H175464   6.277   6.425   1.442  1.0219 -1.3671  0.8070
17991TIP3    H275465   6.172   6.318   1.463 -0.1155 -0.1721  1.3878
17992TIP3   OH275466   5.725   4.759   0.767 -0.4608  0.2451  0.3501
17992TIP3    H175467   5.653   4.704   0.738  0.0626 -0.1325 -0.2539
17992TIP3    H275468   5.683   4.841   0.794 -0.9703  0.6658 -1.5776
17993TIP3   OH275469   5.204   0.264  16.877  0.0718  1.0148 -0.3381
17993TIP3    H175470   5.134   0.285  16.939  0.5815  1.0644  0.2321
17993TIP3    H275471   5.193   0.171  16.860  0.3361  0.8486  0.3581
17994TIP3   OH275472   0.240   1.693   3.024 -0.4626 -0.0874 -0.1962
17994TIP3    H175473   0.290   1.635   2.966 -1.3973 -0.0992 -1.0184
17994TIP3    H275474   0.217   1.768   2.969 -2.6343 -0.7704 -0.3135
17995TIP3   OH275475   0.566   0.829  12.844  0.0624  0.1093  0.3961
17995TIP3    H175476   0.613   0.909  12.821  0.2286 -0.3969 -1.0971
17995TIP3    H275477   0.483   0.834  12.796  0.7426 -1.3244 -1.0348
17996TIP3   OH275478   4.373   0.410  11.076  0.0119  0.1719  0.7801
17996TIP3    H175479   4.351   0.326  11.036 -0.3467  0.3024  0.6989
17996TIP3    H275480   4.405   0.463  11.004  0.0481  0.1701  0.7953
17997TIP3   OH275481   4.785   0.519   0.335  0.5143 -1.2202  0.8247
17997TIP3    H175482   4.740   0.499   0.417  0.5977  0.2372  1.2676
17997TIP3    H275483   4.733   0.590   0.297  0.4835 -1.8708 -0.3954
17998TIP3   OH275484   4.485   1.819   2.164  0.3900 -0.0813 -0.6970
17998TIP3    H175485   4.514   1.747   2.108 -0.3888  1.1515 -2.7938
17998TIP3    H275486   4.391   1.827   2.147 -0.1748 -0.4447  1.7885
17999TIP3   OH275487   6.218   2.382  11.623 -0.2824 -0.3963  0.4109
17999TIP3    H175488   6.166   2.462  11.625  0.5990  0.1876  1.7488
17999TIP3    H275489   6.171   2.324  11.564 -0.6675  1.2879 -1.0498
18000TIP3   OH275490   5.776   6.726   3.732  0.3825 -0.6362  0.2990
18000TIP3    H175491   5.860   6.755   3.696 -0.5855  0.0118 -1.6225
18000TIP3    H275492   5.769   6.634   3.707  0.0328 -0.3746 -0.6441
18001TIP3   OH275493   4.112   3.661   3.660  0.0853 -0.1503 -0.0824
18001TIP3    H175494   4.158   3.732   3.615 -0.6347  0.6782  0.4604
18001TIP3    H275495   4.168   3.584   3.646  1.3799  0.7112  0.1388
18002TIP3   OH275496   5.613   5.070  14.733 -0.8054 -0.3603 -0.0674
18002TIP3    H175497   5.605   5.160  14.703 -0.4997  0.2992  1.6630
18002TIP3    H275498   5.526   5.046  14.764 -0.6313 -0.2045  0.5769
18003TIP3   OH275499   6.319   1.693   5.284  0.2302  0.0034  0.1314
18003TIP3    H175500   6.254   1.741   5.334 -0.4074 -0.3458 -0.3393
18003TIP3    H275501   6.277   1.609   5.264  0.4357  0.1560 -1.0285
18004TIP3   OH275502   4.217   2.949  10.787 -0.0284 -0.2544  0.0697
18004TIP3    H175503   4.265   3.030  10.807  1.0201 -1.0995  1.0823
18004TIP3    H275504   4.125   2.975  10.791  0.2850  0.8792  0.4258
18005TIP3   OH275505   0.981   3.163  15.740 -0.3911 -0.2195  0.6298
18005TIP3    H175506   1.017   3.092  15.793  0.4809 -1.0892 -1.0657
18005TIP3    H275507   1.056   3.218  15.719 -0.5286 -0.4884 -0.5984
18006TIP3   OH275508   5.507   3.754   5.313  0.3661 -0.2489  0.1360
18006TIP3    H175509   5.498   3.792   5.226  1.4144  0.3808  0.2923
18006TIP3    H275510   5.423   3.771   5.355  0.5187  1.1713 -0.0901
18007TIP3   OH275511   3.108   4.603   2.921 -0.0272 -0.1823  0.2527
18007TIP3    H175512   3.086   4.516   2.956 -2.5102  0.2296 -0.0511
18007TIP3    H275513   3.139   4.653   2.996 -0.8048 -0.6758  0.9161
18008TIP3   OH275514   3.611   5.195  14.129  0.1862 -0.2547 -0.2573
18008TIP3    H175515   3.642   5.235  14.210  2.7148 -0.1068 -1.2084
18008TIP3    H275516   3.521   5.224  14.121  1.0632  3.0293  0.4812
18009TIP3   OH275517   2.151   5.349   3.424 -0.3398 -0.1324 -0.1454
18009TIP3    H175518   2.223   5.409   3.407 -0.8555  0.5292 -0.0484
18009TIP3    H275519   2.072   5.401   3.407 -0.8361 -1.6468 -3.2012
18010TIP3   OH275520   5.220   1.650   0.712 -0.2838 -0.1129 -0.6993
18010TIP3    H175521   5.208   1.591   0.787 -0.9591 -0.4758 -1.0885
18010TIP3    H275522   5.308   1.629   0.681  1.9549  3.1006  2.6137
18011TIP3   OH275523   1.842   3.834  13.040 -0.2766  0.3319  0.1634
18011TIP3    H175524   1.854   3.859  13.132 -0.0167  0.8482 -0.0134
18011TIP3    H275525   1.748   3.817  13.032 -0.6775  2.4052 -0.0013
18012TIP3   OH275526   3.798   3.017   4.889  0.0993  0.4377  0.1902
18012TIP3    H175527   3.748   3.098   4.893  1.4879  1.2761  1.5630
18012TIP3    H275528   3.810   2.992   4.981  3.6716  1.2537  0.0687
18013TIP3   OH275529   0.226   6.336  10.797  0.0184  0.1218  0.5479
18013TIP3    H175530   0.300   6.357  10.740  0.9619 -1.0334  1.2789
18013TIP3    H275531   0.193   6.253  10.762 -1.3989  0.9521 -0.1821
18014TIP3   OH275532   0.815   0.870  14.518  0.0029  0.2991 -0.6429
18014TIP3    H175533   0.903   0.834  14.503  0.6694  1.5241  0.2150
18014TIP3    H275534   0.830   0.951  14.566 -1.6468  0.2316  0.0338
18015TIP3   OH275535   3.526   2.257  14.936 -0.6926  0.4786  0.0577
18015TIP3    H175536   3.598   2.219  14.988 -1.3760 -1.7402 -0.4821
18015TIP3    H275537   3.452   2.258  14.996 -0.9512 -0.1134 -0.2414
18016TIP3   OH275538   6.046   0.230  10.743 -0.7125  0.5461 -0.2472
18016TIP3    H175539   5.955   0.248  10.721 -0.6251  0.1273 -0.9936
18016TIP3    H275540   6.056   0.136  10.727 -0.2640  0.5041  0.2545
18017TIP3   OH275541   0.107   6.073  12.122 -0.0125 -0.9597  0.8002
18017TIP3    H175542   0.044   6.142  12.145 -0.1012 -0.2136 -1.4597
18017TIP3    H275543   0.156   6.109  12.048  2.1443 -2.1030  1.5940
18018TIP3   OH275544   3.502   2.719  16.719  0.2834 -0.1628 -0.4640
18018TIP3    H175545   3.506   2.660  16.644 -0.3330  1.1820 -1.6178
18018TIP3    H275546   3.420   2.695  16.763  0.9419 -1.3563  0.1605
18019TIP3   OH275547   6.163   4.086   4.941 -0.0972  0.3938  0.7370
18019TIP3    H175548   6.183   4.036   4.862 -0.4354  0.2512  0.7430
18019TIP3    H275549   6.179   4.177   4.917  1.9685  0.1928  1.1521
18020TIP3   OH275550   3.676   6.144   3.398  0.1834  0.1344  0.1299
18020TIP3    H175551   3.595   6.184   3.428 -0.5415 -0.0243 -1.5173
18020TIP3    H275552   3.745   6.191   3.446 -0.8649 -0.0428  1.8962
18021TIP3   OH275553   3.610   3.540   5.822 -0.1898  0.2031 -0.0597
18021TIP3    H175554   3.525   3.531   5.866  0.3834  0.4963  1.1524
18021TIP3    H275555   3.625   3.634   5.819  0.1539  0.1455 -0.1340
18022TIP3   OH275556   5.592   5.980   1.994 -0.6401  0.7297  0.5983
18022TIP3    H175557   5.587   6.052   1.931 -1.7843 -1.2764 -1.7446
18022TIP3    H275558   5.674   5.935   1.973 -1.6490 -0.7067 -0.3677
18023TIP3   OH275559   1.654   4.478  15.778 -0.3628 -0.2830 -0.3195
18023TIP3    H175560   1.722   4.431  15.730 -1.7486 -0.3292 -2.3387
18023TIP3    H275561   1.684   4.477  15.869  1.7129 -1.3533 -0.9644
18024TIP3   OH275562   2.467   2.539  17.168 -0.1236 -0.2432 -0.1051
18024TIP3    H175563   2.408   2.588  17.226  0.9785 -1.1736  1.8771
18024TIP3    H275564   2.475   2.595  17.091 -2.8492  0.3333 -0.0812
18025TIP3   OH275565   4.087   3.574   6.115 -0.1023 -0.2926 -0.0426
18025TIP3    H175566   4.033   3.614   6.182 -0.7510 -0.3628 -0.5134
18025TIP3    H275567   4.066   3.623   6.035  0.3015 -0.5198 -0.2897
18026TIP3   OH275568   5.200   1.588   0.971  0.6710  0.4859 -0.0140
18026TIP3    H175569   5.248   1.607   1.052  1.9082 -1.3983 -0.2357
18026TIP3    H275570   5.196   1.492   0.968  2.4676  0.3655 -3.1252
18027TIP3   OH275571   3.590   0.882   6.163  0.2661 -0.0631  0.0152
18027TIP3    H175572   3.589   0.914   6.253  0.0991 -0.3936  0.1347
18027TIP3    H275573   3.614   0.789   6.171  0.2028 -0.1068 -0.2774
18028TIP3   OH275574   0.357   5.362  11.004  0.2332  0.4116 -0.2404
18028TIP3    H175575   0.357   5.268  10.986 -1.0867  0.6575 -1.7343
18028TIP3    H275576   0.448   5.389  10.996  0.2750 -0.2469 -2.8010
18029TIP3   OH275577   1.420   5.056  10.784 -0.3966  0.0460 -0.1856
18029TIP3    H175578   1.494   5.034  10.727  0.2214 -0.0280  0.6320
18029TIP3    H275579   1.344   5.021  10.738 -0.1005  1.2249 -1.6720
18030TIP3   OH275580   0.747   3.818  11.763  0.5869 -0.1232 -0.1887
18030TIP3    H175581   0.767   3.878  11.691  0.1415 -0.3096 -0.4748
18030TIP3    H275582   0.817   3.833  11.827  1.3783 -0.4403 -0.9566
18031TIP3   OH275583   0.975   1.933   2.213  0.1876  0.1361 -0.1483
18031TIP3    H175584   1.051   1.942   2.272  1.2768  1.5395 -1.6714
18031TIP3    H275585   0.980   2.010   2.156 -1.6633 -0.4293 -1.1389
18032TIP3   OH275586   1.676   1.086  11.498 -0.5470  0.8223  0.0214
18032TIP3    H175587   1.617   1.139  11.553 -0.4371 -0.1354  1.1101
18032TIP3    H275588   1.623   1.063  11.422 -1.2746  0.7572  0.5382
18033TIP3   OH275589   2.624   6.380   4.603 -0.5452 -0.1584 -0.2196
18033TIP3    H175590   2.537   6.372   4.565  0.1475 -0.2551 -1.8638
18033TIP3    H275591   2.608   6.393   4.696 -2.2854 -0.9790 -0.3587
18034TIP3   OH275592   1.041   4.056  13.759  0.0292 -0.1601  0.0567
18034TIP3    H175593   0.969   4.035  13.818  1.0511  0.3120  1.5068
18034TIP3    H275594   1.018   4.012  13.677 -1.0364 -1.4991  1.0327
18035TIP3   OH275595   4.305   5.156   5.731 -0.4662 -0.4222 -0.7119
18035TIP3    H175596   4.308   5.240   5.686 -0.6962  0.1692  0.3442
18035TIP3    H275597   4.234   5.164   5.794  1.1348 -0.4321  1.2140
18036TIP3   OH275598   5.245   5.987   4.353 -0.5656 -0.0347  0.6243
18036TIP3    H175599   5.328   6.028   4.329 -0.1363 -0.2848  1.6077
18036TIP3    H275600   5.188   6.061   4.376 -1.1475  0.2412 -1.5161
18037TIP3   OH275601   4.193   0.355  13.395 -0.5233 -0.1048  0.1676
18037TIP3    H175602   4.109   0.311  13.385 -0.0645 -1.5502  1.9771
18037TIP3    H275603   4.213   0.347  13.488  0.9532  1.5032  0.0439
18038TIP3   OH275604   4.213   4.608  16.219 -0.2193 -0.2793  0.2672
18038TIP3    H175605   4.164   4.689  16.227 -2.5101 -1.7297  2.2811
18038TIP3    H275606   4.163   4.556  16.156 -0.2060 -1.0506  0.8799
18039TIP3   OH275607   3.973   3.828   2.055  0.5428 -0.7311  0.4730
18039TIP3    H175608   3.905   3.765   2.027 -0.4916  0.2044  0.8093
18039TIP3    H275609   4.044   3.816   1.992 -0.4318 -0.9059 -0.6291
18040TIP3   OH275610   1.739   2.836  15.911  0.8408  0.0992  0.3693
18040TIP3    H175611   1.816   2.884  15.942  1.0336  1.4050 -1.8871
18040TIP3    H275612   1.751   2.832  15.816 -1.6175 -0.1534  0.0200
18041TIP3   OH275613   4.442   1.470  13.531 -0.1986  0.1638  0.2059
18041TIP3    H175614   4.379   1.524  13.483  1.5625  0.8790 -1.3786
18041TIP3    H275615   4.447   1.512  13.617  0.0170  1.6590 -0.5007
18042TIP3   OH275616   6.229   6.110  11.061  0.4441 -0.3443 -0.4404
18042TIP3    H175617   6.234   6.195  11.017  2.2255 -0.3059 -0.2164
18042TIP3    H275618   6.217   6.047  10.990  2.1027 -0.1683 -0.9063
18043TIP3   OH275619   2.120   1.005  15.400  0.0651 -0.3941  1.1717
18043TIP3    H175620   2.042   1.006  15.345  0.1024  0.1060  1.1263
18043TIP3    H275621   2.129   0.913  15.428  0.3810 -0.7821 -0.1397
18044TIP3   OH275622   2.928   6.674  13.742  0.3128 -0.2537  0.3827
18044TIP3    H175623   3.021   6.680  13.721 -0.2899  0.9239 -2.4690
18044TIP3    H275624   2.907   6.760  13.780  0.5091 -0.7803  1.7108
18045TIP3   OH275625   0.723   1.611   2.813  0.2115  0.4702 -0.3737
18045TIP3    H175626   0.704   1.702   2.832 -0.5506  0.3992 -0.7610
18045TIP3    H275627   0.800   1.591   2.866  0.4634  1.3682 -0.3848
18046TIP3   OH275628   0.445   6.103   5.021 -0.0791 -0.1630  0.2444
18046TIP3    H175629   0.398   6.114   5.104  2.1398 -0.6718  1.6614
18046TIP3    H275630   0.491   6.020   5.031  1.4470  0.5033 -0.8783
18047TIP3   OH275631   0.711   6.299   1.832  0.1028 -0.5806 -0.0583
18047TIP3    H175632   0.700   6.255   1.916 -0.6286 -0.7489 -0.2385
18047TIP3    H275633   0.687   6.234   1.767 -0.4986 -0.0823 -0.3487
18048TIP3   OH275634   1.888   0.252  13.632 -0.1811 -0.0148  0.4922
18048TIP3    H175635   1.819   0.312  13.659  1.8099  3.3188 -1.0974
18048TIP3    H275636   1.900   0.271  13.539  1.8379 -1.5465  0.3855
18049TIP3   OH275637   2.326   3.849   3.915  0.0957  0.6323 -0.2158
18049TIP3    H175638   2.382   3.787   3.867  0.1318  0.3969  0.1270
18049TIP3    H275639   2.241   3.805   3.919  0.3157  0.2781  0.6719
18050TIP3   OH275640   6.145   6.683  15.917  0.4643 -0.4496 -0.3801
18050TIP3    H175641   6.117   6.642  15.835 -0.4654 -0.2129 -0.1984
18050TIP3    H275642   6.064   6.689  15.969  0.8935  0.1139  0.2380
18051TIP3   OH275643   2.000   2.388  13.656  0.0972 -0.0589  0.1549
18051TIP3    H175644   1.958   2.474  13.651  1.3120  0.4799 -1.7292
18051TIP3    H275645   2.086   2.405  13.693  0.0374 -0.5892  0.5403
18052TIP3   OH275646   2.768   4.373  11.526 -0.5780  0.2422 -0.5744
18052TIP3    H175647   2.820   4.447  11.558  2.0642 -1.4539 -0.6471
18052TIP3    H275648   2.678   4.404  11.530  0.0707  2.2580  2.7218
18053TIP3   OH275649   0.818   4.058  12.060  0.4127 -0.1602 -0.1357
18053TIP3    H175650   0.845   4.148  12.074  0.4374 -0.3428  1.1190
18053TIP3    H275651   0.756   4.062  11.988 -0.5621  1.0370  0.7407
18054TIP3   OH275652   3.129   3.167   2.273  0.0667  0.0838 -0.2524
18054TIP3    H175653   3.163   3.218   2.346  0.1970 -0.9230  0.4202
18054TIP3    H275654   3.164   3.209   2.195 -0.3550  1.3856  0.2318
18055TIP3   OH275655   4.577   5.945  16.302 -0.0649  0.7713  0.4564
18055TIP3    H175656   4.617   5.964  16.388  2.0941  0.4465 -0.4070
18055TIP3    H275657   4.492   5.906  16.323  1.4534 -1.7384  2.5737
18056TIP3   OH275658   4.743   5.198  15.038  0.4680 -0.2078 -0.6499
18056TIP3    H175659   4.728   5.193  15.132  1.7304 -0.3364 -0.4425
18056TIP3    H275660   4.668   5.246  15.004  0.3637  0.4728  0.5167
18057TIP3   OH275661   1.285   2.491  10.946  1.0558  0.0177 -0.4095
18057TIP3    H175662   1.297   2.413  10.891  1.4914  0.4941 -1.0005
18057TIP3    H275663   1.259   2.560  10.885 -0.7667  0.0122  0.3014
18058TIP3   OH275664   4.983   6.433   3.248 -0.0983 -0.3707 -0.0327
18058TIP3    H175665   4.969   6.403   3.338 -1.0350  1.7334  0.6145
18058TIP3    H275666   4.930   6.513   3.242  0.6968  0.0588 -2.1697
18059TIP3   OH275667   5.023   6.559  13.540  0.0634 -0.2352  0.1318
18059TIP3    H175668   4.993   6.613  13.467 -0.9804 -0.6215  0.2487
18059TIP3    H275669   5.060   6.481  13.498 -0.1520 -0.2669 -0.0045
18060TIP3   OH275670   2.618   2.635   5.769  0.3352 -0.3506  0.2026
18060TIP3    H175671   2.664   2.646   5.852  1.3969  0.0777 -0.4280
18060TIP3    H275672   2.610   2.541   5.757 -0.0106 -0.4139  0.8765
18061TIP3   OH275673   0.173   0.369   1.737  0.2049  0.6189 -0.1645
18061TIP3    H175674   0.205   0.459   1.744  1.5036  0.2124 -0.6154
18061TIP3    H275675   0.173   0.336   1.827  0.3906  0.8553 -0.0778
18062TIP3   OH275676   0.600   4.502  13.821 -0.9285 -0.0662 -0.1972
18062TIP3    H175677   0.639   4.558  13.754 -2.1914 -0.6470 -1.4770
18062TIP3    H275678   0.664   4.434  13.837  0.3967  1.3784  0.9716
18063TIP3   OH275679   0.079   2.284   3.767 -0.1175  0.0973  0.5606
18063TIP3    H175680   0.032   2.253   3.690  0.9890  2.9468 -1.4503
18063TIP3    H275681   0.012   2.331   3.818 -0.4296 -0.0097  0.2515
18064TIP3   OH275682   5.813   5.686   5.948  0.5266  0.1663 -0.2706
18064TIP3    H175683   5.764   5.735   6.013  1.4857  2.3686 -1.1031
18064TIP3    H275684   5.753   5.617   5.919 -0.7476  0.5878  1.2358
18065TIP3   OH275685   4.471   1.525  16.859  0.4023  0.0624  0.2482
18065TIP3    H175686   4.422   1.509  16.939 -0.1904 -1.7127 -0.4223
18065TIP3    H275687   4.408   1.507  16.788  1.0053  1.2601 -0.6274
18066TIP3   OH275688   2.513   3.503  13.002  0.3855  0.1009 -0.2379
18066TIP3    H175689   2.588   3.521  12.944  0.6726  0.4111  0.2262
18066TIP3    H275690   2.452   3.574  12.984 -0.1031 -0.5199 -1.1099
18067TIP3   OH275691   4.511   2.055   0.936 -0.0755 -0.1001 -0.4385
18067TIP3    H175692   4.508   2.117   1.009  1.5682  1.6700 -1.7927
18067TIP3    H275693   4.556   1.979   0.971  0.0609  0.4313  0.5862
18068TIP3   OH275694   3.555   4.673   1.773  0.3223 -0.3490  0.0732
18068TIP3    H175695   3.530   4.688   1.864  2.2332  0.8623  0.4378
18068TIP3    H275696   3.472   4.655   1.728 -0.7315 -0.2532  1.8944
18069TIP3   OH275697   1.845   5.443   4.593 -0.4933 -0.1694  0.0292
18069TIP3    H175698   1.896   5.517   4.626  0.9453 -1.3059  0.4630
18069TIP3    H275699   1.839   5.384   4.668 -4.1824  0.7109  0.6329
18070TIP3   OH275700   5.676   2.277   0.382 -0.0439  0.3668 -0.3705
18070TIP3    H175701   5.743   2.327   0.336  0.4259  0.2678  0.1986
18070TIP3    H275702   5.679   2.190   0.341  0.1546  0.3718 -0.3672
18071TIP3   OH275703   2.416   2.188   6.028  0.1899  0.9505  0.2983
18071TIP3    H175704   2.453   2.276   6.037  0.0848  1.0897 -0.5042
18071TIP3    H275705   2.478   2.131   6.074  1.0051  1.2756 -0.3692
18072TIP3   OH275706   2.775   2.315  11.078  0.1264  0.1870 -0.6777
18072TIP3    H175707   2.832   2.241  11.058  1.3029  0.7604  0.3982
18072TIP3    H275708   2.723   2.328  10.999  0.7608 -1.0102 -1.3132
18073TIP3   OH275709   2.053   6.656  12.938  0.4475  0.2775 -0.4762
18073TIP3    H175710   2.058   6.751  12.933 -1.5106  0.3655 -1.7731
18073TIP3    H275711   2.004   6.630  12.860  1.8407 -1.9042 -0.7164
18074TIP3   OH275712   3.366   2.813  14.700 -0.1079  0.1251 -0.2282
18074TIP3    H175713   3.309   2.889  14.710 -0.5606 -0.1015 -0.9264
18074TIP3    H275714   3.333   2.770  14.621  1.0483 -0.0100 -0.6519
18075TIP3   OH275715   4.370   1.944  11.140 -0.1969 -0.4287  0.4960
18075TIP3    H175716   4.321   2.014  11.183  1.2658 -0.3363  2.1311
18075TIP3    H275717   4.458   1.979  11.130  0.4376 -1.8304  0.8807
18076TIP3   OH275718   1.403   2.624  13.384  0.0056 -0.5313 -0.4562
18076TIP3    H175719   1.324   2.668  13.352  0.5851 -0.1200 -1.3517
18076TIP3    H275720   1.416   2.660  13.472 -2.2357 -2.4973  0.7915
18077TIP3   OH275721   0.924   3.346   5.329  0.1259 -0.1309  1.1884
18077TIP3    H175722   0.900   3.438   5.336 -1.6017 -0.3787 -0.4551
18077TIP3    H275723   1.010   3.347   5.287 -1.5532  0.8406 -2.7913
18078TIP3   OH275724   1.599   1.330  10.966  0.3557  0.0074 -0.1996
18078TIP3    H175725   1.636   1.416  10.949  0.6883  0.1945  1.3160
18078TIP3    H275726   1.668   1.283  11.013 -0.4323 -0.4856  0.4972
18079TIP3   OH275727   2.196   3.505   4.736 -0.3924 -0.4126 -0.2355
18079TIP3    H175728   2.199   3.425   4.684  2.7806 -0.7565  0.2719
18079TIP3    H275729   2.139   3.484   4.810 -0.5713 -1.7731 -0.7420
18080TIP3   OH275730   3.214   4.713  14.387  0.4025  0.6835 -0.9389
18080TIP3    H175731   3.279   4.731  14.318 -0.4370  2.6197 -1.3211
18080TIP3    H275732   3.221   4.788  14.446  2.3201 -1.7222  2.2254
18081TIP3   OH275733   0.299   0.993   1.960 -0.1664  0.6960 -0.2588
18081TIP3    H175734   0.210   1.004   1.927  0.0731  1.6370 -0.6143
18081TIP3    H275735   0.290   0.995   2.055 -0.4538  1.3983 -0.2977
18082TIP3   OH275736   4.052   2.409   1.484 -0.0288 -0.5471  0.1453
18082TIP3    H175737   4.115   2.352   1.440  0.2230 -0.8100  0.8337
18082TIP3    H275738   3.978   2.414   1.424 -0.0910 -1.6759  0.1056
18083TIP3   OH275739   1.929   5.446  13.659  0.1550  0.6739  0.2839
18083TIP3    H175740   1.862   5.392  13.701  0.5547 -0.3628 -0.3654
18083TIP3    H275741   1.900   5.454  13.568  1.5351 -0.9197 -0.3498
18084TIP3   OH275742   1.145   6.253  12.319  0.0980 -0.4825 -0.6875
18084TIP3    H175743   1.079   6.216  12.260  1.3348 -0.8450 -1.9095
18084TIP3    H275744   1.197   6.311  12.263  0.1981  0.6011  0.4803
18085TIP3   OH275745   0.473   0.230  12.936  0.1630  0.0554  0.8250
18085TIP3    H175746   0.514   0.306  12.976 -0.9707  1.7082 -0.9657
18085TIP3    H275747   0.394   0.216  12.987  0.3802  0.0741  1.1689
18086TIP3   OH275748   4.028   5.208   4.812 -0.0329 -0.5180 -0.6509
18086TIP3    H175749   3.997   5.202   4.903  1.2496 -0.0381 -0.1596
18086TIP3    H275750   3.965   5.265   4.769 -0.3036 -0.2364  0.1103
18087TIP3   OH275751   3.722   6.828   5.233  0.0720  0.4461 -0.0711
18087TIP3    H175752   3.718   6.923   5.220 -0.4760  0.4008 -0.2942
18087TIP3    H275753   3.638   6.796   5.199  1.0804 -0.3473 -1.9484
18088TIP3   OH275754   0.559   3.759   5.285 -0.5116 -0.4289  0.1737
18088TIP3    H175755   0.503   3.763   5.362  0.6830  2.4310  1.0378
18088TIP3    H275756   0.546   3.843   5.241  1.8695 -0.3061 -0.4494
18089TIP3   OH275757   2.443   2.031   2.797  0.0554 -0.2587 -0.3366
18089TIP3    H175758   2.400   2.012   2.714 -0.3523 -1.4657  0.1209
18089TIP3    H275759   2.450   2.126   2.800 -3.0257  0.0739 -0.2484
18090TIP3   OH275760   4.557   2.241   3.388 -0.7333  0.2576  0.0854
18090TIP3    H175761   4.601   2.157   3.375  1.9449  1.3686  1.1632
18090TIP3    H275762   4.464   2.221   3.378 -0.0917 -2.3309 -2.1244
18091TIP3   OH275763   4.006   5.422   4.361 -0.3859  0.0422 -0.2303
18091TIP3    H175764   3.937   5.487   4.348  0.5865  1.1956  0.1623
18091TIP3    H275765   4.071   5.466   4.416  0.0889 -1.4319  0.4479
18092TIP3   OH275766   6.465   3.833  14.547  0.5170  0.1664 -0.2787
18092TIP3    H175767   6.409   3.816  14.470  1.1526 -1.2693 -0.4393
18092TIP3    H275768   6.444   3.924  14.570  1.5383  1.2753 -3.1813
18093TIP3   OH275769   3.939   2.756  11.452 -0.2006  0.6541  0.4033
18093TIP3    H175770   4.011   2.695  11.436 -0.0981  1.0855 -0.9528
18093TIP3    H275771   3.904   2.731  11.537 -0.0643 -1.2070 -0.0406
18094TIP3   OH275772   3.282   0.197   1.555  0.1658 -0.2553  0.4085
18094TIP3    H175773   3.355   0.258   1.565  0.3800 -0.7672  2.3798
18094TIP3    H275774   3.243   0.192   1.642 -1.2643 -1.2000 -0.2452
18095TIP3   OH275775   0.138   6.488  11.928 -0.1026  0.7876  0.2287
18095TIP3    H175776   0.185   6.476  11.846  0.9400  0.5459  0.8464
18095TIP3    H275777   0.067   6.424  11.924  0.0103  0.6971 -0.4270
18096TIP3   OH275778   1.537   1.445   4.615  0.0565  0.1200  0.1785
18096TIP3    H175779   1.576   1.530   4.594 -2.1645  0.9752 -0.7518
18096TIP3    H275780   1.603   1.402   4.670  1.7442  1.9431 -0.2916
18097TIP3   OH275781   2.863   5.388  14.114  0.0048  0.3510 -0.2885
18097TIP3    H175782   2.806   5.316  14.085  0.2291  0.4112 -0.8904
18097TIP3    H275783   2.850   5.456  14.049  0.3503  0.5783 -0.1215
18098TIP3   OH275784   2.352   1.279  16.597  0.4028 -0.0863  0.4323
18098TIP3    H175785   2.316   1.216  16.659 -0.2755 -0.3057 -0.1788
18098TIP3    H275786   2.327   1.364  16.633 -0.4485 -0.2247  0.2018
18099TIP3   OH275787   5.232   1.986   6.607  0.4184 -0.0629 -0.5133
18099TIP3    H175788   5.297   1.946   6.549 -0.4627 -1.1421 -0.7871
18099TIP3    H275789   5.158   1.926   6.606 -0.3842  0.8702  0.2214
18100TIP3   OH275790   3.534   0.601   0.351  0.1013 -0.2871  0.0017
18100TIP3    H175791   3.567   0.601   0.441 -0.2974  0.6514  0.1611
18100TIP3    H275792   3.457   0.544   0.354  1.0579 -1.6201 -0.1361
18101TIP3   OH275793   4.723   3.253   4.088 -0.1574 -0.4398  0.2081
18101TIP3    H175794   4.632   3.283   4.090 -1.2457 -3.3131 -1.0457
18101TIP3    H275795   4.743   3.228   4.178 -1.2222 -1.3166  0.2228
18102TIP3   OH275796   2.270   6.159   4.262  0.1593  0.1063  0.3317
18102TIP3    H175797   2.274   6.226   4.194 -0.8213  1.4600  1.5411
18102TIP3    H275798   2.351   6.170   4.311  0.3188 -0.0747  0.1128
18103TIP3   OH275799   5.418   1.196   5.390 -1.2521 -0.5693 -0.3858
18103TIP3    H175800   5.403   1.144   5.469 -0.2967  0.8804  0.8031
18103TIP3    H275801   5.511   1.183   5.370 -1.5184 -1.0365 -1.3796
18104TIP3   OH275802   4.213   4.892   5.146  0.2557 -0.1140  0.6929
18104TIP3    H175803   4.139   4.896   5.207 -0.9028  3.5355 -0.7100
18104TIP3    H275804   4.290   4.888   5.202 -0.8580 -1.0291  2.2577
18105TIP3   OH275805   0.502   2.401  12.943  0.1611 -0.6763 -0.2012
18105TIP3    H175806   0.589   2.429  12.971 -0.3020 -0.9858  1.6808
18105TIP3    H275807   0.442   2.462  12.986 -0.5786 -0.2544 -1.7331
18106TIP3   OH275808   2.600   4.075   6.352 -0.5405  0.1817  0.6727
18106TIP3    H175809   2.578   4.163   6.382 -0.4748  1.7755 -3.3878
18106TIP3    H275810   2.694   4.078   6.335 -0.4655 -0.8368  0.8033
18107TIP3   OH275811   4.208   5.527  12.009  0.1740 -0.4794  0.2941
18107TIP3    H175812   4.192   5.620  12.020  0.7853 -0.1312 -1.4591
18107TIP3    H275813   4.147   5.500  11.940  0.0247 -1.3829  0.7550
18108TIP3   OH275814   5.117   0.829   5.503  0.2949 -0.2252 -0.2163
18108TIP3    H175815   5.082   0.903   5.552  0.5243 -0.7630  0.8035
18108TIP3    H275816   5.165   0.869   5.430  1.3233  0.6848  0.9208
18109TIP3   OH275817   0.965   2.842  15.569 -0.0760  0.4748  0.0101
18109TIP3    H175818   0.953   2.929  15.532 -0.5738  0.4864  0.1894
18109TIP3    H275819   0.923   2.784  15.505 -1.3660  0.5358  0.7679
18110TIP3   OH275820   3.866   4.958  10.379  0.4516 -0.6881  0.4058
18110TIP3    H175821   3.789   4.939  10.432 -0.9326 -2.6054 -2.0599
18110TIP3    H275822   3.831   4.981  10.293  2.5819 -1.8005 -0.8606
18111TIP3   OH275823   1.255   0.724  12.802  0.1698  0.2056 -0.1258
18111TIP3    H175824   1.230   0.707  12.711  1.4812  2.1913 -0.9140
18111TIP3    H275825   1.349   0.703  12.805 -0.3904 -2.7301  1.6149
18112TIP3   OH275826   6.151   5.089  15.717  0.6088 -0.4840  0.1811
18112TIP3    H175827   6.152   5.137  15.634  0.2443  1.1843  1.0855
18112TIP3    H275828   6.116   5.152  15.780  0.8059 -1.7365  1.5927
18113TIP3   OH275829   0.726   3.867   4.903  0.2148 -0.3650 -0.4372
18113TIP3    H175830   0.746   3.945   4.851 -1.4687  0.1347 -0.3957
18113TIP3    H275831   0.764   3.885   4.989  0.2901  0.1962 -0.5822
18114TIP3   OH275832   1.306   1.962   2.707  0.3054  0.3443  0.7048
18114TIP3    H175833   1.227   1.914   2.681  1.6710 -0.9576 -1.3661
18114TIP3    H275834   1.356   1.900   2.760  0.3386  0.8835  1.3285
18115TIP3   OH275835   3.544   3.280   6.306  0.4190 -0.0740 -0.2941
18115TIP3    H175836   3.458   3.289   6.265  1.1442 -0.1807 -1.9233
18115TIP3    H275837   3.556   3.360   6.357 -0.0829  0.5608 -1.1638
18116TIP3   OH275838   4.733   3.841   6.404 -0.4328  0.0667 -0.2695
18116TIP3    H175839   4.815   3.792   6.403 -0.3596  0.1840 -0.0505
18116TIP3    H275840   4.678   3.795   6.469  0.1283  1.0660  0.9442
18117TIP3   OH275841   6.420   3.866   1.663  0.4314 -0.0084  0.4903
18117TIP3    H175842   6.421   3.869   1.758 -0.3460 -0.1113  0.5100
18117TIP3    H275843   6.473   3.941   1.636  0.0276  0.4762  1.0048
18118TIP3   OH275844   1.742   6.645   3.472 -0.3174  0.7639 -0.3991
18118TIP3    H175845   1.661   6.593   3.475 -0.2577  0.7308  0.9085
18118TIP3    H275846   1.720   6.719   3.416 -1.3275  0.8640  0.1070
18119TIP3   OH275847   3.918   4.568  13.262  0.1489  0.0205  0.3787
18119TIP3    H175848   4.008   4.591  13.284 -0.4027  1.9979  0.7685
18119TIP3    H275849   3.874   4.560  13.347  0.0443 -1.4713  0.2099
18120TIP3   OH275850   5.055   0.042  15.053  0.5266  0.3066  0.2181
18120TIP3    H175851   5.042   0.005  14.966  0.9793  0.0632  0.2521
18120TIP3    H275852   4.966   0.061  15.085  0.2883 -0.7123  0.1877
18121TIP3   OH275853   3.816   0.328   0.860 -0.1565  0.2503  0.3388
18121TIP3    H175854   3.872   0.282   0.921  0.4563 -0.9247 -1.0463
18121TIP3    H275855   3.730   0.329   0.902  0.1297 -0.9875  0.9902
18122TIP3   OH275856   0.334   0.500   4.966  0.3511  0.2788  0.3880
18122TIP3    H175857   0.289   0.507   5.051  1.3651  0.1714  0.9484
18122TIP3    H275858   0.379   0.584   4.956 -0.0346  0.4206 -0.2161
18123TIP3   OH275859   0.900   2.422  11.502 -0.0342 -0.1412 -0.3688
18123TIP3    H175860   0.822   2.382  11.540  1.5162 -1.3838  1.7093
18123TIP3    H275861   0.970   2.357  11.516  1.7664  1.6820 -0.4489
18124TIP3   OH275862   5.751   3.339   1.175  0.1672  1.1099  0.3738
18124TIP3    H175863   5.809   3.355   1.249 -0.2849 -0.3784  1.0764
18124TIP3    H275864   5.663   3.339   1.213 -0.1382  1.1833 -0.3155
18125TIP3   OH275865   0.945   3.071  13.222 -0.5777 -0.4239 -0.3483
18125TIP3    H175866   0.887   3.146  13.208 -2.6740 -1.7129  0.9298
18125TIP3    H275867   1.029   3.110  13.246 -1.7917  1.5527  1.0325
18126TIP3   OH275868   2.804   4.893  14.945  0.1361 -0.3462  0.1668
18126TIP3    H175869   2.859   4.927  14.875  0.6279 -0.1665  0.6329
18126TIP3    H275870   2.715   4.915  14.919  0.4547  1.6615  0.6187
18127TIP3   OH275871   4.347   5.338   0.884 -0.2080  0.4093  0.2129
18127TIP3    H175872   4.360   5.259   0.937 -2.4397  0.3145  0.6803
18127TIP3    H275873   4.385   5.408   0.937 -0.6937  0.0397  1.0641
18128TIP3   OH275874   4.416   2.626   2.264 -0.4909 -0.1296 -0.0297
18128TIP3    H175875   4.414   2.722   2.271 -2.0851 -0.2436  1.6133
18128TIP3    H275876   4.325   2.601   2.251 -0.2153 -1.4920  0.5854
18129TIP3   OH275877   2.649   0.506  13.512 -0.3303  0.2675 -0.2322
18129TIP3    H175878   2.632   0.501  13.606  1.0819  0.6426  0.0696
18129TIP3    H275879   2.567   0.479  13.471 -0.8598 -0.2353  1.1059
18130TIP3   OH275880   1.737   2.404   3.070 -0.5702 -0.3116  0.0386
18130TIP3    H175881   1.806   2.428   3.008 -1.1393  0.5943 -0.2495
18130TIP3    H275882   1.664   2.378   3.015  0.2163 -3.5471  0.2883
18131TIP3   OH275883   4.589   3.895   5.033 -0.3491 -0.1128  0.6597
18131TIP3    H175884   4.544   3.919   5.114  1.2851  0.4051  1.4613
18131TIP3    H275885   4.520   3.861   4.976 -1.5685 -0.3181  2.1953
18132TIP3   OH275886   6.591   1.535  16.399 -0.1273 -0.4535 -0.0742
18132TIP3    H175887   6.638   1.485  16.332 -0.2008 -0.8953  0.2015
18132TIP3    H275888   6.659   1.566  16.459 -0.1403 -0.7434  0.0936
18133TIP3   OH275889   5.455   1.621   0.606 -0.1019 -0.4073  0.3334
18133TIP3    H175890   5.483   1.531   0.623  1.2461 -0.3927 -1.5316
18133TIP3    H275891   5.502   1.647   0.527 -2.3621  1.0987 -0.6260
18134TIP3   OH275892   6.618   6.374  13.469  0.5122  0.7080  0.0699
18134TIP3    H175893   6.622   6.290  13.515  0.6550  0.6946  0.0338
18134TIP3    H275894   6.562   6.429  13.524  0.5430  0.6373  0.1729
18135TIP3   OH275895   2.365   2.382   0.222  0.2126 -0.4292  0.0800
18135TIP3    H175896   2.410   2.325   0.160  1.0480  0.0480  0.2364
18135TIP3    H275897   2.422   2.385   0.298 -1.3591 -1.9688  1.3993
18136TIP3   OH275898   3.263   3.451  13.096  0.3008  0.0631  0.4373
18136TIP3    H175899   3.247   3.452  13.002  0.6976  2.1753  0.3230
18136TIP3    H275900   3.218   3.529  13.128 -0.5000 -1.0482  2.1525
18137TIP3   OH275901   5.918   1.139  14.443 -0.3499  0.1110  0.1015
18137TIP3    H175902   5.996   1.173  14.488  0.2844  0.5689 -1.2866
18137TIP3    H275903   5.926   1.044  14.450 -0.3645  0.1737  1.1039
18138TIP3   OH275904   6.659   3.686   5.864  0.0810 -0.6865 -0.5887
18138TIP3    H175905   6.650   3.601   5.822 -0.6922 -0.3532 -1.1067
18138TIP3    H275906   6.718   3.670   5.938  0.4052 -1.5446 -1.0206
18139TIP3   OH275907   1.720   5.227  16.994  0.2039  0.2072 -0.4861
18139TIP3    H175908   1.811   5.205  17.013  0.5704  0.9320 -1.3182
18139TIP3    H275909   1.708   5.314  17.031  0.2782  0.7049 -1.6100
18140TIP3   OH275910   2.517   4.350   2.707  0.2083 -0.6221 -0.2273
18140TIP3    H175911   2.443   4.407   2.686  0.8527  0.9452  1.4266
18140TIP3    H275912   2.483   4.288   2.771  0.2405 -0.0834  0.3183
18141TIP3   OH275913   4.410   5.312  15.622 -0.0181  0.1563  0.0891
18141TIP3    H175914   4.324   5.307  15.580  0.2828  1.0840 -0.6872
18141TIP3    H275915   4.465   5.356  15.557  0.8993  0.0748  0.7986
18142TIP3   OH275916   1.857   1.513  14.456 -0.0702 -0.9137  0.1101
18142TIP3    H175917   1.822   1.433  14.496  1.0158 -0.9612  1.0005
18142TIP3    H275918   1.927   1.482  14.398  0.2303 -0.6262  0.3201
18143TIP3   OH275919   6.101   6.403   2.021 -0.2079  0.4474 -0.0873
18143TIP3    H175920   6.136   6.343   1.956  0.1796  1.6237 -1.0010
18143TIP3    H275921   6.120   6.361   2.105  1.5360  0.0614 -0.6345
18144TIP3   OH275922   2.384   3.360  11.054 -0.1841 -0.3293 -0.0663
18144TIP3    H175923   2.435   3.428  11.100 -0.0899 -1.3374  1.3716
18144TIP3    H275924   2.405   3.374  10.961 -0.3072  1.7158  0.1561
18145TIP3   OH275925   3.841   0.027  11.583 -0.3494  0.0338 -0.7099
18145TIP3    H175926   3.777   0.057  11.647 -1.3660 -1.1345 -1.1306
18145TIP3    H275927   3.808   0.061  11.499  0.3582  0.6070 -0.7645
18146TIP3   OH275928   1.009   1.857   3.344 -0.3079 -0.4005  0.0259
18146TIP3    H175929   0.915   1.842   3.337 -0.4050  0.0025  0.4215
18146TIP3    H275930   1.018   1.952   3.350  0.0091 -0.5042  1.5895
18147TIP3   OH275931   0.972   2.534  16.701 -0.3840  0.3674  0.8516
18147TIP3    H175932   0.935   2.607  16.651  0.6985  0.8071  0.6555
18147TIP3    H275933   1.023   2.577  16.770 -1.5328 -0.2205  2.1247
18148TIP3   OH275934   1.680   2.857  10.408  0.2810  0.2765  0.0283
18148TIP3    H175935   1.645   2.945  10.407 -1.2998 -0.1629  3.5078
18148TIP3    H275936   1.771   2.868  10.435 -0.4360  0.8322  2.4620
18149TIP3   OH275937   5.128   3.488  16.457  0.1702  0.1527  0.1809
18149TIP3    H175938   5.081   3.434  16.394 -0.3934  0.9585 -0.1027
18149TIP3    H275939   5.159   3.563  16.406  0.8271  0.1688  0.5923
18150TIP3   OH275940   1.135   0.888  13.817 -0.4473 -0.0105  0.1793
18150TIP3    H175941   1.061   0.908  13.874 -0.1264 -0.2311  0.6783
18150TIP3    H275942   1.130   0.794  13.802 -0.6275  0.0714 -0.2990
18151TIP3   OH275943   0.654   1.491  11.307  0.2163 -0.1873  0.5184
18151TIP3    H175944   0.631   1.525  11.393 -0.6863  1.0945 -0.1967
18151TIP3    H275945   0.608   1.408  11.300  0.4524 -0.3923  1.3377
18152TIP3   OH275946   3.648   0.285  11.374  0.3527  0.7702 -0.3481
18152TIP3    H175947   3.729   0.242  11.347  0.1182  0.4593 -0.5743
18152TIP3    H275948   3.580   0.219  11.359  0.0695  1.0015 -0.0907
18153TIP3   OH275949   0.047   2.899   2.305  0.6236  0.0328 -0.3944
18153TIP3    H175950   0.127   2.854   2.279 -0.0625 -0.2309 -2.1641
18153TIP3    H275951   0.007   2.928   2.223 -1.1294  0.1154  0.4353
18154TIP3   OH275952   1.675   2.514   0.957  0.6623  0.1486 -1.1088
18154TIP3    H175953   1.677   2.451   1.029 -0.0910  2.2343  0.8661
18154TIP3    H275954   1.730   2.474   0.889  2.6257 -1.3003  1.1604
18155TIP3   OH275955   0.016   2.311   2.633  0.4620 -0.3989  0.1236
18155TIP3    H175956  -0.038   2.236   2.610 -0.7752 -0.0079  1.5674
18155TIP3    H275957   0.051   2.342   2.549 -0.8312 -1.2178 -0.7562
18156TIP3   OH275958   0.396   1.214  11.527 -0.8280  0.0116 -0.4230
18156TIP3    H175959   0.368   1.242  11.614  2.1479  0.7191  0.4257
18156TIP3    H275960   0.402   1.119  11.533 -0.0870  0.0955  0.3706
18157TIP3   OH275961   5.635   1.757  14.399  0.3900 -0.5531  0.1856
18157TIP3    H175962   5.662   1.837  14.354 -0.6746  0.0183  0.5438
18157TIP3    H275963   5.717   1.709  14.411  0.8349 -0.2942 -1.4963
18158TIP3   OH275964   2.942   6.175   5.411 -0.4147  0.1756  0.0353
18158TIP3    H175965   2.980   6.132   5.335 -0.8167  1.4311 -0.9024
18158TIP3    H275966   2.912   6.103   5.466 -0.6265 -0.7512 -1.2474
18159TIP3   OH275967   3.218   1.772  15.038 -0.3912  0.5003  0.5010
18159TIP3    H175968   3.152   1.826  14.994  1.1180  1.8258 -0.2222
18159TIP3    H275969   3.278   1.835  15.077 -0.6302 -0.6695  2.9061
18160TIP3   OH275970   2.766   1.121   4.843 -0.4135 -0.1446 -0.8928
18160TIP3    H175971   2.687   1.175   4.837 -0.3728 -0.0174 -0.3421
18160TIP3    H275972   2.804   1.125   4.755 -0.5017  0.5955 -0.9054
18161TIP3   OH275973   3.877   0.034   1.584 -0.2261  0.0192  0.5361
18161TIP3    H175974   3.830  -0.014   1.652  0.0203 -0.3452  0.4524
18161TIP3    H275975   3.921  -0.034   1.533 -1.0027  0.2235 -0.4400
18162TIP3   OH275976   4.213   5.433   4.627 -0.3241 -0.2434 -0.1995
18162TIP3    H175977   4.162   5.376   4.685 -0.6704 -0.3063 -0.5623
18162TIP3    H275978   4.294   5.385   4.613  0.6837  0.7041  1.9322
18163TIP3   OH275979   4.431   0.358  17.134  0.0590 -0.4081  0.1185
18163TIP3    H175980   4.370   0.286  17.117  0.1547 -0.9476  1.7941
18163TIP3    H275981   4.468   0.337  17.220 -0.5028  2.0501  1.0393
18164TIP3   OH275982   0.989   1.240  11.380  0.1918 -0.6526  0.0507
18164TIP3    H175983   1.042   1.272  11.453 -1.1277  2.1555 -0.1039
18164TIP3    H275984   1.052   1.215  11.313  1.3560 -0.2479  0.9700
18165TIP3   OH275985   5.375   1.591   2.214 -0.6536 -0.0694  0.3267
18165TIP3    H175986   5.281   1.601   2.199 -0.4048  0.0416 -1.3669
18165TIP3    H275987   5.381   1.544   2.297 -2.2508 -1.5179 -0.3116
18166TIP3   OH275988   5.426   6.547  12.171 -0.3986 -0.1744 -0.0952
18166TIP3    H175989   5.475   6.623  12.143  0.1953 -0.1741  0.9225
18166TIP3    H275990   5.458   6.528  12.259 -2.1841 -0.1880  0.6015
18167TIP3   OH275991   2.809   2.085  15.011 -0.7034 -0.7055  0.0907
18167TIP3    H175992   2.801   2.124  15.099  0.7579  0.3468 -0.1941
18167TIP3    H275993   2.719   2.072  14.982 -1.2295 -1.7057  1.9970
18168TIP3   OH275994   6.626   0.372  14.202  0.0486 -0.2940  0.2266
18168TIP3    H175995   6.628   0.313  14.127  1.1471  0.2527 -0.1846
18168TIP3    H275996   6.684   0.444  14.178 -1.5176  1.1390  0.5863
18169TIP3   OH275997   5.979   4.114  14.740  0.2850 -0.1724  0.0275
18169TIP3    H175998   5.911   4.065  14.693  0.2801  1.0199 -1.2575
18169TIP3    H275999   6.053   4.053  14.746 -0.1409 -0.7495 -0.4711
18170TIP3   OH276000   4.971   6.547   1.707  0.6528 -0.2164 -0.3505
18170TIP3    H176001   5.045   6.497   1.741  1.0076 -0.0329 -0.8433
18170TIP3    H276002   4.970   6.529   1.613  1.4850  1.5629 -0.7419
18171TIP3   OH276003   2.630   6.194  12.127 -0.2853 -0.6432  0.4930
18171TIP3    H176004   2.632   6.197  12.031 -0.6088  1.2266  0.5028
18171TIP3    H276005   2.553   6.141  12.148 -1.0946  0.1771 -0.3020
18172TIP3   OH276006   2.793   0.586  13.047  0.4336  0.0751  0.0051
18172TIP3    H176007   2.736   0.662  13.031 -0.1726 -0.9153 -3.3329
18172TIP3    H276008   2.733   0.513  13.062  0.9219 -0.2692  0.3077
18173TIP3   OH276009   0.427   0.619  16.057  0.1553 -0.9724 -0.0448
18173TIP3    H176010   0.498   0.614  16.121  0.1329  1.8656  0.3251
18173TIP3    H276011   0.347   0.608  16.109  0.2151 -0.9224  0.0582
18174TIP3   OH276012   6.837   0.530  14.167  0.1393 -0.2635  0.2089
18174TIP3    H176013   6.888   0.560  14.092  0.2786  0.3545  0.5515
18174TIP3    H276014   6.887   0.456  14.202 -0.6913 -1.5739 -1.2181
18175TIP3   OH276015   5.593   0.086   4.195  0.0024  0.1241 -0.7021
18175TIP3    H176016   5.588   0.173   4.233  0.8422  0.2168 -0.7935
18175TIP3    H276017   5.562   0.097   4.105  0.1903  0.3400 -0.7384
18176TIP3   OH276018   3.539   2.716  12.677  0.5112  0.3624  0.0308
18176TIP3    H176019   3.532   2.636  12.625 -0.3952 -1.0627  2.2006
18176TIP3    H276020   3.473   2.706  12.746  0.8740  2.6659  0.8076
18177TIP3   OH276021   1.372   2.163  15.146 -0.2532 -0.3191  0.8185
18177TIP3    H176022   1.390   2.152  15.053  1.0742  0.6658  0.9296
18177TIP3    H276023   1.397   2.253  15.165 -1.3588 -0.2179  1.9563
18178TIP3   OH276024   2.159   5.948   0.957  0.0286  0.3159 -1.0751
18178TIP3    H176025   2.171   5.854   0.943 -0.6919  0.0590 -0.0866
18178TIP3    H276026   2.247   5.985   0.948  0.7336 -0.7692  0.7154
18179TIP3   OH276027   6.478   2.557  16.387 -0.2087  0.0968  0.6338
18179TIP3    H176028   6.525   2.477  16.364  0.0728 -0.3002  2.4485
18179TIP3    H276029   6.385   2.531  16.389 -0.1427 -0.1300  0.9310
18180TIP3   OH276030   2.386   1.699  13.124 -0.1521  0.1997 -0.0043
18180TIP3    H176031   2.444   1.630  13.092  1.4188  2.5172 -2.4929
18180TIP3    H276032   2.439   1.778  13.123 -2.5033  1.8887  0.5689
18181TIP3   OH276033   5.726   4.242   5.531  0.0114 -0.4795 -0.0920
18181TIP3    H176034   5.668   4.199   5.593 -0.0245 -0.9216 -0.4303
18181TIP3    H276035   5.778   4.171   5.493 -0.6071 -0.3397 -1.2421
18182TIP3   OH276036   0.525   2.049   5.752  0.3834  0.2864  0.1202
18182TIP3    H176037   0.505   2.055   5.658  0.5960 -2.3889 -0.1650
18182TIP3    H276038   0.561   2.135   5.774  0.8334  0.8150 -2.3772
18183TIP3   OH276039   3.317   4.100  10.170  0.0576 -0.0110 -0.1732
18183TIP3    H176040   3.411   4.119  10.175  0.2274 -1.0207  0.9645
18183TIP3    H276041   3.311   4.007  10.192 -1.0910 -0.3242 -1.6467
18184TIP3   OH276042   2.226   6.076  13.628 -0.2732 -0.0079  0.3371
18184TIP3    H176043   2.171   6.154  13.625  1.3993  1.2152 -1.9808
18184TIP3    H276044   2.203   6.026  13.550  1.0413 -0.0685 -0.0418
18185TIP3   OH276045   3.860   2.753  12.176  0.2849 -0.6566 -0.2449
18185TIP3    H176046   3.890   2.740  12.266  1.1129  0.7700 -0.2872
18185TIP3    H276047   3.903   2.834  12.147 -0.8410 -0.4805 -1.5520
18186TIP3   OH276048   5.787   3.252  15.711  0.2987  0.3276 -0.1438
18186TIP3    H176049   5.845   3.325  15.691  0.6239  0.2174  0.3640
18186TIP3    H276050   5.827   3.176  15.669 -0.1683  0.4817 -0.8755
18187TIP3   OH276051   0.224   0.537   2.769 -0.4596 -0.1917 -0.6105
18187TIP3    H176052   0.134   0.514   2.747 -1.3466 -0.5560  2.7868
18187TIP3    H276053   0.230   0.631   2.753 -1.6203 -0.0725 -0.3882
18188TIP3   OH276054   3.288   3.998  15.785  0.1912 -0.3947  0.1711
18188TIP3    H176055   3.319   3.978  15.697 -3.4673  0.7962 -1.5842
18188TIP3    H276056   3.365   4.035  15.830  2.0709 -0.6142 -2.6140
18189TIP3   OH276057   6.509   2.271   1.198  0.3582 -0.6430  0.0314
18189TIP3    H176058   6.557   2.340   1.153 -1.1509  0.1904 -0.3589
18189TIP3    H276059   6.507   2.299   1.290 -0.9681  0.3000 -0.2599
18190TIP3   OH276060   6.820   2.146  11.296  0.4274 -0.3625  0.2958
18190TIP3    H176061   6.816   2.241  11.306 -2.0721 -0.4828  1.1341
18190TIP3    H276062   6.907   2.130  11.259  1.0409  2.1999  0.3964
18191TIP3   OH276063   0.247   2.834  13.943 -0.4869 -0.3733 -0.3161
18191TIP3    H176064   0.172   2.890  13.963 -1.3035 -2.0529  1.6757
18191TIP3    H276065   0.222   2.787  13.864 -1.6050 -0.9617  0.3600
18192TIP3   OH276066   6.147   4.473  16.805  0.5293  0.0700  0.1167
18192TIP3    H176067   6.136   4.516  16.721  1.0958 -2.3375 -1.3000
18192TIP3    H276068   6.088   4.519  16.864 -0.7563  1.1112 -1.8823
18193TIP3   OH276069   0.382   5.090  10.970 -0.5599  0.3486  0.1834
18193TIP3    H176070   0.398   5.096  10.876 -0.9211 -0.8719  0.0292
18193TIP3    H276071   0.454   5.037  11.003 -0.8279  0.1643  0.4768
18194TIP3   OH276072   1.597   2.274   4.233  0.1142 -0.0053 -0.3255
18194TIP3    H176073   1.612   2.368   4.242 -2.3843  0.5621 -1.2417
18194TIP3    H276074   1.542   2.266   4.155 -0.1527 -2.1846  0.0332
18195TIP3   OH276075   3.582   6.749  10.517  0.5315  0.4488  0.0059
18195TIP3    H176076   3.493   6.722  10.541  0.6528  0.0924  0.0573
18195TIP3    H276077   3.583   6.843  10.532 -0.4721  0.8178 -1.9043
18196TIP3   OH276078   1.973   1.129  16.984  0.0472  0.3186  0.2982
18196TIP3    H176079   1.917   1.166  16.916 -0.3503 -1.8171 -0.6106
18196TIP3    H276080   2.059   1.169  16.969 -0.3791  0.9662 -0.5099
18197TIP3   OH276081   5.427   0.342   4.233  0.2807 -0.0688 -0.6152
18197TIP3    H176082   5.450   0.432   4.208  0.3176  0.2066  0.3561
18197TIP3    H276083   5.425   0.344   4.329  0.3942 -1.1357 -0.5791
18198TIP3   OH276084   0.001   1.333  15.621 -0.6480  0.6597 -0.0715
18198TIP3    H176085   0.048   1.299  15.697 -1.5205  1.4424  0.8587
18198TIP3    H276086   0.053   1.305  15.546  0.9713  1.0022  0.8717
18199TIP3   OH276087   2.939   0.090   3.418 -0.2760  0.2042  0.7182
18199TIP3    H176088   2.918   0.021   3.355  0.8194 -0.5919  1.1713
18199TIP3    H276089   2.911   0.054   3.502 -0.5026  0.6855  0.8474
18200TIP3   OH276090   1.696   6.715   2.950  0.0120  0.3536 -0.2855
18200TIP3    H176091   1.755   6.722   3.025  1.8845 -1.3857 -1.4860
18200TIP3    H276092   1.630   6.782   2.965 -0.1114 -0.3727  3.2366
18201TIP3   OH276093   2.270   3.156  15.164  0.1601  0.0196 -0.1354
18201TIP3    H176094   2.293   3.098  15.236 -0.7052  0.5265  0.5616
18201TIP3    H276095   2.354   3.194  15.137  0.7508 -1.5170 -0.6077
18202TIP3   OH276096   4.008   4.493   2.906  0.1776 -0.1387  0.3996
18202TIP3    H176097   3.944   4.564   2.910 -0.1638 -0.4573  0.7789
18202TIP3    H276098   3.999   4.448   2.990  0.2056 -0.7814  0.0667
18203TIP3   OH276099   1.792   5.944  13.655 -0.0429  0.6461  0.0753
18203TIP3    H176100   1.712   5.902  13.622  0.2380 -1.7146  2.1130
18203TIP3    H276101   1.852   5.872  13.670  1.3278  2.0489  1.6233
18204TIP3   OH276102   0.497   5.528  10.445  0.1121  0.5404  0.1460
18204TIP3    H176103   0.534   5.472  10.377  0.8211  0.5168  0.5467
18204TIP3    H276104   0.567   5.537  10.510 -0.1459  1.5192  0.3069
18205TIP3   OH276105   0.320   0.029  13.426 -0.1180 -0.2580  0.0715
18205TIP3    H176106   0.225   0.037  13.417 -0.2870 -2.7205 -1.1265
18205TIP3    H276107   0.333  -0.054  13.471  1.4917 -0.0940 -0.0079
18206TIP3   OH276108   1.993   4.794   3.924 -0.3169  0.3762  0.6747
18206TIP3    H176109   2.031   4.762   3.843 -0.9529 -2.2278  1.3102
18206TIP3    H276110   2.063   4.783   3.989 -0.3738  0.8164  0.8154
18207TIP3   OH276111   2.251   4.582  12.040 -0.3079 -0.0210 -0.1100
18207TIP3    H176112   2.316   4.651  12.024 -0.5848  0.2730  0.0095
18207TIP3    H276113   2.172   4.630  12.066 -0.6001 -0.3702 -0.3490
18208TIP3   OH276114   0.989   4.881  14.167 -0.0187  0.1476 -0.1525
18208TIP3    H176115   0.961   4.797  14.203 -1.4751  0.2997 -0.8527
18208TIP3    H276116   1.058   4.858  14.105 -0.7219 -0.5984 -0.6881
18209TIP3   OH276117   6.348   1.075  11.649  0.1347  0.0350 -0.3333
18209TIP3    H176118   6.294   1.045  11.722  0.0581 -0.9773 -0.7869
18209TIP3    H276119   6.363   1.168  11.667 -0.7498  0.0507  0.4198
18210TIP3   OH276120   1.962   3.313  16.951 -0.3170  0.2428 -0.3211
18210TIP3    H176121   1.954   3.350  16.863 -1.0639 -0.9531 -0.8004
18210TIP3    H276122   1.972   3.219  16.936 -1.3179 -0.0901  0.8791
18211TIP3   OH276123   3.889   2.090   1.570 -0.4744 -0.3748  0.1395
18211TIP3    H176124   3.801   2.100   1.534 -0.1483  0.2719 -0.5104
18211TIP3    H276125   3.942   2.059   1.497 -0.2386 -1.1829  0.6374
18212TIP3   OH276126   0.132   5.432   1.005  0.4432  0.3500  0.0876
18212TIP3    H176127   0.063   5.372   1.035  1.2821 -0.8066 -0.2466
18212TIP3    H276128   0.164   5.473   1.086  0.7850 -0.6652  0.4802
18213TIP3   OH276129   0.743   4.167   3.673  0.1771 -1.0227  0.1741
18213TIP3    H176130   0.819   4.112   3.689 -0.4868 -1.9497  0.2597
18213TIP3    H276131   0.696   4.169   3.757 -0.5281 -1.4879 -0.1968
18214TIP3   OH276132   6.259   6.775   3.037  0.2702 -0.0517 -0.3168
18214TIP3    H176133   6.240   6.829   3.113 -1.0321  3.1852 -2.6924
18214TIP3    H276134   6.324   6.825   2.987  0.5978 -1.7143 -1.6792
18215TIP3   OH276135   5.306   5.462   0.336 -0.3121  0.2604 -0.3950
18215TIP3    H176136   5.398   5.475   0.314  0.1357 -0.9421  0.6008
18215TIP3    H276137   5.308   5.408   0.415 -1.8733  0.8021  0.0573
18216TIP3   OH276138   3.798   2.099  13.699  0.0333  0.5415  0.1555
18216TIP3    H176139   3.835   2.021  13.656  0.9979  0.6815  0.7071
18216TIP3    H276140   3.718   2.068  13.740 -1.1947  0.4908 -2.0975
18217TIP3   OH276141   5.622   2.864   1.825  0.0466  0.5292  0.2751
18217TIP3    H176142   5.556   2.851   1.757  0.1743  0.5722  0.1417
18217TIP3    H276143   5.650   2.955   1.814  0.3786  0.4075  0.1048
18218TIP3   OH276144   3.748   3.376   2.299 -0.2151  0.0379 -0.2867
18218TIP3    H176145   3.704   3.380   2.384  0.5858 -0.2096  0.1485
18218TIP3    H276146   3.790   3.461   2.289 -0.0338 -0.0502 -0.2815
18219TIP3   OH276147   2.240   3.769  11.412 -0.1430  0.1042  0.1590
18219TIP3    H176148   2.271   3.780  11.322 -2.4588  0.1303 -0.7034
18219TIP3    H276149   2.145   3.763  11.404 -0.5563  1.6636  2.7489
18220TIP3   OH276150   5.250   2.735   2.954 -0.2185 -0.5277 -0.0316
18220TIP3    H176151   5.229   2.718   3.046 -0.0222  0.6758  0.2567
18220TIP3    H276152   5.298   2.818   2.956  1.0452 -1.2232 -1.0903
18221TIP3   OH276153   4.486   6.512   3.125 -0.2512  0.4297  0.0304
18221TIP3    H176154   4.460   6.521   3.216  3.0039 -1.9092  1.3949
18221TIP3    H276155   4.468   6.420   3.104  0.3350  0.5768 -1.1975
18222TIP3   OH276156   1.933   3.702  13.577 -0.8136  0.4380 -0.4889
18222TIP3    H176157   1.992   3.648  13.629  0.3105 -0.7580 -2.8637
18222TIP3    H276158   1.967   3.791  13.586 -0.3999  0.1979  0.4312
18223TIP3   OH276159   1.909   6.386  13.108  0.2012 -0.0280 -0.3770
18223TIP3    H176160   1.911   6.481  13.117  1.9901 -0.1106  0.6022
18223TIP3    H276161   1.841   6.357  13.168  1.7953  0.4746  1.7704
18224TIP3   OH276162   6.254   5.103   5.732 -0.3390  0.6445  0.2466
18224TIP3    H176163   6.172   5.101   5.780 -1.4493  0.3073 -1.5737
18224TIP3    H276164   6.243   5.038   5.663  2.3613 -1.1464  1.3037
18225TIP3   OH276165   6.779   0.160  14.022 -0.3916  0.3620  0.1941
18225TIP3    H176166   6.867   0.174  13.989 -0.0701 -2.1377 -0.1954
18225TIP3    H276167   6.779   0.070  14.055 -3.2032 -0.3468 -1.3461
18226TIP3   OH276168   4.543   0.073  15.380 -0.6037  0.1871 -0.2481
18226TIP3    H176169   4.562   0.051  15.289  0.9036 -1.4223  0.3883
18226TIP3    H276170   4.530  -0.012  15.423 -1.9931  0.9389  0.9260
18227TIP3   OH276171   0.560   3.580  11.719 -0.7606 -0.3787 -0.6161
18227TIP3    H176172   0.601   3.662  11.690  0.2753 -0.5274  0.3643
18227TIP3    H276173   0.484   3.570  11.662 -0.5482  0.9422 -1.1701
18228TIP3   OH276174   1.813   4.364   5.198  0.3809  0.1725  0.0946
18228TIP3    H176175   1.895   4.354   5.246  0.7883  0.6589 -0.4823
18228TIP3    H276176   1.749   4.316   5.250  1.4468 -2.0426 -0.5085
18229TIP3   OH276177   0.044   6.476   5.023  0.7054 -0.1451 -0.0004
18229TIP3    H176178   0.050   6.549   4.961 -1.5914 -0.9627 -1.2762
18229TIP3    H276179   0.034   6.518   5.108  0.5263  1.0177 -0.5730
18230TIP3   OH276180   2.386   6.001  12.207  0.2705 -0.3562 -0.0199
18230TIP3    H176181   2.324   6.053  12.258  0.5806 -0.1332  0.1293
18230TIP3    H276182   2.401   5.923  12.260 -1.0110 -1.1065 -0.7257
18231TIP3   OH276183   6.017   3.488   4.739 -0.1225 -0.0017  0.1364
18231TIP3    H176184   6.106   3.513   4.713  0.1037 -1.3195 -0.4266
18231TIP3    H276185   5.971   3.471   4.657 -0.8483  0.4802  0.4330
18232TIP3   OH276186   6.401   6.468  14.059  0.3538  0.8506  0.3991
18232TIP3    H176187   6.309   6.451  14.081  0.6327 -0.8271  0.3954
18232TIP3    H276188   6.409   6.563  14.061 -0.9221  0.9784  2.3207
18233TIP3   OH276189   3.604   5.648   0.583  0.2634  0.4187  0.6026
18233TIP3    H176190   3.647   5.578   0.632  0.0131  0.5065  0.9506
18233TIP3    H276191   3.672   5.714   0.571 -0.1412  1.2329  2.4671
18234TIP3   OH276192   1.846   1.780   4.394 -0.0805 -0.4622 -0.2556
18234TIP3    H176193   1.910   1.813   4.330 -0.4050 -0.3536 -0.5313
18234TIP3    H276194   1.800   1.858   4.424 -0.8964 -0.6497 -0.9563
18235TIP3   OH276195   2.660   1.302   2.085  0.1860 -0.1285  0.0647
18235TIP3    H176196   2.689   1.340   2.002  1.4733  0.6724  0.8516
18235TIP3    H276197   2.682   1.210   2.079 -0.7654 -0.3117 -0.9126
18236TIP3   OH276198   2.439   3.353   2.022  0.1921  0.1233  0.4985
18236TIP3    H176199   2.451   3.265   2.058 -0.0909  0.2472  0.9002
18236TIP3    H276200   2.345   3.358   2.001  0.1117  0.4820  0.9050
18237TIP3   OH276201   3.209   0.339  14.580 -0.1185 -0.5401 -0.5594
18237TIP3    H176202   3.135   0.359  14.522 -0.1882  1.0166  0.0186
18237TIP3    H276203   3.186   0.255  14.619 -0.5629 -1.1079 -1.9827
18238TIP3   OH276204   5.025   1.428  17.179 -0.4081 -0.1555  0.1361
18238TIP3    H176205   5.051   1.347  17.134  0.4497 -0.2222  0.7305
18238TIP3    H276206   4.970   1.474  17.115 -1.3310 -1.4298 -0.0343
18239TIP3   OH276207   0.437   6.285  11.918 -0.0598 -0.0994 -0.2978
18239TIP3    H176208   0.442   6.364  11.971  0.0710 -1.2935  1.5553
18239TIP3    H276209   0.520   6.282  11.871 -0.1014  0.8910 -0.4564
18240TIP3   OH276210   5.436   5.754   5.438  0.0147 -1.0076  0.5694
18240TIP3    H176211   5.475   5.817   5.499  1.7037 -1.3356 -0.1019
18240TIP3    H276212   5.347   5.786   5.423  0.6812  0.9774  0.6044
18241TIP3   OH276213   2.737   0.292   3.254 -0.0209 -0.9183  0.4331
18241TIP3    H176214   2.806   0.354   3.278 -1.3064  0.5593  0.5127
18241TIP3    H276215   2.757   0.213   3.304  2.5028 -1.1571 -0.7889
18242TIP3   OH276216   3.861   3.906  11.878  0.2791 -0.1065 -0.1020
18242TIP3    H176217   3.911   3.947  11.948  1.5729  0.2880 -1.2002
18242TIP3    H276218   3.913   3.829  11.854 -0.6749 -0.8139  0.0558
18243TIP3   OH276219   0.353   3.581  13.319  0.3732 -0.2470 -0.3960
18243TIP3    H176220   0.352   3.500  13.268 -0.0079 -0.4974  0.0006
18243TIP3    H276221   0.303   3.644  13.266 -1.1963 -0.8835  0.2529
18244TIP3   OH276222   4.697   3.236   3.075 -0.4445 -1.0293 -0.2005
18244TIP3    H176223   4.624   3.278   3.121 -0.7191 -1.8925  0.1792
18244TIP3    H276224   4.775   3.273   3.114 -0.6602 -2.1141  1.3547
18245TIP3   OH276225   5.403   3.286   5.228  0.0534 -0.4251  0.2434
18245TIP3    H176226   5.366   3.198   5.230 -0.9447 -0.0575  2.8739
18245TIP3    H276227   5.341   3.337   5.176  0.1389 -1.0825 -0.5091
18246TIP3   OH276228   3.760   3.053   0.893 -0.3232 -0.3935 -0.0173
18246TIP3    H176229   3.697   2.990   0.927  2.5024 -2.4984  1.8101
18246TIP3    H276230   3.816   3.002   0.835  0.0160  1.2833 -1.2367
18247TIP3   OH276231   6.158   0.537  16.366 -0.4968  0.3459  0.0780
18247TIP3    H176232   6.120   0.592  16.435  1.2900  2.4762 -0.5085
18247TIP3    H276233   6.122   0.572  16.285  0.9224  0.9263 -0.3290
18248TIP3   OH276234   6.697   0.032  15.215  0.4048 -0.0253  0.4944
18248TIP3    H176235   6.746   0.072  15.143 -0.7494  0.9732  0.2229
18248TIP3    H276236   6.612   0.010  15.177 -0.4941  1.1989  1.6990
18249TIP3   OH276237   1.417   1.660   4.198 -0.1618  0.0030  0.0589
18249TIP3    H176238   1.485   1.727   4.201 -1.2177  1.0934  0.5674
18249TIP3    H276239   1.344   1.697   4.248 -0.6935 -1.6333  0.5929
18250TIP3   OH276240   1.191   1.452  16.802  0.1555  0.0673 -0.4059
18250TIP3    H176241   1.236   1.477  16.882 -1.4358  1.0418  0.2374
18250TIP3    H276242   1.136   1.378  16.828  0.0253  0.0497 -0.7255
18251TIP3   OH276243   2.331   5.900  11.390 -0.3569 -0.6375 -0.2305
18251TIP3    H176244   2.414   5.882  11.345 -0.3419  1.0783 -0.9819
18251TIP3    H276245   2.273   5.829  11.363  0.9537 -2.1006  0.6410
18252TIP3   OH276246   6.347   3.479   3.146  0.5615  0.4384 -0.8953
18252TIP3    H176247   6.405   3.429   3.089  2.9197  0.3632  1.3531
18252TIP3    H276248   6.376   3.457   3.235 -1.3008  2.3593  0.2947
18253TIP3   OH276249   0.128   0.836   3.040 -0.0979 -0.6047 -0.1402
18253TIP3    H176250   0.216   0.858   3.008  0.1887 -0.7771  0.5094
18253TIP3    H276251   0.072   0.843   2.963  0.5015 -0.5755 -0.5825
18254TIP3   OH276252   3.733   3.292  13.659 -0.1582  0.4502  0.7198
18254TIP3    H176253   3.732   3.277  13.754 -0.8690 -0.5134  0.5828
18254TIP3    H276254   3.804   3.237  13.627 -0.4154  0.1649  0.6231
18255TIP3   OH276255   6.502   2.857   4.308  0.2481  0.5682  0.0979
18255TIP3    H176256   6.576   2.797   4.307 -1.0969 -1.2377 -1.8496
18255TIP3    H276257   6.480   2.868   4.400  2.3367  0.4526  0.6533
18256TIP3   OH276258   6.511   3.048  12.707 -0.0540  0.1590 -0.3994
18256TIP3    H176259   6.511   2.955  12.730  0.4920  0.2226 -0.1162
18256TIP3    H276260   6.464   3.053  12.624 -0.0903 -0.3685 -0.4134
18257TIP3   OH276261   1.959   3.768   2.008  0.3012  0.3141 -0.0536
18257TIP3    H176262   1.906   3.839   1.972  1.1541  0.3428 -1.3046
18257TIP3    H276263   2.002   3.807   2.085 -1.7370  0.1709  1.2264
18258TIP3   OH276264   2.416   1.651   3.642 -0.4929 -0.4378 -0.1746
18258TIP3    H176265   2.363   1.638   3.563 -2.9018 -0.4928  1.3459
18258TIP3    H276266   2.440   1.743   3.640  1.5536 -0.9352 -2.1242
18259TIP3   OH276267   1.342   2.150  14.113  0.2600 -0.6325  0.3626
18259TIP3    H176268   1.326   2.092  14.039  0.1333 -2.2484  1.6057
18259TIP3    H276269   1.257   2.189  14.132 -0.2344 -1.9774  1.0587
18260TIP3   OH276270   3.443   2.466  15.133  0.7643 -0.1942 -0.4500
18260TIP3    H176271   3.386   2.389  15.139 -2.0993  1.8593  2.6822
18260TIP3    H276272   3.409   2.516  15.059  1.8569 -1.2911 -1.7342
18261TIP3   OH276273   4.870   6.366  12.617  0.1824  0.1987 -0.2539
18261TIP3    H176274   4.802   6.303  12.593  1.6814 -1.6989  0.1980
18261TIP3    H276275   4.950   6.331  12.577  1.2572  1.2821  0.8599
18262TIP3   OH276276   4.126   0.971   1.049  0.0379  0.0862 -0.7232
18262TIP3    H176277   4.130   0.898   1.110 -1.7489 -3.0639 -3.9613
18262TIP3    H276278   4.054   1.026   1.080 -1.0119 -1.5846 -0.1357
18263TIP3   OH276279   3.543   1.116  12.321  0.0207 -0.2129 -0.0784
18263TIP3    H176280   3.511   1.195  12.279  0.0862 -1.0845 -1.8383
18263TIP3    H276281   3.614   1.086  12.265 -0.5017 -1.9190  0.1182
18264TIP3   OH276282   0.586   5.919  16.675 -0.4877  0.2505 -0.1645
18264TIP3    H176283   0.581   5.994  16.615  0.7306 -1.2603 -2.2497
18264TIP3    H276284   0.502   5.875  16.665 -1.0754  1.0884  0.8175
18265TIP3   OH276285   6.009   6.249  16.701 -0.2459  0.3308 -0.3355
18265TIP3    H176286   6.033   6.340  16.720  0.1576  0.4493 -1.3349
18265TIP3    H276287   5.966   6.218  16.780  0.5061  1.0874  0.3819
18266TIP3   OH276288   1.419   4.943   1.827 -0.5198 -0.4162 -0.2794
18266TIP3    H176289   1.343   4.994   1.854  0.2008  0.6923 -0.2386
18266TIP3    H276290   1.431   4.878   1.897  0.1649  1.1587  1.1519
18267TIP3   OH276291   3.378   1.672  13.795 -0.5780  0.0489 -0.9956
18267TIP3    H176292   3.439   1.602  13.774  0.8068  0.8098  0.2865
18267TIP3    H276293   3.401   1.743  13.734 -1.3769 -0.2784 -1.6899
18268TIP3   OH276294   6.282   5.529   1.227  0.3610  0.0206 -0.2778
18268TIP3    H176295   6.338   5.585   1.173  1.5333 -1.0607 -0.2509
18268TIP3    H276296   6.197   5.571   1.226  0.3709  0.1352 -2.8503
18269TIP3   OH276297   4.863   5.597  12.199 -0.1577 -0.0603 -0.4977
18269TIP3    H176298   4.871   5.692  12.196  1.5468 -0.1945 -1.7789
18269TIP3    H276299   4.820   5.578  12.282 -1.3496  1.8626 -0.6221
18270TIP3   OH276300   1.515   0.251  15.357 -0.2478 -0.4822  0.1035
18270TIP3    H176301   1.601   0.269  15.393  0.1672 -0.3338 -0.9413
18270TIP3    H276302   1.531   0.224  15.267 -1.3068 -0.2606 -0.1715
18271TIP3   OH276303   2.838   2.482  13.110 -0.3507 -0.0641  0.0750
18271TIP3    H176304   2.766   2.546  13.109  0.2974  0.6724 -0.0456
18271TIP3    H276305   2.876   2.488  13.023 -1.2064 -1.7012 -0.4491
18272TIP3   OH276306   4.373   5.263   1.551  0.1985  0.3686 -0.4182
18272TIP3    H176307   4.375   5.198   1.622 -2.2840 -0.6483 -1.1738
18272TIP3    H276308   4.460   5.257   1.511  1.2908  0.2060  1.8309
18273TIP3   OH276309   3.608   1.752   3.962  0.2122  0.5628  0.1688
18273TIP3    H176310   3.578   1.662   3.945  1.2077 -0.2248  2.2604
18273TIP3    H276311   3.679   1.766   3.899  0.1218 -0.1565 -0.1060
18274TIP3   OH276312   2.094   1.706   2.282  0.4264 -0.3836 -0.1196
18274TIP3    H176313   2.040   1.742   2.212 -0.0476 -0.9968 -0.0732
18274TIP3    H276314   2.113   1.782   2.338  2.7471  0.6336 -2.0848
18275TIP3   OH276315   3.806   0.710   4.387 -0.1912 -0.2967 -0.0241
18275TIP3    H176316   3.775   0.706   4.296  0.0580 -4.0638 -0.0879
18275TIP3    H276317   3.753   0.645   4.433  0.7897  0.3885  2.1979
18276TIP3   OH276318   2.841   5.381   0.076 -0.0221  0.0380 -0.0312
18276TIP3    H176319   2.776   5.340   0.133 -0.3590 -0.1077 -0.5165
18276TIP3    H276320   2.925   5.349   0.108 -0.1640  0.4117  0.7517
18277TIP3   OH276321   5.916   0.536  11.049  0.2025 -0.1872 -0.2766
18277TIP3    H176322   5.864   0.608  11.085  1.4620 -0.0062  1.2999
18277TIP3    H276323   5.952   0.570  10.967  2.0247  1.6284  1.1586
18278TIP3   OH276324   4.253   2.662  13.948 -0.6958  0.2984 -0.3581
18278TIP3    H176325   4.326   2.626  13.898 -1.7463 -0.5266 -1.3661
18278TIP3    H276326   4.212   2.725  13.888  0.6843  2.7721  1.1207
18279TIP3   OH276327   5.794   3.689  15.030 -0.2192 -0.1914 -0.2193
18279TIP3    H176328   5.746   3.622  14.981  1.9611 -1.1575 -1.1534
18279TIP3    H276329   5.787   3.768  14.976 -0.3150 -0.4651 -0.6068
18280TIP3   OH276330   3.733   1.216   1.823  0.3438  0.5229 -0.8150
18280TIP3    H176331   3.689   1.199   1.906 -0.5692 -0.2791 -1.4494
18280TIP3    H276332   3.683   1.286   1.782 -0.5665 -0.5815 -1.6637
18281TIP3   OH276333   4.754   0.026   0.129  0.8598  0.7595  0.0573
18281TIP3    H176334   4.705  -0.042   0.175 -0.6996  0.9970 -1.1442
18281TIP3    H276335   4.775   0.090   0.197  0.8038 -0.0811  0.8840
18282TIP3   OH276336   1.057   0.793   1.197 -0.2599  0.4102 -0.7152
18282TIP3    H176337   1.143   0.827   1.221 -0.3301  0.6814 -0.8501
18282TIP3    H276338   1.071   0.745   1.116 -0.0720 -0.2845 -0.2863
18283TIP3   OH276339   3.525   0.848   2.890 -0.2914  0.3065 -0.1384
18283TIP3    H176340   3.469   0.829   2.966 -1.1322 -1.2030 -1.0794
18283TIP3    H276341   3.465   0.848   2.816  0.6314  0.9936 -0.9041
18284TIP3   OH276342   0.472   0.274  14.040 -0.0876 -0.0264  0.3087
18284TIP3    H176343   0.567   0.266  14.027 -0.2662 -1.6388 -0.2301
18284TIP3    H276344   0.451   0.206  14.104 -1.3021 -1.9517 -1.9911
18285TIP3   OH276345   2.503   2.707  16.925 -0.7651  0.6380 -0.2441
18285TIP3    H176346   2.537   2.760  16.853  0.7360 -0.8792 -0.7229
18285TIP3    H276347   2.412   2.689  16.901 -0.1569 -0.2449 -2.0635
18286TIP3   OH276348   4.248   1.786  13.228 -0.0506 -0.1782  0.0780
18286TIP3    H176349   4.234   1.874  13.263  1.0117  0.2726 -0.5773
18286TIP3    H276350   4.213   1.790  13.139 -0.0648 -0.4449  0.0714
18287TIP3   OH276351   2.992   6.705   3.586 -0.4871 -0.6539 -0.9404
18287TIP3    H176352   2.905   6.674   3.611 -0.5153  0.3427  0.3006
18287TIP3    H276353   3.043   6.701   3.666  0.2953 -0.1944 -1.4057
18288TIP3   OH276354   4.933   3.528   5.925  0.5656 -0.0296  0.0020
18288TIP3    H176355   4.965   3.614   5.950  1.0673 -0.2827  0.2370
18288TIP3    H276356   4.884   3.543   5.844 -1.3823  0.8693  1.2636
18289TIP3   OH276357   5.151   2.856   5.469  0.2232  0.1106  0.4097
18289TIP3    H176358   5.150   2.785   5.405  2.0192  0.8117 -0.4580
18289TIP3    H276359   5.061   2.889   5.468  0.1925  0.1398 -1.8518
18290TIP3   OH276360   5.226   3.363   4.209  0.2801 -0.0200 -0.3557
18290TIP3    H176361   5.184   3.304   4.271  2.1565 -0.8780  0.1628
18290TIP3    H276362   5.318   3.366   4.237  0.3170  3.0019 -0.4834
18291TIP3   OH276363   6.732   5.395   5.088  0.2039 -0.2953  0.5080
18291TIP3    H176364   6.784   5.332   5.139  0.1765 -0.1260  0.7417
18291TIP3    H276365   6.643   5.386   5.122  0.3286  0.3730  1.0255
18292TIP3   OH276366   1.511   4.343   5.718 -0.1587 -0.0286 -0.3645
18292TIP3    H176367   1.502   4.279   5.648 -2.6278 -0.6772  0.4571
18292TIP3    H276368   1.562   4.414   5.679 -2.3612  0.1439 -3.1988
18293TIP3   OH276369   5.669   1.399   6.271 -0.2032 -0.5680  0.2130
18293TIP3    H176370   5.747   1.351   6.297 -0.1699 -1.1541 -0.8895
18293TIP3    H276371   5.679   1.411   6.176 -0.3924  1.2979  0.3877
18294TIP3   OH276372   2.793   0.866   2.247  0.3089  0.5935 -0.3598
18294TIP3    H176373   2.786   0.775   2.217  0.8621 -0.1102  1.5193
18294TIP3    H276374   2.741   0.869   2.327  1.3029  1.5968  0.2721
18295TIP3   OH276375   2.187   0.704   4.210  0.0686  0.5680  0.5979
18295TIP3    H176376   2.181   0.671   4.300  0.2372  1.0980  0.8037
18295TIP3    H276377   2.099   0.690   4.174 -0.0964  0.6789  0.9563
18296TIP3   OH276378   2.751   5.244  16.370 -0.2221 -0.0792  1.0741
18296TIP3    H176379   2.675   5.285  16.328 -0.4262 -0.5683  0.9520
18296TIP3    H276380   2.826   5.294  16.339  0.0209 -2.2833 -2.4734
18297TIP3   OH276381   1.957   3.507  16.067 -0.4591  0.1790  0.0526
18297TIP3    H176382   1.954   3.555  15.984 -1.9609 -0.6901 -0.4364
18297TIP3    H276383   1.883   3.447  16.062 -0.2114 -0.3102  1.7871
18298TIP3   OH276384   2.086   1.714   4.585 -0.1556 -0.7519  0.3003
18298TIP3    H176385   2.038   1.797   4.593  0.5268 -0.2777 -0.2817
18298TIP3    H276386   2.019   1.646   4.590 -0.6376 -0.2061  1.6576
18299TIP3   OH276387   4.179   0.279   2.243  0.2586  0.2584 -0.3091
18299TIP3    H176388   4.260   0.235   2.216  1.2391  1.2351  0.9299
18299TIP3    H276389   4.138   0.217   2.304 -0.0645 -0.3372 -1.1143
18300TIP3   OH276390   2.830   2.301   3.347 -0.3368  0.1398 -0.3460
18300TIP3    H176391   2.805   2.213   3.319  2.1451 -1.0652  0.9403
18300TIP3    H276392   2.848   2.348   3.266  0.9921 -1.4342 -1.0189
18301TIP3   OH276393   3.617   6.169  15.116 -0.0999  0.0379 -0.3449
18301TIP3    H176394   3.606   6.249  15.066 -0.3145  1.6033  2.0623
18301TIP3    H276395   3.529   6.144  15.143 -0.3125 -2.2902 -2.7974
18302TIP3   OH276396   2.413   0.394  15.674  0.1981  0.1338 -0.0194
18302TIP3    H176397   2.364   0.472  15.699 -0.5261 -0.2277 -0.2726
18302TIP3    H276398   2.386   0.377  15.584  0.0388 -0.6395  0.1684
18303TIP3   OH276399   0.329   2.190  14.075 -0.6406 -0.2675 -0.8293
18303TIP3    H176400   0.371   2.153  13.997 -0.9376  0.3239 -1.2775
18303TIP3    H276401   0.281   2.266  14.043  1.1123  1.3963  0.2856
18304TIP3   OH276402   2.383   0.446  16.774 -0.4641  0.1433  0.1836
18304TIP3    H176403   2.334   0.528  16.773  1.1480  1.1635 -0.0773
18304TIP3    H276404   2.359   0.403  16.692  0.4055  1.4851 -0.8151
18305TIP3   OH276405   0.841   3.689  14.923 -0.6758  0.6324  0.5810
18305TIP3    H176406   0.897   3.753  14.879  0.1461 -1.0569 -0.9303
18305TIP3    H276407   0.843   3.716  15.015 -0.3739  2.7479  0.0216
18306TIP3   OH276408   4.852   0.924  15.223 -0.3959 -0.2761  0.0302
18306TIP3    H176409   4.882   1.014  15.209  3.2233 -1.4119 -0.6102
18306TIP3    H276410   4.788   0.908  15.154  0.5940  1.1658 -1.2850
18307TIP3   OH276411   5.475   2.973  14.955  0.0177  0.5218  0.5870
18307TIP3    H176412   5.567   2.948  14.945  0.3297  1.3401  1.2944
18307TIP3    H276413   5.478   3.053  15.007 -0.8579  2.6255 -2.3675
18308TIP3   OH276414   3.740   4.815   3.524 -0.1149 -0.3615  0.3404
18308TIP3    H176415   3.744   4.871   3.446 -0.3478 -0.6974  0.0851
18308TIP3    H276416   3.647   4.810   3.545  0.0575  1.3472  1.8379
18309TIP3   OH276417   3.090   0.229   2.735  0.4729 -0.3908 -0.2955
18309TIP3    H176418   2.997   0.236   2.711  0.6967  0.0133 -1.0984
18309TIP3    H276419   3.124   0.159   2.679  0.4033 -1.3579  0.8414
18310TIP3   OH276420   4.376   5.193  12.764  0.1575 -0.0651  0.3850
18310TIP3    H176421   4.427   5.223  12.839 -0.0915  0.7174  0.2604
18310TIP3    H276422   4.428   5.123  12.725  1.1582  0.7392  0.2354
18311TIP3   OH276423   5.924   3.570  12.625  0.0666 -0.0380  0.0619
18311TIP3    H176424   5.966   3.540  12.705  0.0190 -0.4908 -0.0797
18311TIP3    H276425   5.976   3.532  12.554 -0.7569 -0.8755 -0.1162
18312TIP3   OH276426   3.838   4.662   3.304  0.3039 -0.1586 -0.5975
18312TIP3    H176427   3.813   4.735   3.248 -2.2138 -1.4215 -1.2450
18312TIP3    H276428   3.833   4.697   3.393 -2.0635  0.2155 -0.8257
18313TIP3   OH276429   1.996   5.003   0.370 -0.0775 -0.1876  0.0033
18313TIP3    H176430   1.958   4.932   0.318 -0.9477  2.3682 -3.1415
18313TIP3    H276431   1.945   5.004   0.450 -2.5586 -0.8060 -1.4655
18314TIP3   OH276432   1.771   1.762  14.182 -0.0132 -0.3724  0.5980
18314TIP3    H176433   1.754   1.793  14.093 -0.7084 -1.0443  0.4886
18314TIP3    H276434   1.792   1.670  14.172  0.6898 -0.2677  1.0571
18315TIP3   OH276435   2.072   6.403   2.292  0.0353  0.1280  0.1084
18315TIP3    H176436   2.051   6.380   2.202  0.4397  1.1215 -0.2527
18315TIP3    H276437   2.144   6.466   2.285  1.1580 -0.9846  1.2006
18316TIP3   OH276438   6.091   6.364   6.261 -0.0001 -0.0546  0.1420
18316TIP3    H176439   6.029   6.292   6.272  1.1208 -1.3099 -1.2489
18316TIP3    H276440   6.039   6.436   6.224 -0.6858 -0.9976 -0.7869
18317TIP3   OH276441   1.844   3.178   2.368  0.3758 -0.0361 -0.4443
18317TIP3    H176442   1.786   3.180   2.292  0.0336  1.1195 -0.1773
18317TIP3    H276443   1.788   3.149   2.440  0.7147 -1.1913 -0.6262
18318TIP3   OH276444   0.741   2.330  14.868 -0.3560  0.5386 -0.0398
18318TIP3    H176445   0.657   2.373  14.857  0.5851  2.1832 -1.2416
18318TIP3    H276446   0.781   2.331  14.781  1.2922  0.6444  0.6750
18319TIP3   OH276447   3.968   4.608  12.081 -0.0566  0.1713 -0.6310
18319TIP3    H176448   4.010   4.693  12.098  1.6716 -0.8768  0.7362
18319TIP3    H276449   4.025   4.567  12.016  1.4350 -1.4597  1.5738
18320TIP3   OH276450   0.842   4.882  11.096  0.0959  0.4398 -0.5654
18320TIP3    H176451   0.905   4.813  11.077 -0.9919 -0.4238 -1.1532
18320TIP3    H276452   0.896   4.959  11.115  1.3182 -0.1969 -1.3022
18321TIP3   OH276453   1.538   0.506  15.277  0.4110 -0.8931 -0.0689
18321TIP3    H176454   1.522   0.417  15.244  0.3839 -1.3889  1.1894
18321TIP3    H276455   1.546   0.494  15.372  3.4303  0.0037 -0.1208
18322TIP3   OH276456   3.748   6.575  14.296 -0.2098 -0.0024 -0.2573
18322TIP3    H176457   3.790   6.512  14.238  0.2687  0.3098 -0.2546
18322TIP3    H276458   3.664   6.595  14.254  0.2692  0.4607 -1.0122
18323TIP3   OH276459   2.041   1.689   2.759  0.2248  0.0170 -0.0603
18323TIP3    H176460   2.132   1.664   2.766  0.5193  0.5992 -1.4985
18323TIP3    H276461   2.012   1.655   2.674 -0.5019  0.9517 -0.2158
18324TIP3   OH276462   2.829   2.088  16.150 -0.0822 -0.1038  0.1818
18324TIP3    H176463   2.822   2.172  16.106 -0.4556 -0.4292 -0.4095
18324TIP3    H276464   2.739   2.067  16.177  0.2264  0.3394  1.5920
18325TIP3   OH276465   1.975   5.218  16.786  0.6014  0.4975 -0.5740
18325TIP3    H176466   1.964   5.159  16.860 -3.0096  2.1632  0.3944
18325TIP3    H276467   1.984   5.160  16.710 -0.8001 -1.2819  0.5646
18326TIP3   OH276468   5.022   0.675  15.814 -0.7051 -0.2317  0.2765
18326TIP3    H176469   5.104   0.681  15.862  1.1693  1.2335 -2.8182
18326TIP3    H276470   5.021   0.586  15.778 -0.3134 -0.1524  0.0721
18327TIP3   OH276471   2.693   5.125  16.906 -0.0127 -0.0555  0.2389
18327TIP3    H176472   2.735   5.207  16.933 -1.0664  0.6872 -0.3205
18327TIP3    H276473   2.635   5.150  16.834  0.9796 -1.5886 -1.1774
18328TIP3   OH276474   3.044   4.176  14.596  0.0530 -0.3896 -0.4859
18328TIP3    H176475   3.053   4.264  14.635 -2.0720 -0.6108  0.6034
18328TIP3    H276476   3.008   4.192  14.509  0.0685 -0.1731 -0.4541
18329TIP3   OH276477   1.498   5.461   5.293 -0.1356 -0.1097 -0.1955
18329TIP3    H176478   1.498   5.535   5.232  1.1759  0.8469  0.8978
18329TIP3    H276479   1.453   5.493   5.370 -0.1145 -0.6707  0.0531
18330TIP3   OH276480   1.946   6.545   5.587 -0.0887  0.3131 -0.1199
18330TIP3    H176481   1.995   6.464   5.601 -0.5032 -0.1338 -1.1510
18330TIP3    H276482   1.912   6.537   5.498 -1.7531  0.7506  0.4358
18331TIP3   OH276483   0.762   1.631   3.119 -0.1079 -0.0256  0.1593
18331TIP3    H176484   0.686   1.684   3.096  0.5389  1.3071  0.9644
18331TIP3    H276485   0.832   1.666   3.064  0.0753 -0.8459 -0.1437
18332TIP3   OH276486   3.515   6.484  13.546  0.1538 -0.0306  0.3387
18332TIP3    H176487   3.567   6.461  13.623 -1.2153  1.2768  1.7265
18332TIP3    H276488   3.497   6.577  13.556 -3.2180 -0.5662  0.5111
18333TIP3   OH276489   6.086   4.519  11.410 -0.5018  0.0434  0.2413
18333TIP3    H176490   6.040   4.574  11.347  2.7477  1.9129 -0.7502
18333TIP3    H276491   6.072   4.429  11.379 -2.6060  0.5725 -0.4849
18334TIP3   OH276492   6.806   5.109  11.749 -0.2364 -0.0102  0.3214
18334TIP3    H176493   6.821   5.016  11.732  1.4912  0.0864  1.1013
18334TIP3    H276494   6.893   5.146  11.756 -0.8704  2.0401 -1.6999
18335TIP3   OH276495   1.150   5.659  15.951 -0.1988  0.1493  0.2526
18335TIP3    H176496   1.165   5.631  16.042 -0.5208 -1.1969 -0.0950
18335TIP3    H276497   1.176   5.584  15.898  3.7327  2.1232 -1.0658
18336TIP3   OH276498   1.407   4.073   1.569  0.4240 -0.5027  0.6510
18336TIP3    H176499   1.500   4.093   1.568 -0.2862  3.5777  0.0829
18336TIP3    H276500   1.383   4.065   1.476 -0.0793  0.2682  0.7055
18337TIP3   OH276501   0.275   3.078   2.462 -0.0327 -0.0283  0.5037
18337TIP3    H176502   0.312   3.032   2.538 -1.5031 -0.0863  1.2339
18337TIP3    H276503   0.216   3.014   2.422  0.3635  0.1672 -0.4162
18338TIP3   OH276504   0.202   0.624   0.247 -0.4061  0.2347 -0.5119
18338TIP3    H176505   0.224   0.660   0.333  0.4847 -0.7394 -0.3111
18338TIP3    H276506   0.249   0.681   0.185  0.2292 -0.0008 -0.2567
18339TIP3   OH276507   0.251   1.284  12.017 -0.3681 -0.2735 -0.2901
18339TIP3    H176508   0.239   1.306  12.110 -2.4474 -1.5846 -0.1896
18339TIP3    H276509   0.305   1.205  12.018  0.2464  0.1426 -0.2444
18340TIP3   OH276510   2.981   5.939  16.923 -0.1844  0.6092  0.1041
18340TIP3    H176511   2.946   5.862  16.968  0.8460  0.2663  0.3523
18340TIP3    H276512   3.036   5.903  16.853 -0.3674  1.1276 -0.3080
18341TIP3   OH276513   1.885   0.927  12.124 -0.1930  0.2197 -0.1195
18341TIP3    H176514   1.977   0.944  12.105  0.3746 -0.3857  1.8422
18341TIP3    H276515   1.880   0.832  12.136 -0.6758  0.4278  1.5486
18342TIP3   OH276516   1.060   5.940  10.901  0.3221  0.5052  0.1054
18342TIP3    H176517   1.067   6.013  10.963 -0.7635  1.2871 -0.6454
18342TIP3    H276518   1.012   5.873  10.949  0.8796  0.4868  0.6397
18343TIP3   OH276519   5.816   1.724   7.136 -0.4014  0.3829  0.6070
18343TIP3    H176520   5.735   1.684   7.169 -0.2006 -0.1665  0.4575
18343TIP3    H276521   5.821   1.695   7.045  1.4668 -2.1095  1.4033
18344TIP3   OH276522   5.648   0.985  16.305 -0.4389  0.0378 -0.9144
18344TIP3    H176523   5.709   0.921  16.344 -0.1099 -0.4835 -2.2517
18344TIP3    H276524   5.683   1.070  16.332 -0.3959 -0.3120  0.1799
18345TIP3   OH276525   2.420   4.656   1.715  0.0604  0.2137  0.3000
18345TIP3    H176526   2.409   4.727   1.651  1.6059  1.4570  1.3378
18345TIP3    H276527   2.359   4.679   1.786 -0.9720 -0.6688 -0.2636
18346TIP3   OH276528   4.694   0.710  11.363  0.1032 -0.4684  0.3867
18346TIP3    H176529   4.617   0.768  11.357 -0.0334 -0.4109  2.2778
18346TIP3    H276530   4.659   0.623  11.345 -0.1771 -0.2929  0.0578
18347TIP3   OH276531   4.841   1.514   4.411  0.2333  0.4068 -0.8964
18347TIP3    H176532   4.877   1.507   4.500 -0.5483  0.8792 -0.5339
18347TIP3    H276533   4.779   1.587   4.416  0.4703  0.6975 -1.9337
18348TIP3   OH276534   6.381   5.482   5.104 -0.0298  0.8057 -0.1347
18348TIP3    H176535   6.318   5.506   5.036 -0.2971 -0.6628 -0.4339
18348TIP3    H276536   6.340   5.408   5.149  1.6845 -0.5701 -0.7031
18349TIP3   OH276537   3.064   2.387  16.511 -0.3797 -0.0762  0.3777
18349TIP3    H176538   3.015   2.305  16.511  0.1996 -0.4327 -0.4622
18349TIP3    H276539   3.156   2.360  16.505 -0.0419  0.5709  2.0274
18350TIP3   OH276540   0.687   4.787   1.712  0.0944  0.1142 -0.2127
18350TIP3    H176541   0.761   4.817   1.765 -0.5866  0.2382  0.6851
18350TIP3    H276542   0.620   4.761   1.776 -0.6118 -0.0707 -1.0072
18351TIP3   OH276543   2.335   0.141  13.483  0.0621 -0.1041  0.1189
18351TIP3    H176544   2.379   0.062  13.513  2.4480  1.9880  2.7319
18351TIP3    H276545   2.248   0.137  13.522  0.1949 -1.3472  0.3125
18352TIP3   OH276546   3.632   0.337  13.904  0.4811 -0.0654  0.6173
18352TIP3    H176547   3.611   0.420  13.861  0.8014 -0.5918 -0.5894
18352TIP3    H276548   3.683   0.362  13.981 -0.2646  0.9038  0.8251
18353TIP3   OH276549   4.567   4.084  10.729  0.2579 -0.1428  0.3428
18353TIP3    H176550   4.623   4.153  10.692  0.8720 -0.6913  0.2310
18353TIP3    H276551   4.478   4.113  10.709  0.4124  1.3240  1.5253
18354TIP3   OH276552   2.286   2.456   5.723 -0.1401 -0.1376  0.5215
18354TIP3    H176553   2.251   2.484   5.808  0.5971  3.4023 -0.1925
18354TIP3    H276554   2.209   2.432   5.672 -0.8036  0.0499  1.3997
18355TIP3   OH276555   6.372   6.803  14.659  0.0451 -0.0105  0.5637
18355TIP3    H176556   6.289   6.851  14.652  0.1515  0.1521  0.4289
18355TIP3    H276557   6.345   6.711  14.664 -0.0488 -0.3167 -3.0205
18356TIP3   OH276558   1.728   3.850   2.781  0.0055 -0.4581  0.3952
18356TIP3    H176559   1.650   3.807   2.816 -1.8579  3.0180  0.9528
18356TIP3    H276560   1.712   3.857   2.687 -0.2521  0.0000  0.4696
18357TIP3   OH276561   6.557   2.558   5.178 -0.0199  0.5085  0.0424
18357TIP3    H176562   6.550   2.594   5.267  0.4717  0.2489  0.1907
18357TIP3    H276563   6.628   2.609   5.138  2.9363 -2.2808  1.2784
18358TIP3   OH276564   3.853   3.506  15.428 -0.5383  0.3323  0.0751
18358TIP3    H176565   3.802   3.487  15.349  0.2944  0.5058 -0.5160
18358TIP3    H276566   3.905   3.426  15.443 -0.0626  0.6120 -0.0562
18359TIP3   OH276567   1.090   2.020   5.462 -0.3709 -0.2075 -0.2717
18359TIP3    H176568   1.184   2.040   5.465 -0.6696  1.2784  0.6926
18359TIP3    H276569   1.069   2.016   5.369  0.4977  0.3344 -0.5045
18360TIP3   OH276570   2.826   6.770  15.447 -0.3303  0.1745  0.1062
18360TIP3    H176571   2.851   6.862  15.461 -0.7178  0.3137 -0.0897
18360TIP3    H276572   2.865   6.748  15.362 -0.5646  0.2805 -0.0308
18361TIP3   OH276573   2.232   2.762   1.800  0.6868 -0.3413 -0.7416
18361TIP3    H176574   2.316   2.800   1.775  0.6566 -1.2869 -2.4163
18361TIP3    H276575   2.170   2.835   1.793  1.5122  0.7983  2.0711
18362TIP3   OH276576   0.641   5.578   2.729 -0.4563 -0.6785 -0.5615
18362TIP3    H176577   0.681   5.655   2.769 -1.6832  0.9671 -2.3170
18362TIP3    H276578   0.689   5.566   2.647 -0.6751 -1.4082 -0.5872
18363TIP3   OH276579   4.712   3.068  16.168  0.2128 -0.1555 -0.1001
18363TIP3    H176580   4.742   3.042  16.081 -0.3079  0.1496 -0.3704
18363TIP3    H276581   4.617   3.062  16.163  0.1170  1.1076  0.0543
18364TIP3   OH276582   3.000   1.655  16.096  0.5502 -0.0997  0.0353
18364TIP3    H176583   2.993   1.575  16.044  0.4827  0.4255 -0.7855
18364TIP3    H276584   2.982   1.725  16.034 -0.8963  0.4896  1.0623
18365TIP3   OH276585   5.961   2.349   0.492  0.6048 -0.0642  0.1556
18365TIP3    H176586   5.931   2.353   0.582  0.0593 -0.8993  0.0248
18365TIP3    H276587   5.979   2.440   0.468 -0.4608  0.3010  0.7037
18366TIP3   OH276588   2.889   4.235   2.328  0.7011 -0.5459  0.0293
18366TIP3    H176589   2.793   4.238   2.337  0.6792 -0.5723 -0.1820
18366TIP3    H276590   2.922   4.266   2.412  0.4979  1.5418 -0.6157
18367TIP3   OH276591   2.363   1.327  15.881 -0.5950 -0.4257 -0.2712
18367TIP3    H176592   2.329   1.315  15.793  0.7295  2.8895 -1.3682
18367TIP3    H276593   2.305   1.391  15.921  0.5535  0.3672  0.1587
18368TIP3   OH276594   4.210   5.553  16.491  0.1777 -0.7453  0.6204
18368TIP3    H176595   4.182   5.641  16.468 -1.1021 -1.1426  0.5634
18368TIP3    H276596   4.296   5.565  16.531 -0.6061  0.7224  2.0298
18369TIP3   OH276597   1.444   0.687  16.687 -0.7748 -0.4554  0.3607
18369TIP3    H176598   1.381   0.616  16.696 -1.2692 -0.2314 -1.0256
18369TIP3    H276599   1.416   0.753  16.750 -5.0365  1.8057 -3.3441
18370TIP3   OH276600   1.618   6.748  13.199  0.7362 -0.7734  0.1382
18370TIP3    H176601   1.529   6.767  13.226 -0.1359 -1.4325 -2.0026
18370TIP3    H276602   1.641   6.668  13.247  0.6890  0.1050  1.6656
18371TIP3   OH276603   4.006   5.013  12.462 -0.2310 -0.4073 -0.0777
18371TIP3    H176604   4.062   5.090  12.475  0.4955 -0.8543 -0.4657
18371TIP3    H276605   3.919   5.042  12.489 -0.1651  0.8492 -1.0784
18372TIP3   OH276606   0.157   6.716  16.669 -0.2624 -0.4373  0.1609
18372TIP3    H176607   0.213   6.793  16.661  0.5017 -0.7886  1.8047
18372TIP3    H276608   0.117   6.706  16.583  0.8059  0.8910 -0.5147
18373TIP3   OH276609   3.640   3.414   0.677  0.2522 -0.1319  0.5317
18373TIP3    H176610   3.649   3.358   0.754  0.9999 -1.7501 -0.6588
18373TIP3    H276611   3.565   3.469   0.696 -0.8671 -1.9068  1.5760
18374TIP3   OH276612   2.142   3.998   6.149 -0.1568 -0.2677  0.5571
18374TIP3    H176613   2.120   3.905   6.142  0.0981 -0.2169 -1.8886
18374TIP3    H276614   2.059   4.042   6.167 -0.8585 -0.7402 -1.2975
18375TIP3   OH276615   2.230   3.136   2.009  0.8580 -0.4240 -0.3427
18375TIP3    H176616   2.288   3.068   2.043  2.6473  1.0267 -0.2942
18375TIP3    H276617   2.170   3.156   2.081  0.0231 -2.2001 -0.5115
18376TIP3   OH276618   4.973   5.440  10.767  0.3930 -0.1435  0.0682
18376TIP3    H176619   4.937   5.384  10.699  1.0525  1.1780 -1.4311
18376TIP3    H276620   5.068   5.434  10.756  0.4841  0.9740  0.0768
18377TIP3   OH276621   6.830   4.863   3.373  0.5201 -0.0583 -0.1133
18377TIP3    H176622   6.916   4.831   3.346  0.2856 -1.1632  0.3863
18377TIP3    H276623   6.835   4.958   3.362  1.6864 -0.1373 -0.4043
18378TIP3   OH276624   6.664   1.328  15.275 -0.0111  0.2928 -0.2168
18378TIP3    H176625   6.601   1.313  15.205 -0.6686  0.6141  0.2962
18378TIP3    H276626   6.672   1.243  15.319 -0.7547  0.4650  0.2577
18379TIP3   OH276627   3.783   4.145   2.375 -0.0871 -0.2798  0.6830
18379TIP3    H176628   3.845   4.150   2.302  3.3007 -1.5616  3.1646
18379TIP3    H276629   3.697   4.142   2.334  1.6023 -1.8126 -3.2808
18380TIP3   OH276630   4.095   4.554  12.681  0.0793  0.2844 -0.1155
18380TIP3    H176631   4.008   4.518  12.662  0.1185  0.2719 -0.2677
18380TIP3    H276632   4.131   4.578  12.596  0.0931  0.5932 -0.0272
18381TIP3   OH276633   2.002   4.303  10.922  0.3927 -0.3701  0.5914
18381TIP3    H176634   2.011   4.364  10.849 -0.1918 -2.4357 -1.3398
18381TIP3    H276635   1.920   4.327  10.963  0.4280  0.4598  0.2052
18382TIP3   OH276636   1.799   6.202  13.568 -0.2239 -0.2927  0.2053
18382TIP3    H176637   1.788   6.119  13.614 -1.7783  0.2345  0.8477
18382TIP3    H276638   1.870   6.246  13.615 -0.5750 -0.5240  0.9703
18383TIP3   OH276639   4.710   2.790   2.260 -0.3707 -0.1232  0.5020
18383TIP3    H176640   4.723   2.885   2.250  0.9806 -0.3886 -0.6266
18383TIP3    H276641   4.659   2.781   2.340 -1.3435  1.6099  0.1397
18384TIP3   OH276642   1.815   0.966   2.364  0.4604  0.3972  0.0860
18384TIP3    H176643   1.807   1.056   2.335  0.2482  0.4166  0.2071
18384TIP3    H276644   1.830   0.916   2.283  0.8740  0.5747  0.0491
18385TIP3   OH276645   1.073   1.962  17.081 -0.0355 -0.6298  0.2299
18385TIP3    H176646   1.042   1.894  17.140 -1.5584 -0.6714 -0.5514
18385TIP3    H276647   1.092   2.036  17.138 -1.4460 -0.6723  0.8082
18386TIP3   OH276648   1.588   1.455  11.602 -0.2266  0.7664  0.4571
18386TIP3    H176649   1.543   1.372  11.616  0.2968  0.2819 -0.6953
18386TIP3    H276650   1.648   1.439  11.530  0.1238  2.0564  0.4341
18387TIP3   OH276651   6.503   5.660   1.723 -0.4199 -0.1166  0.7206
18387TIP3    H176652   6.461   5.593   1.670  2.1607 -1.0574 -0.2803
18387TIP3    H276653   6.566   5.612   1.777 -0.3849  1.2533  1.9729
18388TIP3   OH276654   6.032   4.890   2.400 -0.3199  0.2181  0.3339
18388TIP3    H176655   5.982   4.812   2.375  0.6453 -0.4137  0.3644
18388TIP3    H276656   6.116   4.857   2.431  0.6736  1.3266 -1.0217
18389TIP3   OH276657   5.198   3.443  12.344  0.1054  0.8660 -0.4726
18389TIP3    H176658   5.239   3.376  12.399  1.5792  2.0276 -0.0941
18389TIP3    H276659   5.110   3.454  12.380 -0.3674 -1.2035 -0.8631
18390TIP3   OH276660   1.155   3.429   5.946 -0.1119  0.4061  0.0275
18390TIP3    H176661   1.242   3.393   5.961  0.1108 -0.5646 -2.9662
18390TIP3    H276662   1.096   3.367   5.990  0.6241  1.3703  2.5515
18391TIP3   OH276663   0.268   0.734   5.242  0.2354 -0.5699 -0.3661
18391TIP3    H176664   0.270   0.817   5.289 -0.1881 -0.7312 -0.0545
18391TIP3    H276665   0.295   0.669   5.307 -0.8875 -0.8699 -0.1630
18392TIP3   OH276666   5.572   2.065   5.856 -0.4058 -0.6397  0.2990
18392TIP3    H176667   5.476   2.065   5.853 -0.3876  0.6961 -1.0067
18392TIP3    H276668   5.599   2.116   5.780  1.3587 -0.9853  0.6507
18393TIP3   OH276669   6.007   2.613   5.693 -0.3601  0.3763  0.1751
18393TIP3    H176670   5.942   2.595   5.761 -1.6472  2.6157 -0.3448
18393TIP3    H276671   6.009   2.534   5.639 -4.0699  0.8098 -0.8496
18394TIP3   OH276672   1.535   5.241   0.365  0.3006 -0.4839 -0.1458
18394TIP3    H176673   1.451   5.236   0.410 -0.1969 -1.2729 -1.1073
18394TIP3    H276674   1.512   5.258   0.273  1.1580 -1.1819 -0.5065
18395TIP3   OH276675   3.586   0.037   5.778  0.3909 -0.7118 -0.5544
18395TIP3    H176676   3.580   0.132   5.773 -0.0102 -0.7483 -0.7670
18395TIP3    H276677   3.669   0.016   5.735  0.4009 -0.4689 -0.6525
18396TIP3   OH276678   0.497   6.676   1.386  0.1530  0.6037  0.8177
18396TIP3    H176679   0.507   6.771   1.395 -0.7392  0.8622 -0.5509
18396TIP3    H276680   0.406   6.664   1.357  0.3375 -0.6532  0.6940
18397TIP3   OH276681   1.427   2.512   5.265  0.2637  0.7262  0.4350
18397TIP3    H176682   1.472   2.498   5.349  1.8147  1.1684 -0.2775
18397TIP3    H276683   1.339   2.479   5.279  1.3799 -2.1857  1.2836
18398TIP3   OH276684   3.382   2.374  14.734 -0.1473  0.5304  0.6210
18398TIP3    H176685   3.366   2.307  14.668  0.2427  0.4716  0.5818
18398TIP3    H276686   3.445   2.333  14.794 -0.2903  0.6814  0.8780
18399TIP3   OH276687   5.030   6.555  12.925  0.4534 -0.5692 -0.2245
18399TIP3    H176688   5.020   6.463  12.950  0.9189 -0.7873 -0.8020
18399TIP3    H276689   4.957   6.572  12.865  1.5662 -1.2145 -1.8498
18400TIP3   OH276690   0.339   5.812   6.294 -0.6205  0.8373 -0.4130
18400TIP3    H176691   0.316   5.802   6.387  0.4090  0.0959 -0.2200
18400TIP3    H276692   0.432   5.836   6.295 -0.2739 -0.3843 -1.2737
18401TIP3   OH276693   3.443   5.959   5.006 -0.2936 -0.0594  0.4470
18401TIP3    H176694   3.481   5.948   5.093 -0.4079 -2.5297  0.2527
18401TIP3    H276695   3.499   5.909   4.948 -1.6901 -0.6455 -0.4584
18402TIP3   OH276696   4.300   0.779  16.360 -0.2912  0.4374 -0.3621
18402TIP3    H176697   4.383   0.797  16.404  0.5012 -1.4269 -1.0023
18402TIP3    H276698   4.295   0.844  16.290  0.6484  0.5260 -0.3570
18403TIP3   OH276699   3.669   1.820  12.351  0.0756  0.2420 -0.0758
18403TIP3    H176700   3.650   1.816  12.257  1.2430 -1.4873 -0.2933
18403TIP3    H276701   3.661   1.912  12.374 -1.6087  0.5272 -1.5582
18404TIP3   OH276702   1.086   1.449   0.106  0.2063 -0.1716  0.6728
18404TIP3    H176703   1.149   1.389   0.066  0.1464 -0.2605  0.7126
18404TIP3    H276704   1.000   1.412   0.085 -0.0130  1.5881 -2.1062
18405TIP3   OH276705   3.469   5.543  11.454 -0.2652  0.1847 -0.6996
18405TIP3    H176706   3.437   5.453  11.447 -1.3494  0.5888 -1.2535
18405TIP3    H276707   3.423   5.579  11.529 -0.0427  0.3623 -0.6477
18406TIP3   OH276708   2.128   6.581   1.326  0.2761 -0.1682  0.3321
18406TIP3    H176709   2.186   6.522   1.277  1.1766  0.7727  0.2373
18406TIP3    H276710   2.104   6.530   1.404  2.5190 -0.0573  1.1828
18407TIP3   OH276711   1.430   4.709   3.868 -0.1824 -0.6138  0.2363
18407TIP3    H176712   1.516   4.739   3.838  0.2051 -0.5598  1.3779
18407TIP3    H276713   1.368   4.760   3.816  0.4712  0.7567  0.7556
18408TIP3   OH276714   3.097   5.816  16.367  0.2690 -0.0553 -0.3099
18408TIP3    H176715   3.010   5.777  16.371  1.6079 -3.6184 -1.8838
18408TIP3    H276716   3.137   5.796  16.452  0.3089 -0.5024 -0.4309
18409TIP3   OH276717   3.389   4.964   1.280  0.0278 -0.3503 -0.6615
18409TIP3    H176718   3.387   4.999   1.369  0.6115 -1.3523 -0.2417
18409TIP3    H276719   3.321   5.014   1.234  0.3502  0.8353  0.0835
18410TIP3   OH276720   4.816   0.460  16.034  0.0639  0.1991  0.0963
18410TIP3    H176721   4.883   0.446  15.966  0.2481 -2.4203  0.7167
18410TIP3    H276722   4.852   0.530  16.088  0.7355  1.1226 -1.4758
18411TIP3   OH276723   4.064   5.388  13.803  0.1231 -0.3218  0.6000
18411TIP3    H176724   3.975   5.363  13.829 -0.0342  0.1851  0.5554
18411TIP3    H276725   4.064   5.483  13.806  0.4544 -0.2954 -0.1097
18412TIP3   OH276726   5.741   1.343  10.842 -0.8231  0.9773  0.0246
18412TIP3    H176727   5.812   1.345  10.906 -1.7972 -0.9839  1.2677
18412TIP3    H276728   5.734   1.252  10.816 -1.0693  1.5838 -2.2479
18413TIP3   OH276729   0.109   5.065   5.046  0.3468  0.1494  0.0759
18413TIP3    H176730   0.155   5.072   5.130 -1.0810  0.5835  0.8428
18413TIP3    H276731   0.123   4.974   5.019 -1.1414 -0.7163  1.9807
18414TIP3   OH276732   1.512   2.981   1.552  0.0954  0.2636 -0.2587
18414TIP3    H176733   1.575   3.031   1.501 -0.2706  0.4185 -0.5635
18414TIP3    H276734   1.559   2.902   1.578  0.4030  0.3615 -0.5148
18415TIP3   OH276735   1.446   3.092  15.928 -0.2884  0.5227 -0.0677
18415TIP3    H176736   1.468   3.183  15.906 -0.8347  1.2498  2.0979
18415TIP3    H276737   1.352   3.093  15.941 -0.1304 -0.0378  1.2479
18416TIP3   OH276738   0.894   2.560  13.981  0.0880 -0.3563 -0.1144
18416TIP3    H176739   0.879   2.596  14.069 -0.1548 -3.0465  1.0479
18416TIP3    H276740   0.846   2.477  13.981  0.4975 -0.6570 -2.6445
18417TIP3   OH276741   3.761   2.556   4.856 -0.7496  0.0711  0.6388
18417TIP3    H176742   3.712   2.638   4.864 -1.1550 -0.2081  1.0905
18417TIP3    H276743   3.833   2.564   4.918 -1.6289 -0.4964  1.7661
18418TIP3   OH276744   0.103   1.596   3.596 -0.2027  0.2453  0.5494
18418TIP3    H176745   0.014   1.589   3.562 -0.3857  0.5955  0.9377
18418TIP3    H276746   0.160   1.578   3.521 -0.5879 -1.8895  0.7115
18419TIP3   OH276747   2.830   1.976   0.056  0.0411 -0.5109  0.7351
18419TIP3    H176748   2.740   2.002   0.035  0.3608  0.2029  0.2224
18419TIP3    H276749   2.849   2.021   0.138  0.1283 -0.2015  0.5454
18420TIP3   OH276750   0.659   5.380  10.895 -0.7239  0.0753  0.0617
18420TIP3    H176751   0.722   5.308  10.901 -2.0137 -1.2029 -1.0813
18420TIP3    H276752   0.677   5.419  10.809 -0.8323  0.3588  0.1683
18421TIP3   OH276753   5.353   3.131  14.746  0.0086  0.0222 -0.0095
18421TIP3    H176754   5.259   3.115  14.753  0.1181 -0.0504  1.6434
18421TIP3    H276755   5.391   3.086  14.821  1.2643  0.8976 -0.0851
18422TIP3   OH276756   2.344   5.789  15.302 -0.4343  0.0897 -0.1542
18422TIP3    H176757   2.384   5.761  15.220 -0.3885 -0.6951  0.1214
18422TIP3    H276758   2.355   5.714  15.361  0.8914  1.1676  1.0641
18423TIP3   OH276759   3.133   6.389  15.838  0.4763 -0.5691  0.3156
18423TIP3    H176760   3.198   6.385  15.768 -0.9392 -1.3507 -1.0191
18423TIP3    H276761   3.052   6.418  15.794  0.1906  1.7158  2.1592
18424TIP3   OH276762   4.448   2.842   4.306 -0.2265 -0.2518 -0.0848
18424TIP3    H176763   4.537   2.865   4.335 -0.5094  1.2883 -0.3635
18424TIP3    H276764   4.461   2.770   4.244  0.5599 -2.2566  2.2278
18425TIP3   OH276765   2.797   6.074  16.030 -0.1017 -0.3442  0.1659
18425TIP3    H176766   2.734   6.032  15.971 -0.8289  1.3608 -0.3389
18425TIP3    H276767   2.806   6.013  16.103  1.0289 -2.6475 -1.7845
18426TIP3   OH276768   6.724   3.569   6.362  0.7587  0.3754 -0.0675
18426TIP3    H176769   6.802   3.617   6.389 -0.7607  1.9467  1.8101
18426TIP3    H276770   6.668   3.635   6.320 -0.0639 -0.4391 -0.2922
18427TIP3   OH276771   1.571   5.600   4.495  0.4357 -0.5720 -0.2262
18427TIP3    H176772   1.648   5.643   4.531  0.6922 -0.9649 -0.2973
18427TIP3    H276773   1.606   5.533   4.436  0.0297  0.0206 -1.1645
18428TIP3   OH276774   1.594   5.699   5.525 -0.1593  0.2401 -0.2017
18428TIP3    H176775   1.601   5.643   5.602 -0.1053  0.5624  0.0331
18428TIP3    H276776   1.672   5.755   5.530  0.5996 -0.6644 -1.2501
18429TIP3   OH276777   5.812   2.252  14.102  0.3705 -0.1741  0.4072
18429TIP3    H176778   5.756   2.307  14.157 -0.3432 -0.1744 -0.2936
18429TIP3    H276779   5.755   2.180  14.075  1.0221 -0.7422  0.5422
18430TIP3   OH276780   5.026   5.976   3.020 -0.2786  0.7526 -0.1168
18430TIP3    H176781   5.066   6.035   2.956  0.8036  0.6298  0.4384
18430TIP3    H276782   5.058   6.006   3.104  0.7330 -0.9471  0.1486
18431TIP3   OH276783   1.021   1.100  13.441 -0.4455  0.0214  0.0565
18431TIP3    H176784   0.996   1.038  13.373  0.5969 -2.1581  1.5477
18431TIP3    H276785   1.058   1.174  13.394 -3.7205  0.6387 -1.9120
18432TIP3   OH276786   4.472   1.883  14.999 -0.4478  0.5587 -0.2089
18432TIP3    H176787   4.427   1.808  14.961  1.2061 -0.8998  0.5107
18432TIP3    H276788   4.410   1.920  15.061 -1.3948 -0.0702 -0.7662
18433TIP3   OH276789   4.455   2.486   2.643 -0.2570  0.1742  0.0561
18433TIP3    H176790   4.384   2.428   2.670 -1.3132  1.1572 -0.5218
18433TIP3    H276791   4.501   2.506   2.725  0.7394 -2.1852  0.1528
18434TIP3   OH276792   2.107   1.882  16.915  0.0207 -0.1200  0.5269
18434TIP3    H176793   2.047   1.935  16.967  0.9882  3.6479 -1.8160
18434TIP3    H276794   2.195   1.912  16.940  0.7612 -1.9208  0.3033
18435TIP3   OH276795   0.540   1.207  16.608 -0.1576  0.3388  0.5938
18435TIP3    H176796   0.510   1.294  16.633  0.2037  0.8541 -0.6688
18435TIP3    H276797   0.629   1.222  16.573 -0.6986 -0.2565 -1.1530
18436TIP3   OH276798   3.761   0.320  15.366  0.2541 -0.3587  0.0632
18436TIP3    H176799   3.709   0.399  15.379 -1.2825 -1.5776  1.7963
18436TIP3    H276800   3.730   0.284  15.283 -1.5977 -0.9625  0.9822
18437TIP3   OH276801   0.871   0.099  15.467  0.7281  0.0519 -0.3963
18437TIP3    H176802   0.899   0.190  15.461  1.3164 -0.2081 -2.0552
18437TIP3    H276803   0.881   0.064  15.378  1.6086 -1.9375  0.4148
18438TIP3   OH276804   5.895   0.073  12.672  0.6563 -0.6287  0.2206
18438TIP3    H176805   5.970   0.061  12.614  1.5006  0.1580  1.1228
18438TIP3    H276806   5.819   0.059  12.615  1.4663 -2.1987 -0.5298
18439TIP3   OH276807   4.392   3.569  16.706  0.2147  0.0449 -0.1761
18439TIP3    H176808   4.313   3.589  16.756  1.2190  1.4432  0.9355
18439TIP3    H276809   4.460   3.555  16.772  1.4826  1.5007 -1.1022
18440TIP3   OH276810   4.257   5.553   6.446  0.2313  0.2434 -0.3892
18440TIP3    H176811   4.252   5.459   6.427  0.8502 -0.0645  0.8406
18440TIP3    H276812   4.342   5.580   6.413 -0.1825  0.5173 -1.2643
18441TIP3   OH276813   5.160   2.433  16.051  0.2248  0.3477 -0.1257
18441TIP3    H176814   5.122   2.513  16.017 -2.8079 -1.0055 -0.2166
18441TIP3    H276815   5.120   2.363  15.998 -0.9257 -1.5032  2.9234
18442TIP3   OH276816   2.985   3.619   5.718 -0.5376 -0.1110  0.2383
18442TIP3    H176817   2.893   3.595   5.706 -0.2331 -0.5238 -1.5768
18442TIP3    H276818   3.033   3.559   5.661  0.7406  1.0206  0.0691
18443TIP3   OH276819   4.804   5.837   2.930  0.1827  0.0314  0.2406
18443TIP3    H176820   4.838   5.747   2.931 -0.4752 -0.2399 -0.6526
18443TIP3    H276821   4.864   5.886   2.986  0.9387 -0.8272  0.2007
18444TIP3   OH276822   0.604   3.906   2.388 -0.0107 -0.2833 -0.8138
18444TIP3    H176823   0.613   3.849   2.464  1.1996 -0.4940 -1.0876
18444TIP3    H276824   0.567   3.850   2.319 -0.7821 -0.1817 -0.4870
18445TIP3   OH276825   1.874   5.222   4.805  0.3463 -0.3001  0.0749
18445TIP3    H176826   1.798   5.169   4.782 -0.0833  0.4195 -0.1924
18445TIP3    H276827   1.949   5.164   4.791 -0.0103 -0.4009 -1.6005
18446TIP3   OH276828   0.465   0.917  11.466 -0.1488 -0.2523 -0.1830
18446TIP3    H176829   0.478   0.852  11.397 -2.0933 -0.4591 -0.4199
18446TIP3    H276830   0.506   0.878  11.543 -0.3981 -1.3155 -0.5659
18447TIP3   OH276831   6.813   0.201   5.815  0.4664  0.2987 -0.2186
18447TIP3    H176832   6.868   0.149   5.874 -0.5280 -0.3160  0.1851
18447TIP3    H276833   6.858   0.197   5.731  1.0361 -0.2030  0.1004
18448TIP3   OH276834   5.787   6.785  10.911 -0.1056  0.8842  0.4476
18448TIP3    H176835   5.702   6.824  10.931 -0.8989 -1.4326  1.9841
18448TIP3    H276836   5.797   6.798  10.817 -1.5590  2.2908  0.4340
18449TIP3   OH276837   4.548   5.721  12.758  0.2349 -0.3396  0.0686
18449TIP3    H176838   4.543   5.627  12.775 -0.2452 -0.0995  1.4075
18449TIP3    H276839   4.504   5.761  12.833  1.2327  0.9946 -0.0185
18450TIP3   OH276840   3.192   2.442  15.600 -0.5455 -0.2353  0.2554
18450TIP3    H176841   3.126   2.447  15.669 -0.6835 -0.5135  0.1427
18450TIP3    H276842   3.265   2.494  15.634 -0.2085 -1.1809  1.0552
18451TIP3   OH276843   2.915   4.971  12.640 -0.2388  0.2641  0.2044
18451TIP3    H176844   2.873   4.911  12.578 -0.9827  1.2372 -0.2591
18451TIP3    H276845   2.868   5.054  12.628  1.7462  1.3746 -0.2649
18452TIP3   OH276846   1.173   2.350  11.823 -0.1893  0.5999 -1.0138
18452TIP3    H176847   1.260   2.311  11.824 -0.0538  0.8968 -1.1768
18452TIP3    H276848   1.185   2.436  11.784 -0.5024  0.7696 -0.7426
18453TIP3   OH276849   3.709   1.654  15.002  0.3344  0.0672 -0.8101
18453TIP3    H176850   3.770   1.610  14.944  1.9157  0.6137  0.3688
18453TIP3    H276851   3.635   1.679  14.946 -0.0626 -2.8960 -1.7758
18454TIP3   OH276852   2.984   0.913   4.469  0.0886 -0.4129 -0.1192
18454TIP3    H176853   2.971   0.819   4.462 -1.1537 -0.2193 -0.7394
18454TIP3    H276854   3.067   0.930   4.425  0.1474 -1.1695 -0.3032
18455TIP3   OH276855   5.372   5.993  15.267 -0.0854 -0.2670 -0.0874
18455TIP3    H176856   5.458   6.016  15.301 -0.2780 -0.2643  0.4057
18455TIP3    H276857   5.369   6.034  15.180  1.2627 -2.1137 -1.0792
18456TIP3   OH276858   2.474   2.217  11.173 -0.2363  0.0777  0.2847
18456TIP3    H176859   2.442   2.303  11.198  0.0064 -0.0922  1.2376
18456TIP3    H276860   2.534   2.193  11.244 -0.9376 -1.2229  0.4697
18457TIP3   OH276861   1.119   4.866  13.183  0.0429 -0.0974  0.0452
18457TIP3    H176862   1.058   4.932  13.217 -1.0805 -1.1200  0.0613
18457TIP3    H276863   1.089   4.849  13.094 -0.5769 -1.6108  0.5103
18458TIP3   OH276864   0.895   5.383   3.218 -0.4911 -0.5402 -0.2475
18458TIP3    H176865   0.986   5.352   3.225 -0.7653 -1.0688  1.9894
18458TIP3    H276866   0.874   5.413   3.307 -1.6010  2.2990 -1.3850
18459TIP3   OH276867   3.381   1.238  12.833 -0.3594 -0.0509 -0.6567
18459TIP3    H176868   3.366   1.215  12.741  2.6156 -2.1650 -0.7765
18459TIP3    H276869   3.435   1.318  12.829  0.1953 -0.4247 -0.8073
18460TIP3   OH276870   4.523   0.339   4.174 -0.6231 -0.1078  0.3035
18460TIP3    H176871   4.568   0.393   4.109 -0.5621 -0.4983  0.0133
18460TIP3    H276872   4.430   0.353   4.156 -0.6063 -0.7364 -0.3202
18461TIP3   OH276873   6.208   0.141   1.627  0.3668 -0.1169  0.0050
18461TIP3    H176874   6.215   0.099   1.541  0.4723  0.2942 -0.1912
18461TIP3    H276875   6.259   0.222   1.618  0.8349 -0.3373  0.6246
18462TIP3   OH276876   5.983   6.288  12.037 -0.3153  0.3362  0.2331
18462TIP3    H176877   6.002   6.199  12.008  0.0712  0.4181  0.2219
18462TIP3    H276878   6.057   6.340  12.006 -0.4149  0.6168  0.4507
18463TIP3   OH276879   1.919   5.746  11.361  0.4674  1.0077 -0.0701
18463TIP3    H176880   1.845   5.735  11.300 -0.4514  1.1280  0.9804
18463TIP3    H276881   1.925   5.661  11.405  0.3785  1.2717  0.4593
18464TIP3   OH276882   1.076   0.938  16.584 -0.6013  0.0202 -0.1935
18464TIP3    H176883   1.088   0.843  16.576 -2.1562 -0.2193  0.1131
18464TIP3    H276884   1.136   0.975  16.519  0.6953 -1.1164  0.3069
18465TIP3   OH276885   1.032   1.690  17.160 -0.7972  0.6593 -0.4581
18465TIP3    H176886   0.984   1.680  17.078 -2.9717  0.2286  0.8073
18465TIP3    H276887   1.101   1.624  17.156 -3.0427 -1.8568 -0.4944
18466TIP3   OH276888   4.434   5.036   4.510 -0.2463 -0.3587 -0.3544
18466TIP3    H176889   4.523   5.010   4.531  0.4432 -0.5369 -3.0921
18466TIP3    H276890   4.415   5.108   4.570  0.8512 -1.7481  1.7924
18467TIP3   OH276891   5.910   1.162  16.928 -0.5817 -0.2480  0.0441
18467TIP3    H176892   5.972   1.094  16.954 -0.6308 -0.0502  0.6803
18467TIP3    H276893   5.960   1.244  16.932 -1.4024  0.2071  2.6325
18468TIP3   OH276894   2.998   1.541   4.785 -0.1373  0.5648  0.8321
18468TIP3    H176895   2.907   1.559   4.807 -0.5977 -0.3470 -0.2562
18468TIP3    H276896   3.021   1.464   4.837 -0.8093 -0.7695 -0.7736
18469TIP3   OH276897   6.368   5.127   5.353 -0.0866  0.4983  0.6395
18469TIP3    H176898   6.321   5.048   5.379 -1.1833  0.9927  0.2579
18469TIP3    H276899   6.389   5.171   5.435  0.2880 -0.0457  0.8420
18470TIP3   OH276900   6.255   5.571  11.335 -0.3384  0.4518  0.6407
18470TIP3    H176901   6.259   5.642  11.272  1.1409 -0.0243  0.1587
18470TIP3    H276902   6.343   5.565  11.371 -0.1962 -1.6374  0.0822
18471TIP3   OH276903   1.103   5.318  10.802  0.8220 -0.2384  0.4571
18471TIP3    H176904   1.029   5.380  10.804  0.0804 -0.8815 -2.4984
18471TIP3    H276905   1.158   5.349  10.730  2.5225 -0.8108  1.4668
18472TIP3   OH276906   6.706   1.927  11.183 -0.2867  0.1629 -0.6901
18472TIP3    H176907   6.782   1.869  11.190 -0.7900 -0.5863 -1.2365
18472TIP3    H276908   6.730   2.005  11.233  0.4602 -0.4646 -0.0433
18473TIP3   OH276909   2.599   2.758  12.076 -0.0719 -0.0147  0.9261
18473TIP3    H176910   2.538   2.689  12.101  0.2032 -0.0001  1.6691
18473TIP3    H276911   2.589   2.825  12.143 -0.8340  0.9974 -0.1562
18474TIP3   OH276912   2.711   1.476   0.261 -0.2856  0.7071  0.2298
18474TIP3    H176913   2.715   1.403   0.200 -0.9777 -0.1775  1.2166
18474TIP3    H276914   2.700   1.436   0.347 -1.4365  1.9716  0.7181
18475TIP3   OH276915   6.301   4.351  14.436  0.3217 -0.1569  0.2915
18475TIP3    H176916   6.361   4.352  14.362 -0.4765 -0.6832 -0.3909
18475TIP3    H276917   6.341   4.408  14.502  1.1600  0.1241 -0.4552
18476TIP3   OH276918   6.779   1.513  14.656  0.2390  0.1479 -0.6201
18476TIP3    H176919   6.860   1.486  14.612  0.7388  0.2161  0.2288
18476TIP3    H276920   6.809   1.568  14.729 -0.5952  0.4677 -0.5066
18477TIP3   OH276921   6.117   1.722   2.996  0.0474 -0.0921 -0.1088
18477TIP3    H176922   6.095   1.760   3.082 -0.4394 -0.8302  0.0983
18477TIP3    H276923   6.038   1.734   2.943  0.2459  0.0946 -0.3662
18478TIP3   OH276924   1.954   5.352   3.648 -0.1607  0.3275 -0.2077
18478TIP3    H176925   2.039   5.367   3.607 -0.1873  0.0054 -0.3793
18478TIP3    H276926   1.918   5.440   3.661  1.2698  0.6390  2.1555
18479TIP3   OH276927   0.315   0.020   0.149  0.5827  0.2055  0.1469
18479TIP3    H176928   0.263   0.051   0.075  1.1590 -0.7542 -0.6723
18479TIP3    H276929   0.350  -0.064   0.121 -0.0007 -0.6797  1.8721
18480TIP3   OH276930   1.057   4.715   3.222  0.1631 -0.3155  0.2953
18480TIP3    H176931   1.087   4.802   3.195 -3.0829  0.9225  0.1988
18480TIP3    H276932   1.052   4.720   3.317 -2.1372  0.5025  0.1976
18481TIP3   OH276933   4.788   6.840   2.622  0.1032 -0.8059 -0.0299
18481TIP3    H176934   4.859   6.849   2.686  0.1833 -0.6029 -0.1495
18481TIP3    H276935   4.812   6.763   2.570  0.0482 -0.9598  0.1695
18482TIP3   OH276936   4.696   4.299   5.488 -0.0956 -0.3374 -0.3996
18482TIP3    H176937   4.648   4.285   5.407  0.2203 -1.6116 -0.3905
18482TIP3    H276938   4.703   4.212   5.527 -0.3928  0.2670  1.0870
18483TIP3   OH276939   6.526   1.933   0.889 -0.1506  0.1372 -0.1340
18483TIP3    H176940   6.525   2.015   0.939 -0.8609 -0.5877  1.1110
18483TIP3    H276941   6.583   1.951   0.814  0.5682  1.4319  0.6760
18484TIP3   OH276942   3.460   1.938  16.004  0.2119 -0.2730 -0.2595
18484TIP3    H176943   3.447   1.995  15.928 -0.7820 -1.4616 -1.0091
18484TIP3    H276944   3.548   1.959  16.035  0.7507  0.0430 -1.9034
18485TIP3   OH276945   5.681   4.272   5.002 -0.6065  0.4862 -0.0685
18485TIP3    H176946   5.637   4.251   4.920 -0.2652  1.0603 -0.4073
18485TIP3    H276947   5.740   4.198   5.017 -1.1366  0.0705  0.0028
18486TIP3   OH276948   0.983   1.497  11.767 -0.2719 -0.0586 -0.0025
18486TIP3    H176949   0.921   1.568  11.750  1.6164  1.6007 -0.4468
18486TIP3    H276950   0.977   1.441  11.690 -0.0788  0.9994 -0.8182
18487TIP3   OH276951   4.836   5.661  11.896 -0.3959 -0.0095 -0.5437
18487TIP3    H176952   4.864   5.573  11.870  2.0985  0.7385 -0.6141
18487TIP3    H276953   4.812   5.652  11.988  3.7090 -0.1258  0.7243
18488TIP3   OH276954   6.616   2.416  10.998 -0.1631 -0.1836 -0.0813
18488TIP3    H176955   6.562   2.393  11.074  0.1424  1.4000  0.6631
18488TIP3    H276956   6.675   2.341  10.986  0.8317  0.1691  2.2257
18489TIP3   OH276957   5.516   5.796   1.383  0.1285 -0.2408 -0.0799
18489TIP3    H176958   5.504   5.703   1.403 -0.1251 -0.7496 -2.3920
18489TIP3    H276959   5.496   5.840   1.466 -2.3052 -2.0753  0.4200
18490TIP3   OH276960   0.240   1.328  11.720 -0.5112 -0.1807 -0.0107
18490TIP3    H176961   0.170   1.374  11.673  0.0184  0.0236 -0.6166
18490TIP3    H276962   0.210   1.324  11.810  0.0528  2.6320  0.3824
18491TIP3   OH276963   0.245   6.556  11.231 -0.1930 -0.2405 -0.2480
18491TIP3    H176964   0.259   6.608  11.152  0.4793  1.1358  0.7252
18491TIP3    H276965   0.208   6.618  11.294 -1.5897 -1.5262  0.2514
18492TIP3   OH276966   4.454   1.196  15.730  0.4160 -0.5354 -0.3370
18492TIP3    H176967   4.539   1.195  15.686 -0.6767 -0.2744 -2.6001
18492TIP3    H276968   4.415   1.111  15.710 -0.6476  0.0937 -1.0985
18493TIP3   OH276969   2.670   5.701  14.353 -0.3808 -0.0259 -0.1679
18493TIP3    H176970   2.761   5.726  14.335 -0.0618 -0.6776  0.4859
18493TIP3    H276971   2.627   5.706  14.267  0.1953  0.5729 -0.4375
18494TIP3   OH276972   4.712   2.403  14.806  0.1048  0.5932  0.2678
18494TIP3    H176973   4.774   2.348  14.853 -0.3859 -0.0590  0.1664
18494TIP3    H276974   4.653   2.435  14.874  1.3150  2.2991  0.5734
18495TIP3   OH276975   1.348   4.380   5.192 -0.0844  0.2613 -0.0784
18495TIP3    H176976   1.269   4.365   5.140  0.2667 -0.7259 -0.3565
18495TIP3    H276977   1.318   4.375   5.283 -0.0302 -2.4027 -0.1137
18496TIP3   OH276978   4.713   4.002  15.966 -0.2020 -1.0738 -0.3226
18496TIP3    H176979   4.735   3.995  15.873 -2.3310 -0.7990 -0.9081
18496TIP3    H276980   4.744   4.089  15.992 -3.1413  0.6047 -1.9355
18497TIP3   OH276981   0.404   0.562   0.766 -0.2257  0.3759 -0.1402
18497TIP3    H176982   0.324   0.574   0.714 -0.5498 -1.0678 -0.0331
18497TIP3    H276983   0.371   0.539   0.853  0.3165  2.0204  0.5304
18498TIP3   OH276984   0.572   4.746   5.992 -0.0832  0.5229 -0.0313
18498TIP3    H176985   0.579   4.837   6.023 -3.2705  1.0363 -0.4919
18498TIP3    H276986   0.478   4.729   5.989  0.3909 -2.4452 -1.0693
18499TIP3   OH276987   6.476   2.000  12.321  0.0195  0.1112  0.4969
18499TIP3    H176988   6.490   1.998  12.227 -0.5492 -0.3599  0.4204
18499TIP3    H276989   6.384   2.024  12.331  0.3900  1.4612  0.9646
18500TIP3   OH276990   5.755   4.609  13.358 -0.0907 -0.7607 -0.2330
18500TIP3    H176991   5.716   4.600  13.271  1.6633 -0.0332 -1.1452
18500TIP3    H276992   5.775   4.702  13.366  1.6288 -1.1132  0.0635
18501TIP3   OH276993   0.166   3.740   2.254 -0.2465  0.5686  0.1701
18501TIP3    H176994   0.153   3.825   2.295 -0.8694  0.9750 -0.8339
18501TIP3    H276995   0.169   3.758   2.160 -0.6426 -0.5353 -0.0792
18502TIP3   OH276996   1.852   2.120  12.321 -0.1094  0.1226 -0.0796
18502TIP3    H176997   1.940   2.105  12.356 -0.6745  1.5571  2.1649
18502TIP3    H276998   1.864   2.190  12.258  0.4902 -0.3960 -0.5597
18503TIP3   OH276999   3.054   6.653  14.121 -0.3357 -0.1970 -0.0209
18503TIP3    H177000   3.041   6.573  14.070 -1.5014 -0.3999  0.5635
18503TIP3    H277001   3.135   6.637  14.170 -0.5485 -1.0246  0.0856
18504TIP3   OH277002   2.726   6.268   6.466  0.2574 -0.3719  0.0386
18504TIP3    H177003   2.740   6.331   6.537 -1.2249 -1.4540  1.3909
18504TIP3    H277004   2.812   6.229   6.450  0.1200 -3.1947  4.3843
18505TIP3   OH277005   0.837   2.865   3.502  0.1809 -0.0687  0.0537
18505TIP3    H177006   0.894   2.794   3.471 -0.6627 -0.5974 -0.3224
18505TIP3    H277007   0.816   2.915   3.424 -0.5470 -0.3809  0.0388
18506TIP3   OH277008   3.608   2.606  14.589  0.0282 -0.4414  0.1926
18506TIP3    H177009   3.638   2.516  14.577 -1.1675 -0.7361 -0.7506
18506TIP3    H277010   3.573   2.631  14.504  1.0595  1.2122  0.2049
18507TIP3   OH277011   2.511   2.347  13.384  0.4134 -0.2907 -1.2167
18507TIP3    H177012   2.435   2.384  13.429  0.7148 -0.9690 -0.1344
18507TIP3    H277013   2.474   2.310  13.303 -0.0360  1.4341 -1.8455
18508TIP3   OH277014   1.636   0.890   3.379 -0.0705 -0.1398 -0.1913
18508TIP3    H177015   1.718   0.840   3.379 -0.3967 -0.8288  2.6687
18508TIP3    H277016   1.600   0.877   3.292  3.3398  1.0941 -2.0009
18509TIP3   OH277017   1.497   4.336   3.476  0.0764 -0.0461 -0.3804
18509TIP3    H177018   1.555   4.406   3.505  0.4677 -0.9976  1.2674
18509TIP3    H277019   1.415   4.351   3.523  0.3337 -0.9531  0.3927
18510TIP3   OH277020   6.348   2.513   3.490 -0.1393 -0.0257 -0.5275
18510TIP3    H177021   6.377   2.557   3.570 -0.6443  1.4992 -1.1560
18510TIP3    H277022   6.429   2.499   3.441 -0.0051  0.5807 -0.4924
18511TIP3   OH277023   3.897   6.544   3.391  0.2775 -0.3805 -0.5603
18511TIP3    H177024   3.980   6.570   3.429 -0.7092 -1.2280  2.4526
18511TIP3    H277025   3.907   6.452   3.369 -0.0440 -0.6787  0.4861
18512TIP3   OH277026   6.200   3.897  17.208 -0.1626 -0.7365 -0.1777
18512TIP3    H177027   6.195   3.857  17.295  1.8559 -0.8679 -0.0735
18512TIP3    H277028   6.121   3.951  17.202  0.9453  1.5226  2.9133
18513TIP3   OH277029   1.986   0.888  13.650  0.6991  0.6391  0.4575
18513TIP3    H177030   1.951   0.836  13.723 -0.1219  1.5631  0.7393
18513TIP3    H277031   2.015   0.969  13.691 -0.1954  1.3610 -0.2995
18514TIP3   OH277032   2.284   3.826  13.327 -0.8085 -0.1857  0.1012
18514TIP3    H177033   2.242   3.756  13.277 -1.1095  0.6975 -0.9390
18514TIP3    H277034   2.254   3.814  13.417 -1.1891 -1.1309 -0.1465
18515TIP3   OH277035   4.787   4.791   1.859  0.1881 -0.2879 -0.3653
18515TIP3    H177036   4.820   4.703   1.879  0.4304  0.0173  0.6386
18515TIP3    H277037   4.698   4.792   1.893  0.6358  0.2661  0.8644
18516TIP3   OH277038   2.917   5.743  11.340 -0.1501 -0.0719 -0.3916
18516TIP3    H177039   2.966   5.792  11.274 -0.4691 -0.5653 -1.0040
18516TIP3    H277040   2.851   5.695  11.290 -1.0406  0.3059  0.3792
18517TIP3   OH277041   6.393   1.501  14.311 -0.2093 -0.2092  0.1515
18517TIP3    H177042   6.397   1.416  14.354 -1.6166 -0.7509 -0.7460
18517TIP3    H277043   6.380   1.481  14.219 -2.1109  0.9675  0.1185
18518TIP3   OH277044   4.266   5.607  11.279 -0.6334  0.1452 -0.1226
18518TIP3    H177045   4.345   5.660  11.268 -1.5048  1.5441  0.1345
18518TIP3    H277046   4.296   5.529  11.325  0.6274  0.5583 -0.2040
18519TIP3   OH277047   6.375   4.827  14.885  0.3516 -0.1212  0.0211
18519TIP3    H177048   6.368   4.866  14.798  2.3536  3.2363  1.2018
18519TIP3    H277049   6.293   4.852  14.929  0.0084 -0.5218 -0.3740
18520TIP3   OH277050   5.067   2.787  10.805 -0.0288  0.4728  0.5795
18520TIP3    H177051   5.003   2.851  10.837 -0.3474  0.2746  0.3548
18520TIP3    H277052   5.032   2.702  10.833 -0.3750  0.2837 -0.3569
18521TIP3   OH277053   5.492   4.861   3.850 -0.4624  0.8780  0.2620
18521TIP3    H177054   5.474   4.804   3.775  1.0212 -1.1032  1.2866
18521TIP3    H277055   5.502   4.948   3.813  0.6010 -0.0908 -1.9092
18522TIP3   OH277056   6.740   5.952  11.325 -0.4900  0.8869  0.2403
18522TIP3    H177057   6.770   6.038  11.357  0.2531  1.0517 -0.8250
18522TIP3    H277058   6.747   5.959  11.230  1.2826 -0.9388  0.1764
18523TIP3   OH277059   4.207   2.619   0.256 -0.6269 -0.3794  0.3119
18523TIP3    H177060   4.200   2.523   0.249  0.8299 -0.5373  0.8114
18523TIP3    H277061   4.284   2.642   0.205 -0.6741  0.4837  0.6094
18524TIP3   OH277062   5.977   5.970  14.210  0.3026  0.1363 -0.0710
18524TIP3    H177063   5.937   5.884  14.223 -0.4702  0.7803  2.6217
18524TIP3    H277064   5.998   6.000  14.299  2.8749  1.7011 -1.0803
18525TIP3   OH277065   4.175   4.373  13.801  0.3113  0.1599  0.2676
18525TIP3    H177066   4.187   4.449  13.858 -1.0429  1.1574 -0.7369
18525TIP3    H277067   4.138   4.408  13.720  0.0174 -1.5180 -0.3725
18526TIP3   OH277068   6.057   0.307  16.215  0.3352  0.5893 -0.0482
18526TIP3    H177069   6.059   0.370  16.287  1.9263  0.2059  0.2869
18526TIP3    H277070   6.111   0.348  16.147  0.5434  0.0421 -0.2156
18527TIP3   OH277071   6.156   3.257   0.176  0.0508  0.1288  0.0535
18527TIP3    H177072   6.080   3.200   0.183  1.0755 -1.2133  0.6381
18527TIP3    H277073   6.120   3.342   0.150 -1.4431 -0.9128 -1.4263
18528TIP3   OH277074   2.902   6.744  17.126  0.2938 -0.5593  0.3409
18528TIP3    H177075   2.969   6.706  17.069  0.0589 -1.1075  0.4159
18528TIP3    H277076   2.837   6.674  17.135 -0.3795  0.0249  0.1201
18529TIP3   OH277077   4.354   2.239  16.922  0.2046 -0.1409  0.0601
18529TIP3    H177078   4.359   2.144  16.931  0.4620 -0.2593 -1.2228
18529TIP3    H277079   4.316   2.268  17.005  0.4864 -1.3184  0.6261
18530TIP3   OH277080   5.217   3.044   0.941  0.0575  0.0895  0.0055
18530TIP3    H177081   5.274   3.105   0.988  1.3283 -0.5629 -0.6277
18530TIP3    H277082   5.277   2.994   0.886 -1.2894  0.2019 -1.6119
18531TIP3   OH277083   2.691   3.374  13.401  0.2224  0.0128  0.1913
18531TIP3    H177084   2.709   3.283  13.426  1.5611  0.3492  0.5521
18531TIP3    H277085   2.760   3.424  13.443 -0.7294  1.2618  0.3172
18532TIP3   OH277086   2.586   5.082  11.331 -0.1541 -0.2199  0.5180
18532TIP3    H177087   2.630   5.159  11.367 -1.1550  0.3953  0.4308
18532TIP3    H277088   2.646   5.009  11.352 -0.2029  0.2571  2.4856
18533TIP3   OH277089   2.098   1.942   1.226 -0.4280 -0.6513 -0.2601
18533TIP3    H177090   2.080   2.001   1.299 -1.3252 -1.6941  0.4049
18533TIP3    H277091   2.132   1.998   1.157 -2.1730  0.7939 -0.0128
18534TIP3   OH277092   6.090   1.958  15.453  0.3037 -0.6816 -0.4181
18534TIP3    H177093   6.015   2.004  15.490  1.7340  0.1202  1.6955
18534TIP3    H277094   6.142   2.027  15.411  0.3929 -1.0536 -0.9296
18535TIP3   OH277095   1.972   1.013   3.778  0.8279  0.1627 -0.1072
18535TIP3    H177096   2.055   0.981   3.813  0.5582 -1.3208 -0.7580
18535TIP3    H277097   1.947   0.949   3.712 -0.6119  0.8264 -0.2511
18536TIP3   OH277098   3.168   6.172   3.903 -0.3457 -0.5928 -0.1505
18536TIP3    H177099   3.074   6.187   3.905 -0.1962  0.9802 -2.2437
18536TIP3    H277100   3.207   6.252   3.939  0.2281  0.9417 -3.7582
18537TIP3   OH277101   4.707   5.483   3.479  0.6884  0.5489  0.3107
18537TIP3    H177102   4.655   5.459   3.555  1.1130  2.5614  1.2984
18537TIP3    H277103   4.766   5.552   3.510 -0.5974  3.0548 -2.2520
18538TIP3   OH277104   4.226   5.149  10.828  0.3057  0.6420 -0.2450
18538TIP3    H177105   4.217   5.180  10.738 -1.8062  2.8117  0.6395
18538TIP3    H277106   4.143   5.106  10.848  1.2205 -0.9594  0.3065
18539TIP3   OH277107   6.153   5.939  10.845 -0.4339 -0.6918  0.2812
18539TIP3    H177108   6.090   5.978  10.784  0.8033  0.3529 -0.3800
18539TIP3    H277109   6.155   5.846  10.821 -2.3349 -0.9304  0.8940
18540TIP3   OH277110   0.906   6.785   1.948 -0.0856 -0.4381 -0.2146
18540TIP3    H177111   0.868   6.697   1.950 -0.1788 -0.4396 -1.3422
18540TIP3    H277112   0.831   6.842   1.928 -0.0466 -0.0832  0.6212
18541TIP3   OH277113   6.186   6.173   0.267  0.0728 -0.2234  0.0825
18541TIP3    H177114   6.186   6.266   0.244 -0.6733 -0.1307  0.4172
18541TIP3    H277115   6.278   6.148   0.266  0.3822  0.7884  1.0516
18542TIP3   OH277116   6.670   4.544  16.421 -0.7915  0.2546  0.3608
18542TIP3    H177117   6.604   4.611  16.440 -3.7500 -2.3725  0.1205
18542TIP3    H277118   6.654   4.476  16.487  1.6922 -0.5336  0.2270
18543TIP3   OH277119   2.054   1.427   6.336  0.2713  1.0119 -0.2375
18543TIP3    H177120   2.003   1.364   6.388  0.6236 -0.7266 -1.8954
18543TIP3    H277121   2.141   1.387   6.329  0.6941  2.0108 -0.7808
18544TIP3   OH277122   2.046   4.334  17.108  0.5515  0.4032 -0.4551
18544TIP3    H177123   2.133   4.303  17.133  1.1769  0.9143 -1.9384
18544TIP3    H277124   2.053   4.354  17.015 -0.8295  1.5865 -0.3300
18545TIP3   OH277125   5.072   6.465   4.913 -0.1181 -0.2842  0.0649
18545TIP3    H177126   5.000   6.518   4.947  0.8402  1.7457 -0.8751
18545TIP3    H277127   5.047   6.445   4.823 -0.7382 -2.0092  0.5865
18546TIP3   OH277128   3.985   1.237   3.232 -0.3838  0.0644  0.1889
18546TIP3    H177129   3.936   1.217   3.311  0.4280  2.1884  1.2897
18546TIP3    H277130   3.973   1.159   3.176 -4.3111  0.1196  0.6701
18547TIP3   OH277131   2.251   3.468  15.409  0.0630  0.2537  0.2180
18547TIP3    H177132   2.293   3.551  15.432  0.0244  0.0800  0.9184
18547TIP3    H277133   2.179   3.493  15.350 -1.1580  0.9264  1.9227
18548TIP3   OH277134   1.556   2.959  13.330 -0.0828 -0.1104 -0.1524
18548TIP3    H177135   1.563   2.939  13.423 -0.6436  1.0756  0.1680
18548TIP3    H277136   1.580   3.051  13.323  1.9789 -0.6900 -1.4963
18549TIP3   OH277137   0.744   4.548  12.301 -0.1030  0.4808  0.4774
18549TIP3    H177138   0.663   4.598  12.295 -0.2793  0.0602 -0.8759
18549TIP3    H277139   0.806   4.609  12.342 -0.9085  1.0281  0.9154
18550TIP3   OH277140   5.865   1.712  16.115 -0.2294  0.5592 -0.5245
18550TIP3    H177141   5.829   1.793  16.079 -2.9073 -0.7569 -1.1141
18550TIP3    H277142   5.863   1.650  16.041 -0.3137 -0.6079  0.4243
18551TIP3   OH277143   4.765   1.336  12.626  0.3613 -0.1255  0.1829
18551TIP3    H177144   4.734   1.250  12.597  1.0129  0.1741 -1.4982
18551TIP3    H277145   4.748   1.336  12.720  0.0578 -1.9688  0.1777
18552TIP3   OH277146   4.740   0.109   3.033 -0.8647 -0.4306 -0.1297
18552TIP3    H177147   4.720   0.189   2.986  2.0475  0.8462  0.5294
18552TIP3    H277148   4.696   0.119   3.117 -3.4523 -1.2589 -1.3027
18553TIP3   OH277149   4.085   5.769  12.158  0.5397  0.3548 -0.3028
18553TIP3    H177150   4.002   5.815  12.170  0.0028 -0.9567  1.2393
18553TIP3    H277151   4.151   5.836  12.173 -0.2343  0.8787  0.9292
18554TIP3   OH277152   3.146   3.363   2.076 -0.0390  0.1912 -0.3077
18554TIP3    H177153   3.198   3.411   2.140  0.7441 -1.0114 -0.0086
18554TIP3    H277154   3.127   3.428   2.007  0.2648  1.1336  0.4731
18555TIP3   OH277155   4.477   3.799   4.546 -0.3688 -0.0840  0.7405
18555TIP3    H177156   4.522   3.776   4.627 -0.0343  0.0594  0.5999
18555TIP3    H277157   4.413   3.729   4.533  0.6338 -0.9559  0.3203
18556TIP3   OH277158   1.067   5.938   5.803  0.7219  0.4884  0.0393
18556TIP3    H177159   0.990   5.994   5.812  1.6876  1.7471  0.8369
18556TIP3    H277160   1.107   5.936   5.890  0.3193 -2.1192  0.2440
18557TIP3   OH277161   2.476   3.488   3.283  0.1980  0.2565  0.2384
18557TIP3    H177162   2.550   3.436   3.316  0.3029 -0.2623 -0.7385
18557TIP3    H277163   2.413   3.422   3.253  0.3258  0.6651 -1.0117
18558TIP3   OH277164   6.633   2.968  12.395 -0.4778  0.2241 -0.1449
18558TIP3    H177165   6.544   2.934  12.379 -1.0887  2.0855 -0.9704
18558TIP3    H277166   6.682   2.892  12.426 -1.9153 -1.2580 -1.2936
18559TIP3   OH277167   1.564   2.356  15.292  0.0556  0.1844  0.2750
18559TIP3    H177168   1.635   2.385  15.348 -0.7039  0.4542  1.1296
18559TIP3    H277169   1.485   2.387  15.336 -0.5223  1.2754 -1.4672
18560TIP3   OH277170   3.148   4.130  13.064  0.3950 -0.6591 -0.1109
18560TIP3    H177171   3.169   4.222  13.081  0.3175 -0.8099  0.8164
18560TIP3    H277172   3.231   4.091  13.035 -0.1263  0.3068 -3.3424
18561TIP3   OH277173   2.655   5.215  14.057  0.4385  0.4102  0.1201
18561TIP3    H177174   2.606   5.279  14.108 -1.9114 -0.5225 -0.8658
18561TIP3    H277175   2.681   5.149  14.121 -3.9753 -1.6762  0.1067
18562TIP3   OH277176   6.243   0.082  16.169  0.4862 -0.3849 -0.3095
18562TIP3    H177177   6.301   0.122  16.104  0.0416  0.9237  0.0661
18562TIP3    H277178   6.167   0.141  16.173  0.5069 -0.4220  1.3975
18563TIP3   OH277179   0.435   2.723  13.518 -0.0476 -0.2327  0.0024
18563TIP3    H177180   0.422   2.636  13.556 -0.2802  0.3309  1.2269
18563TIP3    H277181   0.494   2.767  13.578 -0.1708  0.5702 -0.4541
18564TIP3   OH277182   6.035   1.207   0.040  0.5746 -0.2534  0.1496
18564TIP3    H177183   6.124   1.242   0.034  0.2842  0.3239 -2.7699
18564TIP3    H277184   6.031   1.163   0.125  3.3052  0.5484  0.7929
18565TIP3   OH277185   0.446   3.397  12.198  0.1488 -0.5666  0.0319
18565TIP3    H177186   0.515   3.407  12.132 -0.2084  0.0876 -0.2531
18565TIP3    H277187   0.483   3.338  12.263  1.1262  0.0762  0.0756
18566TIP3   OH277188   6.612   4.718  16.018  0.0490  0.2944  0.4221
18566TIP3    H177189   6.570   4.632  16.020 -0.0176  0.3363  1.1187
18566TIP3    H277190   6.549   4.777  16.060  0.2119  0.6293  0.2006
18567TIP3   OH277191   3.196   6.840  12.187  0.2219 -0.2064  0.2877
18567TIP3    H177192   3.245   6.793  12.119  0.0462 -0.0306  0.0356
18567TIP3    H277193   3.220   6.932  12.174 -0.6879 -0.0289 -0.2811
18568TIP3   OH277194   3.675   2.234  16.550 -0.0131 -0.2545 -0.0009
18568TIP3    H177195   3.580   2.237  16.537 -0.4106 -0.5187  2.4603
18568TIP3    H277196   3.693   2.302  16.615  1.4138 -0.6588  0.0631
18569TIP3   OH277197   1.309   6.278  15.679 -0.3360  0.1635  0.5958
18569TIP3    H177198   1.375   6.328  15.726  0.0165  0.2783 -0.0184
18569TIP3    H277199   1.239   6.266  15.743 -0.1434  0.8744  0.9563
18570TIP3   OH277200   2.435   1.091  11.393 -0.2837 -0.5504  0.2200
18570TIP3    H177201   2.493   1.142  11.448  0.0799 -0.1344 -0.5264
18570TIP3    H277202   2.372   1.155  11.358  1.1297 -0.2308 -1.9878
18571TIP3   OH277203   4.971   6.782  13.352  0.4482 -0.8120  0.1663
18571TIP3    H177204   4.967   6.872  13.384  1.1649 -0.8210  0.3066
18571TIP3    H277205   4.998   6.790  13.260 -4.0082 -0.6322 -1.3639
18572TIP3   OH277206   0.947   2.052   2.640 -0.2841 -0.0283 -0.1107
18572TIP3    H177207   0.852   2.063   2.644 -0.2555  0.7328 -1.2376
18572TIP3    H277208   0.960   1.982   2.576 -0.0395  1.0363 -1.2591
18573TIP3   OH277209   2.436   4.064   4.230 -0.0070 -0.3243  0.4649
18573TIP3    H177210   2.441   4.072   4.325  0.1591 -1.1263  0.5324
18573TIP3    H277211   2.520   4.025   4.204 -0.2840 -0.6720  0.0601
18574TIP3   OH277212   6.566   0.379   4.689  0.1040  0.1830  0.1241
18574TIP3    H177213   6.526   0.304   4.734 -0.3461  0.4631  0.1959
18574TIP3    H277214   6.541   0.367   4.597 -0.7391  0.7174  0.2653
18575TIP3   OH277215   2.538   0.408   3.467  0.1678  0.0896 -0.1011
18575TIP3    H177216   2.575   0.328   3.431  1.0603  0.5858 -0.2970
18575TIP3    H277217   2.601   0.477   3.445 -0.0813  0.6812  0.9537
18576TIP3   OH277218   0.897   2.901  12.371 -0.6163  0.6544  0.2811
18576TIP3    H177219   0.893   2.941  12.458  0.4121  0.2905  0.5129
18576TIP3    H277220   0.949   2.962  12.319  0.5779 -0.1210  0.5157
18577TIP3   OH277221   6.000   0.124  15.727  0.4960 -0.5387 -0.1272
18577TIP3    H177222   5.926   0.162  15.775  0.5952 -0.4976 -0.0083
18577TIP3    H277223   6.074   0.180  15.747  0.5035 -0.4267 -0.4557
18578TIP3   OH277224   1.113   3.433  16.322  0.3247  0.1917 -0.7059
18578TIP3    H177225   1.156   3.357  16.284  0.2663  0.5715 -1.5476
18578TIP3    H277226   1.026   3.402  16.346  0.8746 -0.4564  0.5687
18579TIP3   OH277227   5.139   3.289   2.625  0.6746  0.8270 -0.3316
18579TIP3    H177228   5.113   3.198   2.611  0.1364  1.0165 -0.5933
18579TIP3    H277229   5.084   3.319   2.698  2.6626  0.1867  1.5599
18580TIP3   OH277230   6.308   0.061   1.374 -0.6219  0.3906  0.2817
18580TIP3    H177231   6.266   0.131   1.325  0.4822 -0.2817 -1.7587
18580TIP3    H277232   6.276  -0.019   1.333  0.6249 -0.1885  0.3690
18581TIP3   OH277233   4.580   0.662  12.118 -0.8813 -0.2441  0.3857
18581TIP3    H177234   4.632   0.588  12.148  1.1362  0.3180 -1.4352
18581TIP3    H277235   4.501   0.659  12.171  1.2098 -0.8127  3.7828
18582TIP3   OH277236   0.555   6.547   5.820 -0.2580 -0.4420  0.9303
18582TIP3    H177237   0.636   6.545   5.870  0.0459  1.2462  0.5796
18582TIP3    H277238   0.564   6.475   5.757  1.3951  0.2797  0.2780
18583TIP3   OH277239   6.289   2.493   0.638  0.2398 -0.3589  0.1395
18583TIP3    H177240   6.310   2.400   0.627  2.2694 -0.1449  1.6180
18583TIP3    H277241   6.362   2.539   0.597  0.6001  0.5035  1.6475
18584TIP3   OH277242   2.122   6.448  16.891 -0.1183  0.1423  0.1429
18584TIP3    H177243   2.201   6.472  16.843 -0.9083 -0.3821 -1.4975
18584TIP3    H277244   2.132   6.355  16.909 -0.9066 -0.2252 -1.2128
18585TIP3   OH277245   1.150   1.425   3.327 -0.0413  0.0762 -0.2077
18585TIP3    H177246   1.234   1.381   3.312  2.0477  3.0505  1.6660
18585TIP3    H277247   1.106   1.423   3.242  2.4371 -0.6228 -1.5727
18586TIP3   OH277248   6.306   3.077   1.941  0.4347 -0.2207 -0.2108
18586TIP3    H177249   6.383   3.043   1.897 -0.2818 -0.0267 -1.6839
18586TIP3    H277250   6.258   3.123   1.872 -0.2790  0.8997  0.9837
18587TIP3   OH277251   5.367   5.143   2.028  0.4025  0.2048  0.6528
18587TIP3    H177252   5.454   5.119   1.997 -0.4302 -1.6053 -0.4475
18587TIP3    H277253   5.321   5.060   2.038 -1.1884  1.1161  1.2631
18588TIP3   OH277254   5.600   5.850   4.706  0.0976 -0.0265 -0.0973
18588TIP3    H177255   5.591   5.765   4.663  0.2845  0.1265 -0.4370
18588TIP3    H277256   5.515   5.893   4.693  0.0702 -0.0795 -0.0938
18589TIP3   OH277257   2.741   3.858  10.342  0.5469  0.6028  0.3487
18589TIP3    H177258   2.764   3.767  10.360  0.4446  0.1020 -1.7593
18589TIP3    H277259   2.651   3.867  10.373  0.7858  0.1932  1.1805
18590TIP3   OH277260   6.572   3.440   3.703  0.4246 -0.3341 -0.1059
18590TIP3    H177261   6.649   3.385   3.689  0.3555 -0.3752 -0.3224
18590TIP3    H277262   6.570   3.498   3.627  2.0365  1.8063  1.3450
18591TIP3   OH277263   1.119   5.983  11.623  0.0426  0.7200  0.0525
18591TIP3    H177264   1.102   5.919  11.554  0.5029 -0.1665  0.7494
18591TIP3    H277265   1.209   6.011  11.607 -0.5769  2.2356 -1.0623
18592TIP3   OH277266   4.107   6.249   5.321  0.1311 -0.2856 -0.1620
18592TIP3    H177267   4.180   6.304   5.349  0.5206 -0.0764 -1.4909
18592TIP3    H277268   4.079   6.288   5.238 -1.8754 -0.0163  0.5914
18593TIP3   OH277269   3.916   4.777   5.634  0.6529  0.1288 -0.2630
18593TIP3    H177270   4.009   4.802   5.637  0.6160  0.1879  1.8016
18593TIP3    H277271   3.869   4.860   5.643  0.4577 -0.1141  1.1435
18594TIP3   OH277272   4.643   2.299  13.372  0.3845  0.7135 -0.2766
18594TIP3    H177273   4.567   2.246  13.347 -0.1427  1.4747 -0.3408
18594TIP3    H277274   4.676   2.336  13.290  1.2771 -0.1898 -0.3349
18595TIP3   OH277275   5.382   1.080  15.006  0.2283  0.5313 -0.4019
18595TIP3    H177276   5.383   1.091  15.101 -2.2289  0.1955 -0.2673
18595TIP3    H277277   5.322   1.008  14.991 -0.0167  1.0651 -2.2551
18596TIP3   OH277278   1.008   2.386   3.493 -0.1449 -0.2493  0.0015
18596TIP3    H177279   1.057   2.407   3.572 -0.4475 -1.9125  0.6867
18596TIP3    H277280   1.014   2.290   3.486 -1.8728 -0.3464 -0.8088
18597TIP3   OH277281   1.434   2.974  13.597  0.3691 -0.5524 -0.5726
18597TIP3    H177282   1.371   2.944  13.662  0.6339 -1.4528 -0.7142
18597TIP3    H277283   1.518   2.971  13.643  0.6018 -1.5092 -1.0405
18598TIP3   OH277284   6.804   3.946  15.748  0.4792  0.9397  0.2069
18598TIP3    H177285   6.772   3.909  15.830 -0.4975 -2.1372 -1.3586
18598TIP3    H277286   6.866   3.881  15.715  1.6895  2.6182 -0.9810
18599TIP3   OH277287   6.687   5.572   2.125 -0.0090 -0.0103 -0.1707
18599TIP3    H177288   6.640   5.634   2.181 -2.4816 -2.3325  0.5109
18599TIP3    H277289   6.619   5.537   2.067  1.5360 -1.2475 -1.2919
18600TIP3   OH277290   5.021   5.679   4.252 -0.2596  0.9895 -0.2883
18600TIP3    H177291   5.038   5.585   4.251  1.8316  1.2849 -2.7105
18600TIP3    H277292   5.035   5.705   4.343 -0.2265 -0.9091  0.2988
18601TIP3   OH277293   6.707   2.254  13.386  0.1996  0.2710 -0.6044
18601TIP3    H177294   6.705   2.195  13.461  2.0646 -0.4466 -1.0810
18601TIP3    H277295   6.625   2.304  13.393 -0.3003 -0.7140  1.1253
18602TIP3   OH277296   5.713   4.508  14.096  0.1806  0.1427  0.6157
18602TIP3    H177297   5.805   4.498  14.118 -0.1014 -0.0960  1.7112
18602TIP3    H277298   5.681   4.418  14.087  0.3227  0.2118 -1.0299
18603TIP3   OH277299   6.279   5.776   1.859  0.3302  0.7160 -0.2716
18603TIP3    H177300   6.357   5.736   1.820 -0.8921 -0.6745 -1.3912
18603TIP3    H277301   6.255   5.716   1.930 -0.1500  0.7299 -0.4222
18604TIP3   OH277302   4.576   2.811  12.787 -0.3768  0.1887 -0.1507
18604TIP3    H177303   4.504   2.856  12.830 -0.8366  0.1187 -0.8276
18604TIP3    H277304   4.564   2.719  12.808  0.4454  0.3239  1.0614
18605TIP3   OH277305   6.030   0.832   0.682  0.0360  0.5165 -0.4978
18605TIP3    H177306   5.977   0.835   0.762  1.4607  0.1432  0.4996
18605TIP3    H277307   6.043   0.738   0.665  1.6178  0.5735  0.1759
18606TIP3   OH277308   0.453   5.097  11.946 -0.6130 -0.0741 -0.2168
18606TIP3    H177309   0.473   5.045  12.024  1.2961 -0.4267 -0.8813
18606TIP3    H277310   0.487   5.184  11.965 -0.0918 -0.1760 -0.6564
18607TIP3   OH277311   3.974   2.411  13.982 -0.5871  0.6103 -0.1366
18607TIP3    H177312   4.039   2.462  13.933 -1.4637  1.5281 -0.3763
18607TIP3    H277313   3.919   2.371  13.914  1.7138 -3.0743 -0.1332
18608TIP3   OH277314   1.919   6.818   2.459  0.0173  0.2523  0.4967
18608TIP3    H177315   1.860   6.801   2.533 -0.6909  0.2207 -0.0643
18608TIP3    H277316   1.862   6.816   2.382  0.8294 -0.2256 -0.1051
18609TIP3   OH277317   2.238   4.555  15.805  0.2812 -0.0699  0.4538
18609TIP3    H177318   2.243   4.526  15.714  3.0119 -0.0277  0.5046
18609TIP3    H277319   2.152   4.525  15.836 -0.4794 -0.5540 -1.9494
18610TIP3   OH277320   6.570   2.238  17.128 -0.4677 -0.0767  0.2129
18610TIP3    H177321   6.589   2.218  17.220 -1.0490  0.7297  0.5155
18610TIP3    H277322   6.626   2.178  17.079  1.1155  0.6262  1.0785
18611TIP3   OH277323   1.310   5.619  12.762 -0.0450 -0.1756 -0.5294
18611TIP3    H177324   1.317   5.667  12.844 -0.0480  1.3523 -1.3628
18611TIP3    H277325   1.296   5.528  12.787  1.1699  0.0528  1.1473
18612TIP3   OH277326   0.342   1.126   2.355 -0.4114  0.2881 -0.0955
18612TIP3    H177327   0.358   1.151   2.446  0.3915  1.8417 -0.6224
18612TIP3    H277328   0.406   1.058   2.336 -0.6120 -0.0713  0.4994
18613TIP3   OH277329   5.973   1.503   3.906 -0.2828 -0.1220  0.3844
18613TIP3    H177330   6.019   1.587   3.916  0.0985 -0.4529  1.4405
18613TIP3    H277331   6.043   1.439   3.894 -0.4881 -0.5242  1.2740
18614TIP3   OH277332   2.345   4.790  15.905  0.0289  0.2393 -0.0937
18614TIP3    H177333   2.278   4.818  15.968  0.2798  0.1963  0.1939
18614TIP3    H277334   2.309   4.711  15.865  0.3735 -0.4227  0.8507
18615TIP3   OH277335   0.206   4.744   2.107  0.1738  0.7372  0.1622
18615TIP3    H177336   0.126   4.797   2.113 -0.3856 -0.1838  1.3522
18615TIP3    H277337   0.217   4.708   2.195  0.8020 -0.7328 -0.4818
18616TIP3   OH277338   2.549   0.289  14.308 -0.2964 -0.0635 -0.2673
18616TIP3    H177339   2.576   0.374  14.343 -0.0121 -0.7795  1.3412
18616TIP3    H277340   2.467   0.270  14.352 -0.6952 -0.3486 -1.1100
18617TIP3   OH277341   0.420   5.643   0.677 -0.4891 -0.2351 -0.0754
18617TIP3    H177342   0.349   5.671   0.735 -2.1262 -1.1475 -1.5377
18617TIP3    H277343   0.400   5.552   0.657  2.0989 -1.1116  0.8094
18618TIP3   OH277344   0.668   1.470   5.968  0.6296  0.1523  0.3803
18618TIP3    H177345   0.654   1.427   5.884 -1.1518  0.0768  0.6761
18618TIP3    H277346   0.721   1.408   6.018  1.2544 -0.0324 -0.4862
18619TIP3   OH277347   5.758   6.463  11.997  0.7267  0.5127 -0.2033
18619TIP3    H177348   5.716   6.443  11.913 -0.1449 -1.2929  0.6123
18619TIP3    H277349   5.831   6.402  12.002  1.0045  0.8782  0.1743
18620TIP3   OH277350   1.010   1.516  13.516  0.3139 -0.2701  0.0459
18620TIP3    H177351   0.931   1.464  13.529  0.0378  0.6308  2.5170
18620TIP3    H277352   1.009   1.538  13.423 -2.1709 -0.5667 -0.0656
18621TIP3   OH277353   3.192   4.625   4.260  0.0945  0.2205 -0.6728
18621TIP3    H177354   3.148   4.541   4.247  0.8926 -0.3459  0.1501
18621TIP3    H277355   3.166   4.653   4.348 -0.8099  1.2547 -1.2387
18622TIP3   OH277356   4.047   6.068  16.601 -0.2314 -0.0784  0.1167
18622TIP3    H177357   4.049   6.123  16.680 -0.4429  0.9714 -0.5868
18622TIP3    H277358   4.139   6.054  16.579 -0.1692 -0.4425  0.5864
18623TIP3   OH277359   4.504   6.673   4.065 -0.1352  0.2502 -0.3058
18623TIP3    H177360   4.501   6.638   4.154  0.0044 -1.3267 -0.9009
18623TIP3    H277361   4.424   6.641   4.024 -0.0128  0.6535 -0.8639
18624TIP3   OH277362   0.786   3.978  16.269  0.5661  0.2305 -0.4119
18624TIP3    H177363   0.704   3.930  16.257  0.2442  0.8718 -0.8382
18624TIP3    H277364   0.854   3.911  16.269 -0.1219 -0.6246  2.5266
18625TIP3   OH277365   4.757   4.540   5.348  0.0668  0.6539  0.0599
18625TIP3    H177366   4.744   4.450   5.378  0.0457  0.4801 -0.4620
18625TIP3    H277367   4.813   4.532   5.271  1.7126  1.2520  1.1557
18626TIP3   OH277368   0.787   1.124  13.596 -0.3956  0.1894  0.1114
18626TIP3    H177369   0.744   1.042  13.571  1.0628 -0.6177  0.1428
18626TIP3    H277370   0.877   1.115  13.565 -0.1837  1.7762  0.1450
18627TIP3   OH277371   0.785   0.066   5.548 -0.6360 -0.6730  0.0956
18627TIP3    H177372   0.815   0.131   5.484 -2.1174  0.2225  0.2534
18627TIP3    H277373   0.745   0.118   5.618 -0.3845 -1.7045  1.0400
18628TIP3   OH277374   1.942   3.271   0.076  0.2635  0.4167 -0.6483
18628TIP3    H177375   2.033   3.278   0.049  0.6821 -0.0530  0.5752
18628TIP3    H277376   1.914   3.184   0.045  1.8665 -1.8023  3.3925
18629TIP3   OH277377   5.800   3.570   6.102  0.4824 -0.6892  0.1975
18629TIP3    H177378   5.767   3.560   6.191  0.2029 -0.7274  0.0918
18629TIP3    H277379   5.892   3.547   6.108  0.4137 -0.9112  0.4364
18630TIP3   OH277380   4.460   2.173   2.694 -0.1845 -0.2667  0.3121
18630TIP3    H177381   4.451   2.239   2.626  0.4615  0.1994  0.6670
18630TIP3    H277382   4.504   2.100   2.651 -1.7307 -0.8668 -0.3252
18631TIP3   OH277383   4.769   0.149   5.838 -0.2072  0.1179  0.0468
18631TIP3    H177384   4.730   0.129   5.923  0.4057 -1.8401 -0.0821
18631TIP3    H277385   4.857   0.178   5.858 -0.1996  0.0520  0.1117
18632TIP3   OH277386   1.696   2.671  10.190 -0.1952 -0.4806  0.2782
18632TIP3    H177387   1.778   2.703  10.151  0.4339 -2.0584  0.2166
18632TIP3    H277388   1.667   2.742  10.247  0.5026  0.6441 -0.7122
18633TIP3   OH277389   3.587   2.705  14.063 -0.1136 -0.0074 -1.1903
18633TIP3    H177390   3.541   2.779  14.022 -1.3638 -0.3885 -0.5043
18633TIP3    H277391   3.677   2.713  14.031 -0.4076  1.3525 -1.7564
18634TIP3   OH277392   0.039   6.476   3.254  0.0826 -0.2177  0.2962
18634TIP3    H177393  -0.012   6.428   3.189  1.0567 -0.4242 -0.3429
18634TIP3    H277394   0.058   6.560   3.211  2.0514 -0.9461 -0.3555
18635TIP3   OH277395   5.410   5.616  14.037  0.1527 -0.2688 -0.0452
18635TIP3    H177396   5.433   5.563  14.113  1.3874 -0.6323 -0.6474
18635TIP3    H277397   5.476   5.686  14.036 -1.6842  1.5744  0.9760
18636TIP3   OH277398   5.587   2.644   2.054  0.2932  0.1729  0.0726
18636TIP3    H177399   5.663   2.700   2.068  0.3735 -0.1751  1.1350
18636TIP3    H277400   5.605   2.598   1.972  0.5551  1.1558 -0.4387
18637TIP3   OH277401   1.353   4.636   3.496 -0.0753 -0.1488  0.0784
18637TIP3    H177402   1.398   4.702   3.548  0.5077  0.2790 -0.9371
18637TIP3    H277403   1.322   4.683   3.419 -1.6283 -0.5916  0.3944
18638TIP3   OH277404   4.711   6.237   3.450 -0.0697  0.3965  0.0782
18638TIP3    H177405   4.775   6.235   3.379  0.5749  0.3546  0.6531
18638TIP3    H277406   4.762   6.260   3.528 -0.5446 -0.8225  0.7698
18639TIP3   OH277407   5.058   5.852   1.217 -0.0914  0.1993  0.0223
18639TIP3    H177408   5.039   5.934   1.262  0.3777  0.6429 -0.5681
18639TIP3    H277409   5.095   5.879   1.133  1.3070 -0.6249  0.3532
18640TIP3   OH277410   0.306   3.689   4.153 -0.2335  0.5763 -0.7288
18640TIP3    H177411   0.318   3.594   4.153  0.2491  0.6001  1.1188
18640TIP3    H277412   0.285   3.711   4.062  0.1198 -1.2303 -1.2774
18641TIP3   OH277413   2.078   2.503   4.366 -0.5751  0.2312 -0.1106
18641TIP3    H177414   2.164   2.514   4.407 -0.0723  0.6241 -1.2253
18641TIP3    H277415   2.095   2.451   4.288 -1.1648  1.2849 -0.9647
18642TIP3   OH277416   4.609   0.490  13.097  0.1452  0.1063 -0.3791
18642TIP3    H177417   4.585   0.419  13.038  3.8512 -0.7505 -1.0875
18642TIP3    H277418   4.525   0.528  13.124 -1.9075 -3.0161 -1.7676
18643TIP3   OH277419   5.797   0.289   4.634  0.5508 -0.4740 -0.3235
18643TIP3    H177420   5.798   0.375   4.675 -0.9182 -0.2983 -0.5913
18643TIP3    H277421   5.717   0.247   4.667  0.6712 -1.3092 -1.0312
18644TIP3   OH277422   4.155   1.304   5.276 -0.3428  0.2036 -0.1275
18644TIP3    H177423   4.107   1.377   5.238  0.6379  0.7585 -0.3412
18644TIP3    H277424   4.100   1.227   5.260 -0.8446  0.7211 -0.9189
18645TIP3   OH277425   5.980   0.416  15.174  0.3527  0.0786 -0.1933
18645TIP3    H177426   5.955   0.344  15.232  1.4631  1.3911  2.0079
18645TIP3    H277427   6.066   0.444  15.205  0.5103  1.5493 -1.8092
18646TIP3   OH277428   6.825   4.128  10.812 -0.5148 -0.3798  0.3287
18646TIP3    H177429   6.799   4.216  10.836  0.5496 -0.4328  1.8236
18646TIP3    H277430   6.921   4.131  10.812 -0.4492 -0.9975 -1.7527
18647TIP3   OH277431   5.192   0.338   5.046 -0.6810 -0.2045  0.0438
18647TIP3    H177432   5.133   0.338   5.122  0.6160 -0.2298  1.0799
18647TIP3    H277433   5.171   0.257   5.000 -2.2276  0.3234 -0.2534
18648TIP3   OH277434   0.168   6.488   4.676 -0.4919  0.3623  0.2579
18648TIP3    H177435   0.252   6.448   4.697  0.1882 -0.3771 -3.1843
18648TIP3    H277436   0.123   6.422   4.622 -2.7962  1.2103  1.0083
18649TIP3   OH277437   4.886   3.227  15.942 -0.3396 -0.4545  0.1223
18649TIP3    H177438   4.980   3.246  15.936 -0.6883  1.1749 -0.7547
18649TIP3    H277439   4.879   3.133  15.928  1.1685 -0.6274  0.3799
18650TIP3   OH277440   4.005   2.709   3.385  0.2385  0.3021  0.5176
18650TIP3    H177441   3.997   2.800   3.412  0.5102 -0.4384  3.3569
18650TIP3    H277442   3.948   2.661   3.444 -0.0534 -1.3888 -1.0454
18651TIP3   OH277443   6.130   4.922   0.378 -0.0411  0.1660 -0.6341
18651TIP3    H177444   6.225   4.927   0.381 -0.0490  0.4816 -0.8768
18651TIP3    H277445   6.110   4.893   0.289 -0.1276 -1.0929 -0.2131
18652TIP3   OH277446   0.791   4.555   3.174 -0.3859 -0.0472 -0.5007
18652TIP3    H177447   0.825   4.465   3.169 -1.6020 -0.7633  2.1586
18652TIP3    H277448   0.866   4.610   3.152  1.4581 -1.6581  1.3231
18653TIP3   OH277449   4.204   5.711  13.135 -0.6877  0.0009 -0.2635
18653TIP3    H177450   4.113   5.681  13.141 -0.3836 -0.7001  1.0507
18653TIP3    H277451   4.243   5.689  13.219 -0.0561  2.8754  0.2919
18654TIP3   OH277452   5.116   0.656   1.749 -0.1144 -0.4671  1.0364
18654TIP3    H177453   5.168   0.612   1.817 -0.5064  1.2163  2.5154
18654TIP3    H277454   5.040   0.598   1.736 -0.1853 -0.6908  2.2776
18655TIP3   OH277455   4.258   1.577  15.234 -0.6058 -0.1770 -0.2867
18655TIP3    H177456   4.309   1.643  15.281  0.2756 -0.5248 -0.7401
18655TIP3    H277457   4.176   1.572  15.283 -0.9120  1.6278 -0.5355
18656TIP3   OH277458   1.475   0.096   0.742  0.1997 -0.7056  0.2970
18656TIP3    H177459   1.500   0.105   0.834  1.3176  2.0575 -0.1639
18656TIP3    H277460   1.550   0.053   0.701  0.5081 -0.2626  0.3851
18657TIP3   OH277461   3.336   5.205  11.784 -0.2624 -0.0530  0.0185
18657TIP3    H177462   3.320   5.125  11.834  1.4112  0.5908  1.7211
18657TIP3    H277463   3.415   5.185  11.732 -1.6896 -0.5393 -2.1215
18658TIP3   OH277464   0.140   0.911   3.457 -0.7220 -0.3516  0.2370
18658TIP3    H177465   0.160   0.818   3.445  0.6612  0.0698 -1.0275
18658TIP3    H277466   0.218   0.947   3.499 -0.5198  0.5435 -0.8567
18659TIP3   OH277467   5.262   0.568   1.138 -0.8556  0.3046 -0.1588
18659TIP3    H177468   5.282   0.637   1.075 -1.0165  1.6973  1.2544
18659TIP3    H277469   5.340   0.562   1.192 -2.5472  3.0977  2.9659
18660TIP3   OH277470   3.541   3.044   1.137  0.1617  0.0904  0.0760
18660TIP3    H177471   3.607   3.107   1.166  1.4286 -1.2219  0.0882
18660TIP3    H277472   3.573   2.959   1.166 -1.3547 -0.6332 -0.2476
18661TIP3   OH277473   3.925   6.137   1.462  0.6642 -0.3333  0.3998
18661TIP3    H177474   3.882   6.060   1.426  1.4873 -0.3542 -0.5937
18661TIP3    H277475   3.895   6.209   1.407 -0.7418  0.2348  1.8206
18662TIP3   OH277476   2.801   5.582   2.498 -0.3004  0.4481  0.5081
18662TIP3    H177477   2.865   5.582   2.428  0.8631  2.2806  1.4866
18662TIP3    H277478   2.717   5.566   2.454  0.7047 -1.4917 -0.8569
18663TIP3   OH277479   3.210   1.823   0.077 -0.0226 -0.7263  0.3373
18663TIP3    H177480   3.193   1.907   0.118 -0.5752 -0.1728 -0.9556
18663TIP3    H277481   3.130   1.804   0.027  0.7991 -1.0934 -0.8867
18664TIP3   OH277482   6.434   2.125   2.664 -0.9778  0.0924  0.2712
18664TIP3    H177483   6.351   2.085   2.638 -1.8869  1.8218  0.4019
18664TIP3    H277484   6.481   2.055   2.709 -1.6811 -1.3827 -1.1463
18665TIP3   OH277485   2.161   1.170  11.517  0.2721  0.5398  0.1940
18665TIP3    H177486   2.226   1.219  11.467 -0.9159  1.4927 -0.4501
18665TIP3    H277487   2.081   1.175  11.466  0.2163 -2.7074 -0.2823
18666TIP3   OH277488   1.031   6.113   5.569 -0.2393  0.1066  0.0653
18666TIP3    H177489   1.123   6.101   5.592 -0.3697  1.5844  1.6189
18666TIP3    H277490   1.001   6.026   5.542  0.8582 -1.1339  2.4739
18667TIP3   OH277491   2.120   2.766   2.848  0.4645 -0.3960  0.1666
18667TIP3    H177492   2.150   2.697   2.788 -0.4191 -1.1197  0.5458
18667TIP3    H277493   2.025   2.766   2.839  0.4480  0.7290  0.2342
18668TIP3   OH277494   6.626   2.283   5.230 -0.2682  0.3837  0.5743
18668TIP3    H177495   6.612   2.376   5.215  2.1847  1.1480  2.2488
18668TIP3    H277496   6.721   2.275   5.239 -0.3316 -2.4710 -0.4944
18669TIP3   OH277497   3.549   5.396   3.809 -0.0484 -0.2223 -0.1976
18669TIP3    H177498   3.630   5.406   3.859 -0.1794 -1.8175  0.3885
18669TIP3    H277499   3.573   5.337   3.737 -0.5936 -0.3767 -0.2557
18670TIP3   OH277500   5.558   4.986  17.118  0.8554  0.6614 -0.4601
18670TIP3    H177501   5.605   4.969  17.200  0.5663  0.8291 -0.2584
18670TIP3    H277502   5.627   5.009  17.056  1.0888  0.4169 -0.2985
18671TIP3   OH277503   5.239   5.641   4.737  0.6202 -0.6930 -0.1476
18671TIP3    H177504   5.149   5.673   4.737  1.1039  0.7455  0.3561
18671TIP3    H277505   5.259   5.624   4.829  1.0251 -0.5137 -0.1994
18672TIP3   OH277506   0.318   5.340  13.185 -0.5130  0.6763 -0.5685
18672TIP3    H177507   0.244   5.337  13.124  0.1119  1.9517 -1.4430
18672TIP3    H277508   0.328   5.433  13.205  1.1402  0.5798 -0.8401
18673TIP3   OH277509   4.128   6.164  12.540 -0.2874  0.0798  1.2538
18673TIP3    H177510   4.099   6.242  12.494 -1.4094 -0.7010  0.6143
18673TIP3    H277511   4.207   6.137  12.493 -0.6757  0.0441  0.6099
18674TIP3   OH277512   5.530   3.109   1.005  0.3644  0.4990  0.3699
18674TIP3    H177513   5.620   3.079   1.019  0.8368  0.8532 -1.6939
18674TIP3    H277514   5.516   3.101   0.911 -0.9144  2.8149  0.2942
18675TIP3   OH277515   4.140   4.631   5.077  0.4746 -0.4613 -0.8129
18675TIP3    H177516   4.198   4.595   5.010  0.6090  0.7698 -1.3693
18675TIP3    H277517   4.176   4.718   5.096 -0.4163 -0.2195 -0.1986
18676TIP3   OH277518   0.906   1.921  16.015  0.0876  0.0149  0.3686
18676TIP3    H177519   0.860   2.002  16.038  1.6220  0.7226  1.0910
18676TIP3    H277520   0.899   1.916  15.920  0.4684  1.3548  0.2344
18677TIP3   OH277521   1.882   4.161  15.434 -0.2839  0.4986 -0.1188
18677TIP3    H177522   1.962   4.109  15.426 -0.2581  0.5431 -0.1529
18677TIP3    H277523   1.904   4.244  15.393  0.2686  1.2210  1.5622
18678TIP3   OH277524   4.059   3.638   4.752  0.1545 -0.0304 -0.6075
18678TIP3    H177525   4.041   3.548   4.779  0.6158  0.2477  0.6625
18678TIP3    H277526   4.024   3.692   4.823  1.0369  0.7428 -0.7502
18679TIP3   OH277527   3.970   4.065   2.839 -0.1534  0.5554  0.0135
18679TIP3    H177528   3.977   4.153   2.803 -0.9403 -0.3692 -2.6594
18679TIP3    H277529   4.035   4.062   2.909  2.1074  2.3094 -1.8378
18680TIP3   OH277530   1.944   4.684  15.909  0.1347  0.2355  0.4249
18680TIP3    H177531   1.861   4.639  15.920 -0.2468  0.4571 -1.2959
18680TIP3    H277532   1.921   4.777  15.906 -0.0654  0.2190 -3.1600
18681TIP3   OH277533   5.218   2.171  11.195  0.3428 -0.2811 -0.9803
18681TIP3    H177534   5.202   2.077  11.184  2.5331 -0.6767 -1.2430
18681TIP3    H277535   5.311   2.177  11.216 -0.1950  1.7081  1.1806
18682TIP3   OH277536   1.104   2.366   6.683 -0.5643  0.0868 -0.2868
18682TIP3    H177537   1.096   2.276   6.652  0.6128 -0.0432 -0.2421
18682TIP3    H277538   1.151   2.360   6.766 -0.1882  0.7585 -0.4400
18683TIP3   OH277539   1.905   3.415  13.493 -0.1654 -0.1731 -0.3754
18683TIP3    H177540   1.994   3.403  13.526 -0.3505 -0.8126 -0.0976
18683TIP3    H277541   1.877   3.498  13.533 -0.4980 -1.0835  1.3877
18684TIP3   OH277542   1.138   2.157   6.044 -0.2095  0.1087 -0.1940
18684TIP3    H177543   1.152   2.162   6.139 -0.9112 -0.8348 -0.0314
18684TIP3    H277544   1.050   2.193   6.031 -0.9757 -1.6980 -0.2232
18685TIP3   OH277545   2.883   4.657  16.737  0.5511 -0.1854  0.5157
18685TIP3    H177546   2.908   4.650  16.829  2.7064  0.1764  0.0109
18685TIP3    H277547   2.848   4.746  16.728 -1.5517 -0.8673  1.3404
18686TIP3   OH277548   0.615   4.782  16.300  0.8000 -0.0628  0.0011
18686TIP3    H177549   0.583   4.829  16.376  1.1320  0.1789 -0.0059
18686TIP3    H277550   0.655   4.849  16.244 -0.1442 -0.1143 -0.7659
18687TIP3   OH277551   1.686   5.542  12.310 -0.0562 -0.6839  0.1333
18687TIP3    H177552   1.613   5.579  12.359  1.5130 -0.7220  2.7135
18687TIP3    H277553   1.650   5.463  12.270 -1.8384  0.2309 -0.1609
18688TIP3   OH277554   1.689   2.624   5.678  0.1960  0.3308  0.0874
18688TIP3    H177555   1.747   2.549   5.667  0.6634  0.9018 -1.8489
18688TIP3    H277556   1.748   2.700   5.680 -0.3447  0.7457  0.7065
18689TIP3   OH277557   4.230   1.057   2.892  0.2608 -0.0529 -0.8085
18689TIP3    H177558   4.175   1.075   2.969  0.8869 -0.4912 -0.2565
18689TIP3    H277559   4.269   0.972   2.910 -1.6720 -1.4561 -2.8293
18690TIP3   OH277560   6.724   1.159   3.092 -0.4822  0.6123  0.4022
18690TIP3    H177561   6.635   1.125   3.086 -0.4726  0.6233  0.1618
18690TIP3    H277562   6.771   1.095   3.145  0.6464 -2.2132 -3.5092
18691TIP3   OH277563   5.537   0.349   4.969 -0.2435  0.0067  0.4832
18691TIP3    H177564   5.582   0.431   4.949  1.6449 -1.0929 -0.0945
18691TIP3    H277565   5.601   0.299   5.021 -0.7786 -1.6374 -0.3777
18692TIP3   OH277566   0.811   5.369  15.049  0.2271  0.0588  0.1533
18692TIP3    H177567   0.816   5.420  15.130  0.3014  0.7863 -0.3021
18692TIP3    H277568   0.784   5.282  15.078 -0.5176  0.5129  0.8788
18693TIP3   OH277569   1.852   0.805   1.529  0.2572 -0.1351 -0.5012
18693TIP3    H177570   1.832   0.898   1.531 -0.4645 -0.2953  0.1227
18693TIP3    H277571   1.946   0.801   1.511  0.7411  0.7834  1.4612
18694TIP3   OH277572   3.252   4.381  13.180  0.2998  0.2241 -0.7114
18694TIP3    H177573   3.248   4.448  13.112  1.0056 -0.3943 -1.3778
18694TIP3    H277574   3.201   4.418  13.253  1.5698  1.9580 -0.6445
18695TIP3   OH277575   1.150   4.238  15.922 -0.4322  0.0181 -0.1676
18695TIP3    H177576   1.072   4.235  15.867 -2.3357  0.3669  2.3446
18695TIP3    H277577   1.127   4.297  15.993  1.4694 -1.2266  1.6055
18696TIP3   OH277578   2.616   5.328   5.256  0.3964  0.0405 -0.5130
18696TIP3    H177579   2.604   5.233   5.264 -0.0298  0.1398  0.0571
18696TIP3    H277580   2.597   5.363   5.343 -2.1714  0.9210 -1.3236
18697TIP3   OH277581   0.502   6.655   3.815  0.3035  0.7232 -0.3233
18697TIP3    H177582   0.407   6.652   3.809  0.3337  1.0129 -1.0381
18697TIP3    H277583   0.524   6.588   3.880 -0.1650 -1.9812 -2.7653
18698TIP3   OH277584   1.163   1.242  11.578 -0.2507 -0.8605 -0.0908
18698TIP3    H177585   1.169   1.221  11.671  4.9345  1.5844  0.4946
18698TIP3    H277586   1.215   1.174  11.535  1.3217  0.5446 -0.4934
18699TIP3   OH277587   5.032   3.791   1.247 -0.4245 -0.4250  0.3830
18699TIP3    H177588   4.992   3.878   1.243  1.8534  0.6674 -1.7472
18699TIP3    H277589   4.959   3.730   1.239 -2.0474  1.2745  1.4997
18700TIP3   OH277590   4.390   3.065  14.201  0.3148 -0.1773  0.6222
18700TIP3    H177591   4.398   2.986  14.254 -0.1445 -1.2869 -0.8840
18700TIP3    H277592   4.458   3.056  14.135 -1.0633 -0.4126 -0.8463
18701TIP3   OH277593   3.167   6.100   1.622 -0.3233  0.2981 -0.1979
18701TIP3    H177594   3.125   6.067   1.543  1.1570 -1.1616 -0.4269
18701TIP3    H277595   3.106   6.079   1.693  0.0970 -2.0932 -0.4697
18702TIP3   OH277596   0.088   1.261  15.868  0.1238 -0.0727 -0.0439
18702TIP3    H177597   0.079   1.192  15.934  1.5697 -1.8899 -1.6108
18702TIP3    H277598   0.162   1.314  15.897  1.1223 -1.2074 -0.4325
18703TIP3   OH277599   0.112   1.358   3.257  0.4954  0.0747 -0.4539
18703TIP3    H177600   0.180   1.343   3.323  0.2735  0.2339 -0.1866
18703TIP3    H277601   0.156   1.404   3.186  0.6480  0.2412 -0.2489
18704TIP3   OH277602   1.952   1.356   4.350 -0.4937 -0.2402  0.1126
18704TIP3    H177603   1.966   1.316   4.436  1.3873  1.0092  0.4412
18704TIP3    H277604   1.942   1.281   4.291  3.8302 -1.4806  0.5546
18705TIP3   OH277605   6.183   2.632  13.067 -0.4211 -0.1185 -0.0403
18705TIP3    H177606   6.182   2.713  13.016 -1.5473  1.4311  2.2360
18705TIP3    H277607   6.275   2.620  13.091 -0.4666  1.7644  1.3545
18706TIP3   OH277608   4.627   6.116  14.729  0.4341 -0.0608  0.4601
18706TIP3    H177609   4.699   6.138  14.788  1.1432 -0.9184 -0.0599
18706TIP3    H277610   4.647   6.162  14.648 -0.0067  0.3026  0.5542
18707TIP3   OH277611   0.513   1.514   3.745 -0.2062  0.2101  0.1404
18707TIP3    H177612   0.462   1.563   3.809 -0.5807 -1.7197  1.3897
18707TIP3    H277613   0.594   1.564   3.736 -1.5090  2.3301 -0.4929
18708TIP3   OH277614   5.957   4.127   4.453  0.3894  0.6320 -0.4827
18708TIP3    H177615   6.040   4.135   4.501  0.7542  0.4993 -1.0882
18708TIP3    H277616   5.982   4.123   4.361 -0.3400  1.4096 -0.7317
18709TIP3   OH277617   4.742   1.789  12.638 -0.4543  0.7980  0.2232
18709TIP3    H177618   4.740   1.859  12.703 -0.1766  0.8995  0.1222
18709TIP3    H277619   4.665   1.807  12.583  0.2879  1.7430 -0.5486
18710TIP3   OH277620   6.715   5.623  12.730  0.1594 -0.0138 -0.3515
18710TIP3    H177621   6.744   5.623  12.639  0.2624  0.2360 -0.3209
18710TIP3    H277622   6.779   5.678  12.776  0.1069 -0.1355 -0.1296
18711TIP3   OH277623   0.477   3.767   0.756  0.0611 -0.3040  0.3908
18711TIP3    H177624   0.412   3.757   0.687  0.4563  0.1207 -0.0477
18711TIP3    H277625   0.545   3.823   0.718  0.8530 -1.0125  0.7124
18712TIP3   OH277626   5.590   3.608  11.277  0.2122  0.3997 -0.6211
18712TIP3    H177627   5.545   3.524  11.267  3.5750 -1.8080  0.8729
18712TIP3    H277628   5.594   3.644  11.188  0.7580 -2.2596 -1.7743
18713TIP3   OH277629   2.430   2.072   3.355  0.0182 -0.3404  0.5540
18713TIP3    H177630   2.377   2.027   3.288  1.4493 -1.2981  0.0009
18713TIP3    H277631   2.450   2.003   3.419  1.0634 -0.1702  0.4336
18714TIP3   OH277632   1.644   2.527  10.812  0.4518 -0.2342 -0.1617
18714TIP3    H177633   1.612   2.517  10.902 -1.4396  0.5640 -0.6850
18714TIP3    H277634   1.731   2.564  10.821  1.1718 -2.1479  1.3652
18715TIP3   OH277635   2.428   4.482  13.567 -0.3870 -0.1815  0.1956
18715TIP3    H177636   2.335   4.457  13.571 -0.0718 -1.4831 -0.1746
18715TIP3    H277637   2.437   4.550  13.634 -2.4566  2.9528 -2.3803
18716TIP3   OH277638   2.840   3.931   3.070  0.4478 -0.2154 -0.3948
18716TIP3    H177639   2.844   3.864   3.138 -5.2379 -0.2172  0.3943
18716TIP3    H277640   2.888   4.005   3.106  1.1613 -1.6318  1.7293
18717TIP3   OH277641   4.000   5.548   1.500 -0.5222 -0.5157 -0.0987
18717TIP3    H177642   3.908   5.548   1.525 -0.7377  0.7001 -0.7878
18717TIP3    H277643   4.047   5.521   1.579 -1.3484  0.5911  0.8017
18718TIP3   OH277644   1.492   0.132  13.576 -0.4447  0.1966 -0.1632
18718TIP3    H177645   1.451   0.136  13.490  1.1480  0.3938 -0.9468
18718TIP3    H277646   1.464   0.213  13.620 -2.4798 -0.6026  0.1255
18719TIP3   OH277647   2.828   5.961   5.584  0.1570 -0.2195  0.4394
18719TIP3    H177648   2.740   5.943   5.550  0.4453  0.7084 -0.9315
18719TIP3    H277649   2.834   5.913   5.666 -1.7018 -0.1385  0.6502
18720TIP3   OH277650   5.969   1.081   2.130  0.7896 -0.5842 -0.2254
18720TIP3    H177651   6.000   1.090   2.040  0.6592  0.2436 -0.1948
18720TIP3    H277652   5.873   1.078   2.122  0.7945 -4.2435 -0.4199
18721TIP3   OH277653   4.495   4.531   0.118  0.1469 -0.1957 -0.4245
18721TIP3    H177654   4.553   4.509   0.045  0.6066  0.0243 -0.1328
18721TIP3    H277655   4.528   4.615   0.150  0.4804 -0.6876  0.5671
18722TIP3   OH277656   4.039   2.517  12.596  0.3658 -0.4444 -0.2386
18722TIP3    H177657   3.997   2.432  12.580  0.6332 -0.6395  0.0975
18722TIP3    H277658   4.022   2.567  12.516  2.2547 -1.6328 -1.4609
18723TIP3   OH277659   5.441   2.007  11.272  0.7565  0.2536 -0.5090
18723TIP3    H177660   5.397   1.956  11.205  0.0285  0.2492 -0.0322
18723TIP3    H277661   5.531   2.015  11.241  0.5496 -0.1867 -1.2292
18724TIP3   OH277662   2.603   2.826  16.333 -0.1499  0.3484 -0.1268
18724TIP3    H177663   2.515   2.863  16.342 -0.1785  0.7678 -1.7581
18724TIP3    H277664   2.662   2.897  16.358 -0.2465 -0.2379  1.9277
18725TIP3   OH277665   5.307   0.182  13.171  0.0014 -0.2556 -0.0858
18725TIP3    H177666   5.248   0.213  13.102  0.5653  0.4264 -0.2621
18725TIP3    H277667   5.365   0.120  13.126 -0.1896 -0.4715 -0.0374
18726TIP3   OH277668   1.974   1.853   2.058  1.0586 -0.1309 -0.1519
18726TIP3    H177669   1.980   1.948   2.051  1.1801 -0.2430 -1.7995
18726TIP3    H277670   2.049   1.820   2.008  0.9735 -1.1101  0.3304
18727TIP3   OH277671   5.134   5.395   1.671 -0.9455 -0.0495  0.1536
18727TIP3    H177672   5.085   5.413   1.751  0.6688 -0.1913  1.1933
18727TIP3    H277673   5.223   5.423   1.689 -0.2164 -1.3825 -1.0949
18728TIP3   OH277674   2.596   5.654   3.062  0.2369 -0.0475 -0.3345
18728TIP3    H177675   2.527   5.611   3.010  0.7956 -0.9968 -0.3051
18728TIP3    H277676   2.558   5.662   3.149 -0.3923  0.8003 -0.6676
18729TIP3   OH277677   0.161   3.985   4.031 -0.0819  0.0413  0.5025
18729TIP3    H177678   0.116   3.952   4.108  1.6544  1.0922  2.0643
18729TIP3    H277679   0.157   3.914   3.967  0.3965 -1.7657  2.4000
18730TIP3   OH277680   2.553   1.848   1.224  0.0726 -0.5642  0.3099
18730TIP3    H177681   2.636   1.856   1.271 -0.4456 -0.0346  1.1798
18730TIP3    H277682   2.493   1.904   1.273 -0.5593 -0.1677 -0.8857
18731TIP3   OH277683   1.054   3.603  15.444  0.0155  0.1756 -0.2645
18731TIP3    H177684   1.066   3.655  15.365  3.2663  0.8817  0.5581
18731TIP3    H277685   1.048   3.667  15.515  2.0466 -0.4699  0.5403
18732TIP3   OH277686   6.213   3.918   5.153  0.1012  0.7804  0.7193
18732TIP3    H177687   6.234   3.974   5.078  1.1882 -1.0523 -0.4352
18732TIP3    H277688   6.117   3.910   5.150  0.0864  1.1683 -0.1621
18733TIP3   OH277689   5.074   3.260   6.093 -0.3535  0.1901 -0.1857
18733TIP3    H177690   5.051   3.197   6.025  0.6841  0.0925 -0.4668
18733TIP3    H277691   5.128   3.325   6.047 -1.4088  1.2942  0.0978
18734TIP3   OH277692   5.938   5.636   1.898  0.5490 -0.2758  0.0513
18734TIP3    H177693   5.969   5.691   1.826 -0.1279 -0.6522 -0.5475
18734TIP3    H277694   5.853   5.672   1.922 -0.7315 -2.0381 -1.5300
18735TIP3   OH277695   4.871   1.854   0.122  0.0856  0.4745  0.1519
18735TIP3    H177696   4.964   1.850   0.144 -0.0087  2.1773  0.9552
18735TIP3    H277697   4.869   1.875   0.028  0.4764 -0.7285 -0.1485
18736TIP3   OH277698   6.385   3.360   2.338 -0.1259  0.1010 -0.3738
18736TIP3    H177699   6.334   3.316   2.270 -1.8912  0.5845  0.6022
18736TIP3    H277700   6.352   3.450   2.339  0.7528  0.4280  0.2841
18737TIP3   OH277701   5.526   4.663  17.104  0.0807 -0.1736  0.2878
18737TIP3    H177702   5.479   4.726  17.049  2.7061  2.9827  1.3149
18737TIP3    H277703   5.474   4.658  17.185 -1.5005 -1.4534 -0.7510
18738TIP3   OH277704   0.768   2.648   1.684  0.1607  0.5018  0.2766
18738TIP3    H177705   0.783   2.698   1.603  0.4166  0.4296  0.2787
18738TIP3    H277706   0.675   2.628   1.682  0.6339 -1.9858 -1.4603
18739TIP3   OH277707   1.572   2.635   2.509 -0.2941 -0.5311 -0.1343
18739TIP3    H177708   1.571   2.643   2.414  2.4700  1.4036 -0.1115
18739TIP3    H277709   1.577   2.541   2.525 -3.4588 -1.1058 -1.7107
18740TIP3   OH277710   5.054   2.886   1.929  0.6452 -0.1919 -0.1613
18740TIP3    H177711   5.119   2.844   1.986 -0.4268 -2.0116 -0.1912
18740TIP3    H277712   5.098   2.895   1.845  1.7053  1.0418  0.4873
18741TIP3   OH277713   6.641   2.200   2.026 -0.4235 -0.1967 -0.6292
18741TIP3    H177714   6.618   2.278   1.975 -0.0303 -0.9962 -2.0611
18741TIP3    H277715   6.575   2.136   2.003 -1.0857 -0.1349  0.9938
18742TIP3   OH277716   4.845   4.858   3.199  0.7622  0.3084 -0.2158
18742TIP3    H177717   4.796   4.777   3.210  1.2935  0.0334  0.2315
18742TIP3    H277718   4.840   4.877   3.105  1.1841 -0.6042 -0.4379
18743TIP3   OH277719   2.874   0.917  15.409  0.1127 -0.3280  0.8529
18743TIP3    H177720   2.925   0.993  15.436 -0.9508  0.0463  1.8951
18743TIP3    H277721   2.933   0.843  15.421  1.5028  0.3741 -1.0933
18744TIP3   OH277722   6.017   4.559  15.628  0.0730 -0.3061  0.1478
18744TIP3    H177723   6.017   4.651  15.601 -0.1908 -0.3332  0.0509
18744TIP3    H277724   5.949   4.553  15.694 -0.3317 -0.5550 -0.2789
18745TIP3   OH277725   1.847   3.810   5.638 -0.3249  0.5542 -0.0732
18745TIP3    H177726   1.887   3.838   5.720 -0.5877  1.2066 -0.1610
18745TIP3    H277727   1.772   3.757   5.665  0.8652 -1.1274  0.0905
18746TIP3   OH277728   4.356   4.773   0.421 -0.7210 -0.0314  0.1961
18746TIP3    H177729   4.428   4.731   0.468 -2.2905 -0.6530  2.1848
18746TIP3    H277730   4.308   4.701   0.380 -0.5698  0.3217 -0.6256
18747TIP3   OH277731   2.643   3.435   3.700  0.0258 -0.6012  0.3682
18747TIP3    H177732   2.699   3.492   3.647 -0.3882  0.5215  1.0897
18747TIP3    H277733   2.589   3.389   3.637 -0.4124  0.6614 -0.2132
18748TIP3   OH277734   1.700   2.396   5.401 -0.1353 -0.0210  0.1893
18748TIP3    H177735   1.636   2.449   5.448 -1.4759 -0.7036 -0.8196
18748TIP3    H277736   1.651   2.321   5.369  1.0266 -0.2634 -1.1436
18749TIP3   OH277737   1.691   0.479  11.315  0.1009  0.5821  0.4681
18749TIP3    H177738   1.647   0.478  11.400 -0.4104  1.0477  0.2106
18749TIP3    H277739   1.765   0.419  11.326 -0.4051  0.0458  1.0060
18750TIP3   OH277740   2.634   1.204  16.761 -0.2262  0.1175  0.0080
18750TIP3    H177741   2.662   1.138  16.825 -2.4006 -0.9878 -0.0758
18750TIP3    H277742   2.552   1.170  16.726 -1.0653  2.5336 -0.5902
18751TIP3   OH277743   2.395   1.987  14.891 -0.0948  0.1386  0.8552
18751TIP3    H177744   2.484   1.951  14.894 -0.3219 -0.7348 -1.0788
18751TIP3    H277745   2.354   1.957  14.972  0.3592 -2.3656  0.2324
18752TIP3   OH277746   5.175   6.370  13.423 -0.0614  0.1729  0.1245
18752TIP3    H177747   5.214   6.416  13.497 -0.1717 -0.9878  0.9268
18752TIP3    H277748   5.246   6.361  13.360  0.4880 -0.3067  0.7998
18753TIP3   OH277749   3.745   2.095   5.471 -0.3793  0.2780 -0.0307
18753TIP3    H177750   3.778   2.084   5.382  0.8342 -1.9920  0.6060
18753TIP3    H277751   3.823   2.101   5.525 -1.0960  1.1498  0.9443
18754TIP3   OH277752   0.204   1.600  16.654  0.0211 -0.4593 -0.1019
18754TIP3    H177753   0.228   1.688  16.624  2.4425 -0.3417  1.8209
18754TIP3    H277754   0.171   1.614  16.743 -0.7443 -1.3996 -0.2286
18755TIP3   OH277755   5.721   6.524   0.170 -0.0968 -0.8442 -0.1833
18755TIP3    H177756   5.686   6.559   0.252 -0.8611 -0.8870 -0.4863
18755TIP3    H277757   5.816   6.527   0.182 -0.1750  0.0202  0.3364
18756TIP3   OH277758   4.379   6.301  13.554  0.1147  0.5081 -0.7263
18756TIP3    H177759   4.410   6.284  13.465  1.9036  3.5789 -0.8049
18756TIP3    H277760   4.424   6.236  13.608 -1.2218 -1.5964 -1.9708
18757TIP3   OH277761   6.497   0.324  14.945 -0.7920  0.0962  0.1321
18757TIP3    H177762   6.591   0.304  14.948 -0.4060  1.8906  1.2251
18757TIP3    H277763   6.461   0.281  15.023 -0.2429  2.1230  1.5827
18758TIP3   OH277764   1.301   0.429  16.731 -0.4591 -0.2360  0.2191
18758TIP3    H177765   1.327   0.371  16.802 -1.8403 -0.8853  0.2100
18758TIP3    H277766   1.253   0.500  16.774 -0.6170 -0.2110  0.0028
18759TIP3   OH277767   1.518   1.899  16.127 -0.0332 -0.2619 -0.1430
18759TIP3    H177768   1.540   1.940  16.044  1.9712 -0.4590  0.2290
18759TIP3    H277769   1.447   1.953  16.163  0.2941  0.8870 -1.1571
18760TIP3   OH277770   6.560   6.189  11.304  0.3247 -0.0515 -0.2929
18760TIP3    H177771   6.540   6.261  11.245  1.4448  0.7630  0.2942
18760TIP3    H277772   6.656   6.189  11.312  0.3269 -1.3792 -0.0016
18761TIP3   OH277773   6.117   1.391  16.798  0.0634 -0.2340 -0.1670
18761TIP3    H177774   6.083   1.351  16.718  0.5676  0.4430 -0.7380
18761TIP3    H277775   6.078   1.478  16.800  2.2651  0.8592 -1.2535
18762TIP3   OH277776   1.008   6.273   3.415  0.0900  0.2602  0.4185
18762TIP3    H177777   0.992   6.359   3.454  1.3196  1.0846 -0.8185
18762TIP3    H277778   1.089   6.244   3.455  0.3213  0.2299 -0.0722
18763TIP3   OH277779   6.255   1.893  10.946  0.1344  0.1604  0.5326
18763TIP3    H177780   6.240   1.975  10.899  0.4490  0.2619  0.6049
18763TIP3    H277781   6.350   1.880  10.943 -0.0810 -1.6331 -1.9180
18764TIP3   OH277782   3.797   3.814  13.888  0.0304 -0.1425 -0.2026
18764TIP3    H177783   3.705   3.794  13.869 -0.2454  1.0872 -0.2567
18764TIP3    H277784   3.818   3.760  13.964 -0.2405 -1.6440 -1.1504
18765TIP3   OH277785   0.018   1.875   1.970 -0.1630 -0.4023  0.8370
18765TIP3    H177786   0.052   1.919   1.893 -2.3275  0.5833  0.3702
18765TIP3    H277787   0.091   1.821   2.001  0.7623 -0.9093 -1.9151
18766TIP3   OH277788   0.407   0.529  12.086 -0.5329  0.2977 -0.2484
18766TIP3    H177789   0.410   0.469  12.012  2.3890  1.1231 -0.9473
18766TIP3    H277790   0.403   0.473  12.163 -1.1323 -0.6547 -0.9540
18767TIP3   OH277791   4.019   5.313   5.258  0.3772  0.6082 -0.5632
18767TIP3    H177792   3.941   5.347   5.302 -0.1802 -0.2584 -0.8496
18767TIP3    H277793   3.989   5.296   5.168  0.9971  0.6006 -0.7717
18768TIP3   OH277794   4.512   2.372  13.875 -0.1687 -0.0047  0.2871
18768TIP3    H177795   4.495   2.335  13.788  2.8424  1.3022 -0.9840
18768TIP3    H277796   4.527   2.466  13.858  2.1193 -0.0102  1.9109
18769TIP3   OH277797   3.311   0.997  10.565 -0.1225  0.1499  0.4959
18769TIP3    H177798   3.316   1.065  10.499  0.4354  1.4330  1.8044
18769TIP3    H277799   3.401   0.965  10.573 -0.2100 -0.0848  0.5443
18770TIP3   OH277800   2.848   2.215   0.726 -0.4281 -0.1489 -0.1127
18770TIP3    H177801   2.891   2.277   0.667 -1.5492  0.3053 -0.4943
18770TIP3    H277802   2.794   2.161   0.668 -0.1036 -0.9401  0.3127
18771TIP3   OH277803   5.889   4.843   3.843  0.0914  0.0457  0.2716
18771TIP3    H177804   5.971   4.879   3.875  0.4630 -1.1777  0.7571
18771TIP3    H277805   5.912   4.756   3.809 -1.1122 -0.6677  1.1775
18772TIP3   OH277806   0.680   3.623   3.201 -0.0340  0.5664 -0.8784
18772TIP3    H177807   0.718   3.709   3.216  2.2760 -0.4457 -0.4785
18772TIP3    H277808   0.711   3.569   3.274 -3.3522 -0.1158  0.1957
18773TIP3   OH277809   3.676   5.888   6.489  0.0312  0.5120 -0.1109
18773TIP3    H177810   3.602   5.869   6.546  0.8646  1.4609  1.3377
18773TIP3    H277811   3.706   5.975   6.517  1.0272  0.6155 -1.3992
18774TIP3   OH277812   3.154   4.121  13.627  0.1190 -0.1125 -0.1513
18774TIP3    H177813   3.194   4.040  13.658  2.3685  0.6642 -0.8423
18774TIP3    H277814   3.168   4.120  13.532  0.0729  1.0344 -0.1850
18775TIP3   OH277815   1.319   2.710   5.638  0.3220  0.6651  0.2859
18775TIP3    H177816   1.294   2.791   5.682  0.9511  1.0296 -0.0097
18775TIP3    H277817   1.236   2.673   5.606 -0.0195  0.9365  0.8446
18776TIP3   OH277818   6.746   4.736   6.817 -0.2480 -0.9623 -0.3746
18776TIP3    H177819   6.831   4.767   6.785 -0.3311 -0.9691 -0.6079
18776TIP3    H277820   6.747   4.642   6.798 -1.3464 -0.5582 -2.8165
18777TIP3   OH277821   1.511   4.855   3.604 -0.2053 -0.1133 -0.5579
18777TIP3    H177822   1.560   4.882   3.682 -0.7025 -1.2074  0.1501
18777TIP3    H277823   1.474   4.937   3.570  0.0904  0.3949  0.3012
18778TIP3   OH277824   0.258   6.618   3.420 -0.7944  0.1498 -0.6703
18778TIP3    H177825   0.240   6.569   3.500  0.8971 -3.3858 -2.2175
18778TIP3    H277826   0.187   6.594   3.360 -1.0891  1.3272 -0.8057
18779TIP3   OH277827   3.081   4.691   1.986 -0.2319 -0.2398  0.1613
18779TIP3    H177828   3.145   4.622   1.966 -1.2446 -0.5655 -2.3910
18779TIP3    H277829   3.132   4.760   2.028  1.6597 -0.8213 -1.0425
18780TIP3   OH277830   0.752   0.799   0.199 -0.9225  0.0384 -0.2575
18780TIP3    H177831   0.703   0.805   0.281 -0.0467 -0.1594  0.2887
18780TIP3    H277832   0.717   0.870   0.145 -1.3439  0.3178  0.3657
18781TIP3   OH277833   1.794   6.189   4.361  0.1440  0.2114  0.3099
18781TIP3    H177834   1.731   6.241   4.411  0.6565  1.9819 -0.7873
18781TIP3    H277835   1.741   6.121   4.319 -0.6171  0.0930  1.4037
18782TIP3   OH277836   6.837   0.574  11.829 -0.3464  0.0799 -0.2398
18782TIP3    H177837   6.921   0.594  11.870 -0.1139 -1.4858  0.1112
18782TIP3    H277838   6.834   0.630  11.752  0.4310  1.0893  0.4440
18783TIP3   OH277839   1.754   1.297   3.978 -0.1593 -0.2487 -0.5827
18783TIP3    H177840   1.750   1.383   4.020  1.4848  0.7793 -2.3597
18783TIP3    H277841   1.680   1.249   4.014 -1.9352  2.3488 -0.4780
18784TIP3   OH277842   4.727   3.528   6.248  0.4866  0.1126 -0.1273
18784TIP3    H177843   4.721   3.563   6.159  0.0605  2.1105  0.6440
18784TIP3    H277844   4.665   3.455   6.250  0.9625 -0.3785 -1.6100
18785TIP3   OH277845   4.648   4.434  13.735  0.5123  0.3819 -0.0524
18785TIP3    H177846   4.738   4.466  13.736  1.1978 -1.4786  0.9825
18785TIP3    H277847   4.625   4.421  13.827  0.8635 -3.4760 -0.3533
18786TIP3   OH277848   6.776   0.466   2.768 -0.1829 -0.0875  0.5571
18786TIP3    H177849   6.824   0.388   2.796 -1.1493 -0.6762  0.5954
18786TIP3    H277850   6.693   0.461   2.814 -1.5527 -0.7183 -1.8139
18787TIP3   OH277851   2.766   6.103  10.860  0.0826  0.1471  0.3440
18787TIP3    H177852   2.730   6.035  10.804  0.9152  0.2935 -0.3857
18787TIP3    H277853   2.860   6.083  10.867  0.0356  0.2306  1.5466
18788TIP3   OH277854   6.354   1.728  16.036  0.0595  0.4160 -0.0457
18788TIP3    H177855   6.441   1.737  16.076  1.0868  0.2635 -2.1370
18788TIP3    H277856   6.306   1.805  16.066  1.4422  1.3467 -0.1354
18789TIP3   OH277857   6.736   3.489   0.874 -0.0434  0.0117 -0.0595
18789TIP3    H177858   6.711   3.557   0.937 -1.0013  0.9391 -1.3696
18789TIP3    H277859   6.696   3.409   0.908 -1.9623  0.8123 -0.2986
18790TIP3   OH277860   4.014   1.106  11.377 -0.1326 -0.7282  0.2467
18790TIP3    H177861   4.040   1.185  11.329  0.4186 -0.2666  1.2620
18790TIP3    H277862   3.956   1.059  11.317  1.5519 -0.8495 -1.3795
18791TIP3   OH277863   4.790   5.217   2.034 -0.4204  0.0966 -0.3092
18791TIP3    H177864   4.829   5.180   2.113 -1.1640 -0.0396  0.0027
18791TIP3    H277865   4.849   5.289   2.010  0.5380 -0.7131 -0.4044
18792TIP3   OH277866   2.126   5.406   2.612 -0.2098  0.0394 -0.0852
18792TIP3    H177867   2.076   5.329   2.588  1.7797 -0.5455 -2.7779
18792TIP3    H277868   2.217   5.384   2.589  0.3004  3.5193 -2.0706
18793TIP3   OH277869   3.120   5.436  12.795  0.1441 -0.7424 -0.2903
18793TIP3    H177870   3.107   5.527  12.822  1.3787 -0.1990 -1.3939
18793TIP3    H277871   3.033   5.407  12.767 -0.3174  0.0101  0.3111
18794TIP3   OH277872   1.679   2.093  12.607  0.7618 -0.0569  0.7518
18794TIP3    H177873   1.684   2.058  12.518  0.9409  1.0497  0.3092
18794TIP3    H277874   1.727   2.176  12.603 -0.1945  0.5588  1.6010
18795TIP3   OH277875   2.628   3.975  16.631  0.4251  0.0451 -0.0512
18795TIP3    H177876   2.666   4.010  16.712  0.7772 -0.4419 -0.0013
18795TIP3    H277877   2.672   3.891  16.619 -1.6324 -1.2313  0.7674
18796TIP3   OH277878   0.622   0.272  11.938 -0.0622 -0.0118 -0.7865
18796TIP3    H177879   0.703   0.228  11.964 -1.9951 -1.5889  3.5974
18796TIP3    H277880   0.570   0.204  11.896 -1.1534 -0.7811  1.5956
18797TIP3   OH277881   3.773   6.686   3.632  0.2133  0.1728  0.0791
18797TIP3    H177882   3.759   6.627   3.558  0.2056 -0.1671  0.3517
18797TIP3    H277883   3.688   6.729   3.643  0.4114  0.7549 -0.5616
18798TIP3   OH277884   2.512   3.375  15.359  0.0012 -0.2366  0.4268
18798TIP3    H177885   2.554   3.451  15.320 -0.6060  0.3417  0.8801
18798TIP3    H277886   2.419   3.385  15.338 -0.0705 -0.9295  0.3717
18799TIP3   OH277887   1.560   5.534   2.312  0.2794 -0.3373 -0.3904
18799TIP3    H177888   1.593   5.572   2.230  0.2462 -0.9417 -0.6936
18799TIP3    H277889   1.638   5.520   2.365  0.3773 -0.5437 -0.5836
18800TIP3   OH277890   1.214   4.068   3.245  0.5218 -0.1121  0.1402
18800TIP3    H177891   1.267   4.146   3.228 -0.3394  0.4347 -0.0760
18800TIP3    H277892   1.188   4.075   3.337 -0.7482  0.6236 -0.2451
18801TIP3   OH277893   5.401   5.654   6.353  0.7144  0.5133 -0.3862
18801TIP3    H177894   5.471   5.592   6.372 -0.3900 -0.8177 -0.5148
18801TIP3    H277895   5.437   5.739   6.378  1.8711 -0.3084  0.8808
18802TIP3   OH277896   6.289   1.114   4.374  0.0452  0.0807 -0.2040
18802TIP3    H177897   6.227   1.058   4.329  1.6725 -2.6009  0.6474
18802TIP3    H277898   6.359   1.129   4.310  0.0441  0.3965 -0.1338
18803TIP3   OH277899   4.150   4.824  11.424 -0.1100 -0.0980  0.0947
18803TIP3    H177900   4.183   4.908  11.457 -0.6284 -0.1300  0.7187
18803TIP3    H277901   4.055   4.831  11.432 -0.2175 -0.3211 -0.9035
18804TIP3   OH277902   1.637   4.902   0.757 -0.3216 -0.0674 -0.4765
18804TIP3    H177903   1.590   4.872   0.679 -1.1292 -1.6023  0.5360
18804TIP3    H277904   1.586   4.976   0.789  0.3144  0.9259 -1.6594
18805TIP3   OH277905   4.089   3.958   6.668 -0.2437 -0.4832  0.0938
18805TIP3    H177906   4.134   4.012   6.733  0.3984 -0.4135 -0.4010
18805TIP3    H277907   4.103   4.004   6.585 -1.7245 -0.1421  0.0072
18806TIP3   OH277908   5.407   1.252  15.821 -0.0408 -0.2873  0.6992
18806TIP3    H177909   5.487   1.212  15.787  0.2539 -0.3546  1.4414
18806TIP3    H277910   5.370   1.186  15.880 -1.4941 -0.8844 -0.8071
18807TIP3   OH277911   1.180   3.871   4.236 -0.0668 -0.0319 -0.2208
18807TIP3    H177912   1.253   3.813   4.213  1.0882  1.4070 -0.3783
18807TIP3    H277913   1.118   3.863   4.164  0.4445 -0.4718 -0.6156
18808TIP3   OH277914   6.106   6.452   3.444 -0.3997  0.0096  0.0534
18808TIP3    H177915   6.179   6.484   3.390 -0.3974 -0.7744 -0.4244
18808TIP3    H277916   6.139   6.456   3.534  0.2190 -0.2839 -0.1536
18809TIP3   OH277917   0.547   1.671  15.725  0.4024  0.0710 -0.0983
18809TIP3    H177918   0.635   1.632  15.727  1.1194  1.6076  0.7165
18809TIP3    H277919   0.517   1.657  15.636  2.2312  1.0358 -0.9216
18810TIP3   OH277920   5.288   5.225  11.168 -0.9534 -0.0652  0.1148
18810TIP3    H177921   5.222   5.294  11.169  0.7426  1.6286  0.4988
18810TIP3    H277922   5.372   5.271  11.175  0.2636 -2.1599  0.2693
18811TIP3   OH277923   3.361   3.977   6.153 -0.4638  1.0381  0.1428
18811TIP3    H177924   3.367   3.882   6.164  1.2282  0.8445 -1.9369
18811TIP3    H277925   3.275   4.000   6.189 -0.6464 -1.1567  1.2712
18812TIP3   OH277926   1.245   1.903   4.325  0.6624  0.1395  0.0209
18812TIP3    H177927   1.189   1.964   4.276 -0.6558 -0.3155  0.8917
18812TIP3    H277928   1.297   1.958   4.382  1.0905  0.5774 -0.7827
18813TIP3   OH277929   4.733   4.286  15.779  0.1352  0.8374 -0.3898
18813TIP3    H177930   4.658   4.322  15.733 -0.3103  1.4659  0.7876
18813TIP3    H277931   4.733   4.193  15.757 -1.0502  0.8097 -0.3261
18814TIP3   OH277932   1.517   4.167   5.254 -0.5416 -0.0728 -0.5791
18814TIP3    H177933   1.466   4.124   5.323 -0.2931  0.3753 -0.1088
18814TIP3    H277934   1.465   4.245   5.231  0.6242  1.2367  0.9847
18815TIP3   OH277935   1.363   1.828  12.119  0.0355  0.0432  0.5652
18815TIP3    H177936   1.299   1.770  12.160 -0.3755  0.3805  0.4134
18815TIP3    H277937   1.443   1.775  12.112 -0.4632 -0.6549  0.0064
18816TIP3   OH277938   1.881   5.348  15.603  0.1533 -0.0035 -0.1160
18816TIP3    H177939   1.903   5.361  15.511 -0.8986  0.2325 -0.3510
18816TIP3    H277940   1.798   5.300  15.601 -0.1032  0.3949  0.7072
18817TIP3   OH277941   2.401   6.613  16.314 -0.1452  0.0822  0.2815
18817TIP3    H177942   2.437   6.661  16.389  1.3673 -0.4515 -0.0646
18817TIP3    H277943   2.478   6.587  16.263 -1.1032 -0.2253 -1.0572
18818TIP3   OH277944   2.585   0.921   3.473 -0.3186 -0.0146 -0.1082
18818TIP3    H177945   2.590   1.016   3.483  2.4875  0.2043 -2.3180
18818TIP3    H277946   2.618   0.886   3.556 -1.9501  0.8588  0.9598
18819TIP3   OH277947   1.059   2.593   5.570  0.5182 -0.6420 -0.1650
18819TIP3    H177948   1.097   2.505   5.573  1.9213 -0.0354  0.6673
18819TIP3    H277949   0.968   2.579   5.541  1.4595 -2.1001 -2.7964
18820TIP3   OH277950   2.888   1.646  12.026 -0.0103 -0.2410  0.3738
18820TIP3    H177951   2.897   1.720  12.085 -2.4462 -1.3639  2.3726
18820TIP3    H277952   2.823   1.675  11.961  1.8641  0.6103 -1.2245
18821TIP3   OH277953   4.030   6.118  14.075 -0.3027  0.3626 -0.6140
18821TIP3    H177954   4.084   6.059  14.022 -0.7244 -0.3143 -0.3005
18821TIP3    H277955   4.086   6.194  14.091  1.2074 -1.0130  1.1162
18822TIP3   OH277956   2.347   3.225  13.903 -0.3192 -0.2890  0.3543
18822TIP3    H177957   2.359   3.292  13.836 -1.4745  0.6555  1.0494
18822TIP3    H277958   2.436   3.207  13.934 -0.0664  2.0867  1.2321
18823TIP3   OH277959   2.590   5.539   2.053  0.0083  0.3529 -0.1336
18823TIP3    H177960   2.584   5.603   1.982  1.3872  0.6183 -0.0427
18823TIP3    H277961   2.632   5.463   2.013 -0.2036  0.0909  0.1367
18824TIP3   OH277962   3.052   2.838  13.544  0.1922 -0.2065 -0.5448
18824TIP3    H177963   2.965   2.801  13.558  0.4735 -0.9102 -0.5986
18824TIP3    H277964   3.044   2.929  13.572 -0.8811  0.0897 -1.6915
18825TIP3   OH277965   6.738   1.855  13.495 -0.0948  0.0993  0.4164
18825TIP3    H177966   6.645   1.842  13.477 -0.3120  0.0253  1.5200
18825TIP3    H277967   6.745   1.947  13.521  0.4675  0.6402 -1.5248
18826TIP3   OH277968   2.047   3.236   2.952 -0.1606 -0.3843  0.2647
18826TIP3    H177969   2.078   3.191   3.030  1.5914 -0.7822 -0.6200
18826TIP3    H277970   2.000   3.313   2.986  1.4827  0.0396  1.7017
18827TIP3   OH277971   1.614   0.047  12.952 -0.3970 -0.5738 -0.1538
18827TIP3    H177972   1.557   0.033  13.027  0.1792 -0.6875  0.2769
18827TIP3    H277973   1.559   0.031  12.875 -0.5831 -2.0789  0.2685
18828TIP3   OH277974   1.348   4.794   3.190 -0.3362 -0.0243 -0.0338
18828TIP3    H177975   1.361   4.744   3.109  0.3075  0.7545 -0.4235
18828TIP3    H277976   1.426   4.850   3.196  0.1662 -0.8362  1.6840
18829TIP3   OH277977   4.549   1.570   3.008 -0.0284 -0.1974 -0.4397
18829TIP3    H177978   4.600   1.650   3.004  0.6555 -0.6992 -2.5329
18829TIP3    H277979   4.607   1.502   2.975 -0.6522 -1.5712  1.1107
18830TIP3   OH277980   0.865   0.534   1.212  0.1290  0.2432  0.6508
18830TIP3    H177981   0.795   0.513   1.274  0.4733 -0.1213  0.9171
18830TIP3    H277982   0.943   0.545   1.266  0.4357 -0.0961  0.2797
18831TIP3   OH277983   3.100   5.275   0.153  0.5083  0.3200 -1.0096
18831TIP3    H177984   3.184   5.318   0.172 -0.2039  0.8079  1.3911
18831TIP3    H277985   3.094   5.205   0.217 -0.4125 -0.4949 -1.9483
18832TIP3   OH277986   2.332   0.269   5.425  0.1219  0.0916 -0.0520
18832TIP3    H177987   2.316   0.358   5.456  1.3858 -0.2083  1.6259
18832TIP3    H277988   2.391   0.231   5.490  0.6921 -1.5412 -1.4327
18833TIP3   OH277989   1.750   4.550   1.019 -0.4639  0.3978  0.0546
18833TIP3    H177990   1.709   4.484   1.075 -0.5854 -1.0370 -1.6484
18833TIP3    H277991   1.742   4.516   0.930  1.9252  1.3985 -0.6414
18834TIP3   OH277992   3.905   2.108  14.280  0.3298 -0.0535 -0.1915
18834TIP3    H177993   3.886   2.082  14.190  1.0426  1.0697 -0.6914
18834TIP3    H277994   3.848   2.183  14.296  0.5221  0.0234  0.1403
18835TIP3   OH277995   3.335   2.472   3.964 -0.2241  0.1583  0.4854
18835TIP3    H177996   3.268   2.404   3.973  0.1727 -0.3792 -0.5721
18835TIP3    H277997   3.287   2.550   3.934 -0.6240  0.2674  1.3723
18836TIP3   OH277998   5.251   1.389   5.807 -0.0964 -0.3817 -0.0628
18836TIP3    H177999   5.251   1.303   5.765  1.9359 -0.4693  0.0357
18836TIP3    H278000   5.304   1.377   5.886 -0.5827  0.7499  0.4595
18837TIP3   OH278001   5.034   4.857   0.211 -0.1973  0.1843  0.2763
18837TIP3    H178002   5.026   4.779   0.156  0.7565  0.4248 -0.2129
18837TIP3    H278003   4.984   4.835   0.290 -0.4223 -0.6986 -0.0971
18838TIP3   OH278004   6.650   5.354   1.245  0.0879  0.0322 -0.6971
18838TIP3    H178005   6.637   5.315   1.158 -3.4350 -0.5817 -0.0316
18838TIP3    H278006   6.596   5.301   1.303  0.8545  1.5975  1.5839
18839TIP3   OH278007   3.901   2.327  16.198 -0.1947 -0.2608  0.1900
18839TIP3    H178008   3.979   2.277  16.222 -0.3973 -0.4794  0.3976
18839TIP3    H278009   3.925   2.372  16.117 -0.6827 -2.3250 -1.1835
18840TIP3   OH278010   5.807   1.171  12.873 -0.2417 -0.0194 -0.1354
18840TIP3    H178011   5.812   1.265  12.854 -0.6483 -0.0145 -0.2403
18840TIP3    H278012   5.770   1.133  12.793 -0.8115 -0.1621  0.1913
18841TIP3   OH278013   3.109   3.614  15.543  0.3624 -0.2000 -0.1714
18841TIP3    H178014   3.189   3.616  15.489  1.2304  2.2717  1.0288
18841TIP3    H278015   3.139   3.641  15.630 -1.9012  1.7136  0.1082
18842TIP3   OH278016   1.767   0.389   5.029 -0.3698 -0.1198 -0.3052
18842TIP3    H178017   1.778   0.388   4.934 -0.9957 -0.4786 -0.3822
18842TIP3    H278018   1.754   0.297   5.052  0.9245 -0.1681  0.2788
18843TIP3   OH278019   3.336   1.341  14.012  0.1058  0.0756  0.2602
18843TIP3    H178020   3.377   1.421  14.046  0.9021  0.3381 -1.2155
18843TIP3    H278021   3.397   1.271  14.037  1.0581  0.3554 -1.1585
18844TIP3   OH278022   0.421   5.909   2.234 -0.7759  0.1650  0.8189
18844TIP3    H178023   0.328   5.900   2.217 -1.0018  3.4546 -0.2877
18844TIP3    H278024   0.463   5.878   2.153 -1.0734  1.1021  0.2913
18845TIP3   OH278025   1.333   6.784   5.536 -0.1347 -0.6290  0.1561
18845TIP3    H178026   1.287   6.801   5.454 -3.0547  0.0055  1.7690
18845TIP3    H278027   1.324   6.690   5.550 -0.9930 -0.5097  0.4540
18846TIP3   OH278028   4.785   6.263   6.445 -0.0557  0.1853  0.1232
18846TIP3    H178029   4.748   6.193   6.392  0.4301  0.3271 -0.4152
18846TIP3    H278030   4.748   6.250   6.532  0.5099 -1.1172  0.1865
18847TIP3   OH278031   4.727   4.395  11.960  0.6414 -0.3187 -0.4937
18847TIP3    H178032   4.817   4.401  11.993  0.3333 -2.2036  0.8266
18847TIP3    H278033   4.673   4.433  12.029  0.2113 -1.8726  0.0614
18848TIP3   OH278034   5.530   3.876  13.768  0.0257  0.7707 -0.3288
18848TIP3    H178035   5.521   3.838  13.680  0.6448  0.9976 -0.4975
18848TIP3    H278036   5.616   3.918  13.767 -1.1343  3.2716 -0.5627
18849TIP3   OH278037   2.120   6.814  12.237  0.4111  0.4086  0.2941
18849TIP3    H178038   2.143   6.772  12.320  0.6720  0.4508  0.2446
18849TIP3    H278039   2.116   6.741  12.174  2.0646  0.5806 -0.0543
18850TIP3   OH278040   5.827   6.058   5.038 -0.4199 -0.2095  0.6235
18850TIP3    H178041   5.858   5.995   4.972 -0.2494  1.2325 -0.7252
18850TIP3    H278042   5.804   6.003   5.113 -2.5820 -2.1874 -1.3093
18851TIP3   OH278043   4.804   4.534  14.773  0.7135  1.0833 -0.6257
18851TIP3    H178044   4.800   4.630  14.763 -0.1343  1.1908  0.5756
18851TIP3    H278045   4.898   4.513  14.767  0.9160  1.9941 -0.8062
18852TIP3   OH278046   5.059   1.074   1.281  0.4432  0.1488  0.0096
18852TIP3    H178047   5.150   1.089   1.256  0.4693  0.4565  0.2730
18852TIP3    H278048   5.049   0.979   1.280  0.2480  0.1570 -1.8248
18853TIP3   OH278049   2.544   5.403  14.581  0.6889  0.8089 -0.0540
18853TIP3    H178050   2.517   5.494  14.587 -0.8771  0.5366 -1.8891
18853TIP3    H278051   2.488   5.366  14.512  1.1695 -1.5746  0.7350
18854TIP3   OH278052   4.840   1.078   2.805 -0.4175  0.4117  0.0900
18854TIP3    H178053   4.817   0.986   2.812 -2.0420  0.8337  0.6842
18854TIP3    H278054   4.801   1.119   2.882 -0.5984  1.7581 -0.6758
18855TIP3   OH278055   0.611   1.367  13.145 -0.0952 -0.2054  0.4029
18855TIP3    H178056   0.649   1.281  13.131 -1.5281 -1.0678  1.5371
18855TIP3    H278057   0.653   1.398  13.226 -0.8387 -0.6016  0.9478
18856TIP3   OH278058   1.813   0.096  16.617  0.0523  0.0218  0.0335
18856TIP3    H178059   1.895   0.135  16.649  1.1227 -1.2494 -1.0412
18856TIP3    H278060   1.809   0.011  16.660  0.8802 -1.1920 -2.1365
18857TIP3   OH278061   1.682   5.550   2.567 -0.3624 -0.1169 -0.8768
18857TIP3    H178062   1.620   5.598   2.622 -0.8725 -0.9525 -0.7156
18857TIP3    H278063   1.767   5.587   2.589 -0.4229 -1.1542  1.2367
18858TIP3   OH278064   4.551   1.839   3.844 -0.2329  0.0568 -0.5186
18858TIP3    H178065   4.496   1.798   3.912  1.4712 -1.3678  0.0849
18858TIP3    H278066   4.518   1.802   3.762 -0.1401 -0.8862 -0.1520
18859TIP3   OH278067   5.019   5.363   3.052 -0.8168 -0.3088 -0.1416
18859TIP3    H178068   4.979   5.322   2.975  0.2667 -0.9541 -0.3792
18859TIP3    H278069   4.948   5.367   3.116 -1.0164 -2.5037 -0.1281
18860TIP3   OH278070   3.689   6.684   1.014  0.1454  0.1314 -0.3508
18860TIP3    H178071   3.674   6.592   0.993  2.6402 -0.0070 -2.0635
18860TIP3    H278072   3.659   6.694   1.104 -1.7886 -1.8973 -0.6960
18861TIP3   OH278073   4.538   5.486   2.809 -0.2067 -0.2759  0.3129
18861TIP3    H178074   4.454   5.439   2.801 -0.7810  0.8666 -0.7847
18861TIP3    H278075   4.589   5.434   2.871 -1.0223 -2.0326 -0.4238
18862TIP3   OH278076   2.707   5.006   5.559 -0.9354  0.3185  0.2619
18862TIP3    H178077   2.642   5.012   5.629  0.0478  0.1117  1.2314
18862TIP3    H278078   2.743   5.095   5.553 -1.5033  0.5014 -0.4715
18863TIP3   OH278079   2.314   2.565  10.983 -0.3413  0.2485  0.1068
18863TIP3    H178080   2.323   2.636  11.046  0.8241 -0.3211  0.6024
18863TIP3    H278081   2.388   2.576  10.923 -1.5125  0.8774 -1.2897
18864TIP3   OH278082   1.285   0.962  12.528  0.0975 -0.1836 -0.4515
18864TIP3    H178083   1.315   0.973  12.438  1.4032 -1.1730 -0.1650
18864TIP3    H278084   1.243   0.876  12.529 -0.8665  0.2765 -0.3426
18865TIP3   OH278085   3.312   5.217  13.556 -0.2825  0.8541  1.0449
18865TIP3    H178086   3.229   5.226  13.508  0.0929 -1.1402 -0.0609
18865TIP3    H278087   3.286   5.184  13.642 -0.5658 -1.8138  0.0107
18866TIP3   OH278088   2.319   5.843   5.372  0.0796  0.0152  0.0526
18866TIP3    H178089   2.345   5.934   5.357  0.7848 -0.6856 -4.1320
18866TIP3    H278090   2.234   5.834   5.328  0.7137 -1.6368 -0.9368
18867TIP3   OH278091   4.666   5.783   6.222  0.4240 -0.2162 -0.2350
18867TIP3    H178092   4.732   5.779   6.291 -1.7994  2.4096  2.3377
18867TIP3    H278093   4.612   5.859   6.245 -2.5666 -1.2638 -3.0044
18868TIP3   OH278094   3.795   1.720   3.139 -0.0808  0.1800  0.2993
18868TIP3    H178095   3.786   1.778   3.214  0.5979  0.8244 -0.1035
18868TIP3    H278096   3.847   1.647   3.171 -0.3361  0.1400  0.6239
18869TIP3   OH278097   6.019   5.665   5.582  0.1943 -0.6903 -0.3173
18869TIP3    H178098   5.952   5.691   5.518 -0.8236  0.1757  1.0506
18869TIP3    H278099   6.002   5.573   5.598  0.0760 -0.7656 -0.8420
18870TIP3   OH278100   1.696   5.006  12.302  0.5441 -0.1690  0.4375
18870TIP3    H178101   1.773   4.985  12.248  0.1659  1.0146 -0.6157
18870TIP3    H278102   1.714   4.964  12.386  1.3818 -1.6623 -0.4378
18871TIP3   OH278103   5.809   1.960  12.154  0.4030 -0.0870  0.2112
18871TIP3    H178104   5.722   2.001  12.149 -0.0748 -1.1840 -1.0419
18871TIP3    H278105   5.863   2.011  12.094  0.6498  0.6108  1.0087
18872TIP3   OH278106   3.284   6.267  14.473  0.5950 -0.0792 -0.4921
18872TIP3    H178107   3.188   6.269  14.477  0.6340  0.5507  2.2317
18872TIP3    H278108   3.308   6.190  14.524  1.5789 -0.9594 -2.2007
18873TIP3   OH278109   2.745   2.765   5.141  0.3480  0.3266  0.2080
18873TIP3    H178110   2.834   2.769   5.174  0.8002 -0.3941 -0.8462
18873TIP3    H278111   2.695   2.722   5.210  0.9685  0.0859  0.5099
18874TIP3   OH278112   2.616   5.911  13.876 -0.1435  0.0921  0.1217
18874TIP3    H178113   2.708   5.932  13.859  0.1842 -0.8256  0.6861
18874TIP3    H278114   2.569   5.993  13.858  0.9066  0.9033  0.9521
18875TIP3   OH278115   2.866   0.835  11.903 -0.4598  0.1122  0.0235
18875TIP3    H178116   2.773   0.818  11.918 -0.2825 -1.8758 -0.8534
18875TIP3    H278117   2.869   0.927  11.878 -2.1830  0.2309  0.1014
18876TIP3   OH278118   2.330   0.132  12.188 -0.8112 -0.5330  0.0691
18876TIP3    H178119   2.244   0.091  12.198 -0.2447 -1.3771  1.8498
18876TIP3    H278120   2.391   0.059  12.183 -0.0508  0.0646  0.4354
18877TIP3   OH278121   3.495   2.116   4.129  0.1435 -0.5301 -0.0163
18877TIP3    H178122   3.570   2.138   4.074 -0.8899 -0.8001 -1.5740
18877TIP3    H278123   3.533   2.102   4.216  1.5839  1.6903 -0.2030
18878TIP3   OH278124   0.605   6.647  11.733 -0.3538  0.3950  0.2154
18878TIP3    H178125   0.604   6.592  11.655  1.1229 -0.5425  0.7977
18878TIP3    H278126   0.697   6.672  11.743 -0.9170  2.6869  0.2038
18879TIP3   OH278127   0.579   3.305  15.851  0.3075 -0.7785  0.1255
18879TIP3    H178128   0.620   3.289  15.766  1.6783  0.2653  0.5487
18879TIP3    H278129   0.638   3.262  15.913 -0.4289 -1.1258  0.5971
18880TIP3   OH278130   4.592   3.711   0.490 -0.1947  0.4619  0.7414
18880TIP3    H178131   4.569   3.639   0.548  0.4977 -0.8668 -0.5421
18880TIP3    H278132   4.538   3.698   0.412  2.0682 -0.5459 -0.7761
18881TIP3   OH278133   2.407   0.995   2.368 -0.3870 -0.2989  0.0454
18881TIP3    H178134   2.400   1.085   2.338 -2.2652  0.2355  1.8654
18881TIP3    H278135   2.423   1.001   2.462  0.7157 -1.8904  0.0097
18882TIP3   OH278136   6.433   0.293   3.592 -0.6717  0.4057 -0.2710
18882TIP3    H178137   6.486   0.370   3.612 -1.3138  1.3511 -1.9871
18882TIP3    H278138   6.346   0.328   3.573 -1.3318 -0.9001  0.2471
18883TIP3   OH278139   5.907   1.151   0.611 -0.6218 -0.3237 -0.0394
18883TIP3    H178140   5.885   1.244   0.617 -2.7067 -0.7099 -0.7293
18883TIP3    H278141   5.928   1.137   0.519 -0.7475 -0.6058 -0.0255
18884TIP3   OH278142   1.704   3.201  10.958 -0.0274 -0.0823 -0.1009
18884TIP3    H178143   1.700   3.118  10.912 -0.9901  0.5729 -1.2440
18884TIP3    H278144   1.660   3.263  10.900  1.1925  1.3583  0.4536
18885TIP3   OH278145   3.808   6.825   5.585 -0.1429 -0.1453  0.1042
18885TIP3    H178146   3.903   6.823   5.580 -0.0137 -0.4120  2.0121
18885TIP3    H278147   3.782   6.897   5.527  1.1397 -0.5965 -1.0846
18886TIP3   OH278148   6.454   6.595   0.130 -0.1843 -0.4249 -0.2543
18886TIP3    H178149   6.459   6.585   0.035  0.6215 -2.6594 -0.0420
18886TIP3    H278150   6.523   6.538   0.163 -0.4639  0.3049  1.6825
18887TIP3   OH278151   6.546   2.517   1.115 -0.2151  0.2698  0.1383
18887TIP3    H178152   6.482   2.539   1.048  0.0626 -1.3953 -0.7180
18887TIP3    H278153   6.628   2.554   1.083 -0.2384  0.1649 -0.0406
18888TIP3   OH278154   5.716   5.661   3.239 -0.5028 -0.0482  0.2940
18888TIP3    H178155   5.721   5.566   3.251 -0.0496  0.2207  2.7718
18888TIP3    H278156   5.806   5.686   3.217  0.0492  0.0693  2.4751
18889TIP3   OH278157   5.378   5.418   1.773 -0.0099 -0.6326 -0.1360
18889TIP3    H178158   5.410   5.328   1.767  1.6709  0.0138 -1.5275
18889TIP3    H278159   5.443   5.462   1.828  0.1954  0.1610 -1.0101
18890TIP3   OH278160   1.359   2.854  14.388 -0.2882 -0.3704  0.2443
18890TIP3    H178161   1.372   2.773  14.339  2.2434 -1.0755  1.8901
18890TIP3    H278162   1.274   2.842  14.430 -0.3688 -1.7868 -0.2420
18891TIP3   OH278163   4.089   4.549  15.373  0.5754  0.2187 -0.3483
18891TIP3    H178164   4.017   4.528  15.312  0.6194 -1.0390  0.0134
18891TIP3    H278165   4.166   4.554  15.317  0.3492  0.7344 -0.6225
18892TIP3   OH278166   0.805   1.131   2.214 -0.5681  0.0616 -0.2291
18892TIP3    H178167   0.810   1.050   2.162 -2.0755 -0.1609 -0.0674
18892TIP3    H278168   0.769   1.103   2.298 -0.1449  0.7540  0.1917
18893TIP3   OH278169   3.535   5.443  16.718 -0.6415 -0.1949 -1.2541
18893TIP3    H178170   3.590   5.436  16.640  0.5021  1.4334 -0.6452
18893TIP3    H278171   3.550   5.361  16.765 -0.9242 -0.9601 -2.4467
18894TIP3   OH278172   0.263   0.447  11.334 -0.0128  0.4240 -0.1302
18894TIP3    H178173   0.356   0.428  11.324  0.6048  1.6082  2.5083
18894TIP3    H278174   0.224   0.364  11.360  0.6744  0.3483  0.6806
18895TIP3   OH278175   4.382   5.032  15.624  0.1311 -0.2157 -0.1422
18895TIP3    H178176   4.304   5.028  15.680 -0.7462 -0.5810 -1.3569
18895TIP3    H278177   4.399   5.126  15.614  0.1369 -0.1436  0.5093
18896TIP3   OH278178   2.802   2.383   4.550  0.0767  0.0782 -0.1658
18896TIP3    H178179   2.843   2.308   4.592 -0.5813 -0.8402 -1.1245
18896TIP3    H278180   2.711   2.382   4.580  0.4219  1.4242  1.0356
18897TIP3   OH278181   2.522   1.254   0.388 -0.0122  0.9273 -0.0683
18897TIP3    H178182   2.599   1.196   0.386 -1.4406 -1.1291  1.0709
18897TIP3    H278183   2.549   1.327   0.444  0.8593 -0.2017  1.0620
18898TIP3   OH278184   2.202   0.133  15.595 -0.0077 -0.6054 -0.6423
18898TIP3    H178185   2.130   0.117  15.534 -0.8067 -0.3685  0.2253
18898TIP3    H278186   2.260   0.193  15.548 -1.4507  0.9164 -0.5535
18899TIP3   OH278187   5.196   2.167  14.000 -0.2546 -0.3493 -0.2723
18899TIP3    H178188   5.180   2.200  14.089 -1.5493  0.4830 -0.7824
18899TIP3    H278189   5.192   2.072  14.009  1.0566 -0.3383  0.7943
18900TIP3   OH278190   2.776   5.073   3.370 -0.2149 -0.3264 -0.3026
18900TIP3    H178191   2.835   5.004   3.340 -0.4743 -0.3303 -0.8136
18900TIP3    H278192   2.717   5.088   3.296 -0.2158  0.3798 -0.1587
18901TIP3   OH278193   1.342   1.270   5.722  0.1298 -0.3537 -0.6364
18901TIP3    H178194   1.355   1.249   5.814 -0.0823 -0.3346 -0.6005
18901TIP3    H278195   1.423   1.242   5.679  0.8463  0.9892 -0.2315
18902TIP3   OH278196   3.385   5.793   3.978  0.0325 -0.3439 -0.1721
18902TIP3    H178197   3.464   5.742   3.994 -0.2983 -0.6195  0.6501
18902TIP3    H278198   3.411   5.883   3.995 -0.2494 -0.6019  1.8826
18903TIP3   OH278199   1.429   6.245   4.396  0.7137  0.2246  0.1335
18903TIP3    H178200   1.490   6.204   4.458  0.5851  0.3603  0.3548
18903TIP3    H278201   1.389   6.316   4.447  1.3185  0.9650 -0.4047
18904TIP3   OH278202   0.631   0.559  11.851  0.6146 -0.0395  0.2278
18904TIP3    H178203   0.658   0.469  11.869  1.4569  0.1986  0.2059
18904TIP3    H278204   0.535   0.556  11.852  0.6254 -1.0726 -0.5035
18905TIP3   OH278205   2.313   2.375  12.472 -0.0623  0.1130  0.1467
18905TIP3    H178206   2.394   2.400  12.429  1.2006 -1.9264  1.1607
18905TIP3    H278207   2.272   2.458  12.497  1.6796  1.2083 -0.4361
18906TIP3   OH278208   3.295   1.739  14.649 -0.2973  0.3924 -0.2017
18906TIP3    H178209   3.339   1.682  14.711  0.5038  0.7026 -0.4797
18906TIP3    H278210   3.357   1.810  14.632 -1.1399  1.1735 -0.1193
18907TIP3   OH278211   2.528   6.760  12.224 -0.3401  0.2568  0.3465
18907TIP3    H178212   2.620   6.782  12.211  1.2694 -3.4412  3.3795
18907TIP3    H278213   2.516   6.679  12.174 -0.0884 -2.3129  3.9881
18908TIP3   OH278214   3.335   2.344   6.132  0.5007  0.2130 -0.4961
18908TIP3    H178215   3.315   2.268   6.188  0.2459  0.4352 -0.2808
18908TIP3    H278216   3.429   2.338   6.117  0.3640 -0.5898 -1.1320
18909TIP3   OH278217   1.349   4.691   2.627  0.0438  0.0594  0.3248
18909TIP3    H178218   1.335   4.720   2.717 -0.0201  0.9013  0.0506
18909TIP3    H278219   1.442   4.671   2.622  0.4364  1.8038  0.0902
18910TIP3   OH278220   4.041   4.479  14.929 -0.1996 -0.0092 -0.0621
18910TIP3    H178221   4.090   4.423  14.989  1.5342  1.3056 -0.1512
18910TIP3    H278222   4.108   4.535  14.889 -1.7767  1.8130 -0.2912
18911TIP3   OH278223   4.302   0.568   2.574  0.5725  0.2131  0.2999
18911TIP3    H178224   4.322   0.486   2.620 -0.6266 -0.5490 -0.4967
18911TIP3    H278225   4.388   0.603   2.551  1.1235 -1.4408 -0.3757
18912TIP3   OH278226   1.422   3.005  16.510 -0.7454 -0.0383  0.0703
18912TIP3    H178227   1.468   3.010  16.426  0.1816 -2.8159  0.2897
18912TIP3    H278228   1.481   3.047  16.573 -0.0472 -0.5836 -0.2092
18913TIP3   OH278229   1.236   1.938   1.880  0.0508  0.0411 -0.6653
18913TIP3    H178230   1.330   1.929   1.862  0.1488 -0.5798  0.1398
18913TIP3    H278231   1.208   2.010   1.823  0.9815  0.1327 -1.0219
18914TIP3   OH278232   4.698   6.401  13.461  0.1835  0.1449 -0.2475
18914TIP3    H178233   4.789   6.382  13.486 -0.0229  0.2522  0.6316
18914TIP3    H278234   4.663   6.316  13.433  0.3195 -0.0616  0.1941
18915TIP3   OH278235   5.921   0.809   2.229  0.0645  1.1364 -0.1413
18915TIP3    H178236   5.925   0.901   2.201  1.9141  0.7805 -1.2393
18915TIP3    H278237   5.931   0.760   2.147 -3.6779 -0.1699  0.0124
18916TIP3   OH278238   4.061   2.184  12.992 -0.8760 -0.3478 -0.2231
18916TIP3    H178239   4.002   2.128  13.041  0.1496 -0.2904  1.1400
18916TIP3    H278240   4.100   2.242  13.058  1.2589 -0.8988 -0.9014
18917TIP3   OH278241   5.566   6.101   6.287 -0.1687  0.2959  0.6812
18917TIP3    H178242   5.541   6.191   6.310  0.1132  0.3375  0.8347
18917TIP3    H278243   5.602   6.108   6.199  1.9748  0.7342  1.5290
18918TIP3   OH278244   4.885   1.447   0.925  0.3646 -0.1383  0.6491
18918TIP3    H178245   4.833   1.386   0.977 -1.2000 -0.4885 -1.2196
18918TIP3    H278246   4.828   1.472   0.852  1.2821  2.8452  0.7993
18919TIP3   OH278247   1.139   5.904  12.380  0.1943 -0.1080 -0.1339
18919TIP3    H178248   1.084   5.973  12.417  0.0985  0.0518 -0.5618
18919TIP3    H278249   1.096   5.823  12.406  0.9389 -0.0466  1.3465
18920TIP3   OH278250   3.176   6.775  12.888  0.3056 -0.3897 -0.2956
18920TIP3    H178251   3.092   6.809  12.855  0.1818  0.4129  0.7773
18920TIP3    H278252   3.226   6.854  12.909  1.6309 -0.8535 -1.6022
18921TIP3   OH278253   3.030   6.424   3.167  0.1550  1.0966  0.0899
18921TIP3    H178254   3.015   6.446   3.259 -1.8813 -0.2585  0.1472
18921TIP3    H278255   3.124   6.433   3.155  0.6041  0.3929  2.5765
18922TIP3   OH278256   0.293   1.255  16.923 -0.5535  0.4451 -0.6703
18922TIP3    H178257   0.362   1.307  16.881 -0.5216  1.1876  0.2614
18922TIP3    H278258   0.244   1.319  16.975 -1.0750 -0.3180 -0.2068
18923TIP3   OH278259   0.820   4.413   3.559  0.1331  0.1945 -0.2519
18923TIP3    H178260   0.746   4.443   3.506  0.9898  0.1682 -1.4941
18923TIP3    H278261   0.790   4.331   3.598 -0.8080  0.6465 -0.0011
18924TIP3   OH278262   1.198   4.672  16.131  0.1987 -0.4858  0.5477
18924TIP3    H178263   1.122   4.614  16.126  0.4133 -1.1000  3.2005
18924TIP3    H278264   1.267   4.625  16.083 -0.3102 -1.2837  0.5849
18925TIP3   OH278265   4.247   4.881   4.144  0.0098  0.1619  0.6890
18925TIP3    H178266   4.250   4.975   4.159  0.2551  0.5634 -1.5575
18925TIP3    H278267   4.306   4.844   4.211  0.0373  1.5877  1.4903
18926TIP3   OH278268   0.661   1.093  12.218 -0.1094  0.6258  0.6551
18926TIP3    H178269   0.642   1.138  12.136 -0.7129  0.8474  0.9077
18926TIP3    H278270   0.756   1.098  12.227  0.1775 -0.9414 -0.8939
18927TIP3   OH278271   3.613   4.853  11.848  0.3061  0.7165  0.0904
18927TIP3    H178272   3.698   4.891  11.826  0.2930  1.4803  1.2878
18927TIP3    H278273   3.562   4.926  11.884 -1.1236  0.4507 -1.2679
18928TIP3   OH278274   6.803   5.174  17.088 -0.6176 -0.2022  0.1459
18928TIP3    H178275   6.781   5.113  17.017 -0.5671 -0.1948  0.1238
18928TIP3    H278276   6.809   5.259  17.045 -0.5171 -0.2088  0.1477
18929TIP3   OH278277   1.842   3.429  12.752  0.1565 -0.0083  0.0457
18929TIP3    H178278   1.821   3.348  12.705  1.1753  0.1001 -0.6186
18929TIP3    H278279   1.889   3.400  12.830 -1.8291 -0.2126  1.2460
18930TIP3   OH278280   4.747   5.057  14.807 -0.1844  0.7967 -0.3396
18930TIP3    H178281   4.751   5.134  14.750  1.4266 -0.6970 -2.3534
18930TIP3    H278282   4.753   5.093  14.895 -0.7875  3.0508 -1.1454
18931TIP3   OH278283   3.288   1.955  11.237  0.3670 -0.5097  0.7634
18931TIP3    H178284   3.281   2.047  11.211 -1.0256 -0.6573  0.5112
18931TIP3    H278285   3.262   1.906  11.159 -3.2082 -0.9840  2.0409
18932TIP3   OH278286   1.342   2.634   4.724 -0.0827 -1.0404  0.1900
18932TIP3    H178287   1.431   2.603   4.707  0.0973 -1.5412  1.8711
18932TIP3    H278288   1.354   2.715   4.774 -0.5861 -0.3181 -0.8210
18933TIP3   OH278289   1.865   0.558   0.618 -0.6202 -0.7400  0.2121
18933TIP3    H178290   1.850   0.615   0.542  3.0780  1.7932  1.0700
18933TIP3    H278291   1.863   0.618   0.693  0.1696 -2.3324  1.5762
18934TIP3   OH278292   2.418   2.709   6.292  0.8373  0.0463  0.0138
18934TIP3    H178293   2.347   2.738   6.234  0.8733  0.6233  0.2566
18934TIP3    H278294   2.384   2.628   6.331  1.5374 -1.4109 -2.1897
18935TIP3   OH278295   3.406   0.390  16.327  0.1534 -0.7824  0.4403
18935TIP3    H178296   3.492   0.431  16.330 -0.6047  0.8522  1.1835
18935TIP3    H278297   3.345   0.463  16.316 -1.1404 -1.9038 -0.1847
18936TIP3   OH278298   3.672   1.315  16.715 -0.6790 -0.6857  0.0545
18936TIP3    H178299   3.683   1.240  16.774  0.2456 -2.0831 -1.7925
18936TIP3    H278300   3.761   1.335  16.685 -1.0757  0.3258 -0.4928
18937TIP3   OH278301   1.132   0.942  17.071 -0.4847 -0.0593 -0.1780
18937TIP3    H178302   1.045   0.911  17.096 -0.3297 -0.3088  0.0464
18937TIP3    H278303   1.171   0.973  17.153 -0.2871 -0.1250 -0.2484
18938TIP3   OH278304   5.913   1.963   3.823  0.0455  0.2037  0.2450
18938TIP3    H178305   5.877   1.884   3.862  1.2114 -1.6120 -2.0894
18938TIP3    H278306   5.839   2.002   3.776 -0.3482  0.0650  0.7399
18939TIP3   OH278307   1.243   3.327   4.136  0.3148 -0.2028 -0.3575
18939TIP3    H178308   1.237   3.306   4.043 -1.7095 -1.6684  0.0371
18939TIP3    H278309   1.155   3.311   4.170  0.9414  0.5573  1.7673
18940TIP3   OH278310   2.431   5.931  14.906  0.1615  0.4446 -0.4633
18940TIP3    H178311   2.445   5.839  14.929  0.4258  0.3463 -0.9918
18940TIP3    H278312   2.498   5.949  14.840  0.2518  1.0800 -0.2094
18941TIP3   OH278313   0.677   5.337   6.165  0.3905 -0.2276 -0.4449
18941TIP3    H178314   0.738   5.314   6.236 -0.0380  0.5607  0.1991
18941TIP3    H278315   0.613   5.265   6.164  0.0353  0.0640  0.4052
18942TIP3   OH278316   6.384   2.640   3.715  0.1611  0.4723  0.7642
18942TIP3    H178317   6.329   2.709   3.677 -0.1677 -0.3041 -0.2096
18942TIP3    H278318   6.465   2.685   3.739  0.9241  0.8287 -2.0865
18943TIP3   OH278319   1.131   5.446   0.610 -0.1916 -0.0222 -0.1858
18943TIP3    H178320   1.078   5.386   0.662  1.4375 -1.5079 -0.1558
18943TIP3    H278321   1.068   5.489   0.552 -1.5403 -1.0904  0.4187
18944TIP3   OH278322   5.527   4.018  15.045 -0.5458 -0.1325 -0.1662
18944TIP3    H178323   5.551   4.104  15.081  1.8683 -1.0304  0.6042
18944TIP3    H278324   5.532   3.959  15.120 -1.8973 -1.0073 -0.7438
18945TIP3   OH278325   2.097   6.109  13.083  0.3062  0.1538 -0.7752
18945TIP3    H178326   2.023   6.083  13.137 -0.3963  0.7574 -1.4245
18945TIP3    H278327   2.124   6.194  13.118 -0.3130  0.6686 -1.5033
18946TIP3   OH278328   4.078   0.842  11.446  0.2339 -0.0055 -0.5379
18946TIP3    H178329   4.084   0.872  11.537  1.3006  0.1118 -0.6352
18946TIP3    H278330   4.094   0.920  11.393  0.7934 -0.2915 -0.8066
18947TIP3   OH278331   3.415   5.020   0.171  0.0214 -0.2248  0.2135
18947TIP3    H178332   3.414   5.004   0.265  0.0170  0.1106  0.2739
18947TIP3    H278333   3.327   4.994   0.142  0.1907 -0.8098  0.2137
18948TIP3   OH278334   0.790   1.117   5.600 -0.6926 -0.1507  0.1071
18948TIP3    H178335   0.753   1.126   5.512  0.1682 -0.1847 -0.2720
18948TIP3    H278336   0.814   1.024   5.607  1.4053  0.2866 -0.5440
18949TIP3   OH278337   3.304   0.336   0.833 -0.3632 -0.5351 -0.3758
18949TIP3    H178338   3.226   0.377   0.871  0.5139 -0.0188  0.9795
18949TIP3    H278339   3.324   0.264   0.893  0.0638 -0.7948 -0.8310
18950TIP3   OH278340   2.332   4.812   5.739  0.6839 -0.1169 -0.1019
18950TIP3    H178341   2.344   4.749   5.809 -0.2676  1.6739  1.8025
18950TIP3    H278342   2.398   4.879   5.755  0.6802  0.1499 -1.1367
18951TIP3   OH278343   6.431   5.035  12.892 -0.1202  0.0921  0.1215
18951TIP3    H178344   6.405   5.122  12.860 -1.3249  0.0020  0.7657
18951TIP3    H278345   6.348   4.988  12.901  0.5734 -1.4328 -1.0344
18952TIP3   OH278346   1.631   0.322  12.221  0.1457  0.4385 -0.8966
18952TIP3    H178347   1.554   0.270  12.245  1.8653 -1.4084  0.9732
18952TIP3    H278348   1.616   0.343  12.128 -3.3615  1.6788 -0.2300
18953TIP3   OH278349   6.464   1.313  11.740  0.2386 -0.0821  0.9453
18953TIP3    H178350   6.486   1.399  11.776 -1.0543  0.2139  1.0884
18953TIP3    H278351   6.509   1.251  11.797  1.1503  0.4849  0.8689
18954TIP3   OH278352   6.436   4.094  14.673 -0.3794 -0.2294  0.1269
18954TIP3    H178353   6.516   4.114  14.624 -1.3948  0.7750 -1.2060
18954TIP3    H278354   6.450   4.134  14.759  0.7130 -0.4712  0.0833
18955TIP3   OH278355   5.555   6.107  13.148  0.5643 -0.1737  0.6150
18955TIP3    H178356   5.634   6.120  13.200 -0.0236  2.7778  0.9233
18955TIP3    H278357   5.489   6.161  13.190 -1.2134 -1.2857 -0.5952
18956TIP3   OH278358   4.996   1.774   4.524 -0.1826 -0.3341 -0.0030
18956TIP3    H178359   4.995   1.816   4.438  3.2529 -0.6596 -0.3335
18956TIP3    H278360   5.056   1.827   4.577  0.3520 -1.9754  1.1323
18957TIP3   OH278361   1.167   3.926  17.136  0.2127  0.1915 -0.5760
18957TIP3    H178362   1.095   3.868  17.108  0.9918 -1.9057  1.4530
18957TIP3    H278363   1.124   3.996  17.184 -0.5550 -1.0070  0.5703
18958TIP3   OH278364   0.505   0.029   3.343  0.3042  0.3535 -0.1645
18958TIP3    H178365   0.418   0.068   3.348  0.4335  0.5196  1.2312
18958TIP3    H278366   0.521  -0.007   3.430  2.3440  1.9516  0.2167
18959TIP3   OH278367   5.136   1.809   3.409 -0.3305 -0.3211 -0.0039
18959TIP3    H178368   5.122   1.820   3.315  1.9049 -1.2949 -0.5328
18959TIP3    H278369   5.049   1.796   3.446 -1.2963  0.5972 -1.8630
18960TIP3   OH278370   2.806   2.121  16.901 -0.1050 -0.6831  0.7705
18960TIP3    H178371   2.752   2.121  16.981  0.0893 -0.5570  0.9015
18960TIP3    H278372   2.819   2.029  16.881 -1.9405 -0.7493 -0.3192
18961TIP3   OH278373   6.574   3.491   2.574  0.3911 -0.7758 -1.2326
18961TIP3    H178374   6.638   3.562   2.567  0.4135 -0.2809  2.3632
18961TIP3    H278375   6.517   3.517   2.646 -0.7696 -3.5535 -1.0219
18962TIP3   OH278376   5.120   6.714   4.422 -0.1231  0.3866  0.5340
18962TIP3    H178377   5.170   6.771   4.481 -0.6732  1.1685  0.2604
18962TIP3    H278378   5.070   6.774   4.368 -1.0408 -0.3765  0.5221
18963TIP3   OH278379   5.728   3.819   2.570 -0.0423 -0.0052  0.9787
18963TIP3    H178380   5.806   3.874   2.581  0.4577 -0.0125 -1.7598
18963TIP3    H278381   5.669   3.846   2.641  0.9646  2.6637  0.9102
18964TIP3   OH278382   6.374   3.867  15.859  0.4880  0.5291  0.4141
18964TIP3    H178383   6.347   3.935  15.920  0.3557  1.1739 -0.3415
18964TIP3    H278384   6.394   3.792  15.914 -3.9155 -0.4720  1.0773
18965TIP3   OH278385   3.268   4.400   4.574 -0.0038  0.2715 -0.5566
18965TIP3    H178386   3.338   4.335   4.576 -2.5767 -2.7256  0.3291
18965TIP3    H278387   3.209   4.374   4.645 -1.8779  2.8085 -1.0428
18966TIP3   OH278388   4.579   6.840  12.002  0.5413  0.1214 -0.1545
18966TIP3    H178389   4.566   6.918  12.056 -1.7178 -3.4397  5.2579
18966TIP3    H278390   4.647   6.790  12.048 -2.6526 -3.9228  0.7578
18967TIP3   OH278391   3.593   1.050   3.867  0.3924  0.3709  0.5912
18967TIP3    H178392   3.546   0.968   3.884  0.7386 -0.0876 -0.6143
18967TIP3    H278393   3.526   1.109   3.833 -0.4713  1.5302  3.9322
18968TIP3   OH278394   3.628   4.158   3.368 -0.8457  0.0765  0.0947
18968TIP3    H178395   3.651   4.145   3.460 -0.8113 -0.6686 -0.0169
18968TIP3    H278396   3.608   4.252   3.361  1.0663  0.5458  0.4452
18969TIP3   OH278397   2.394   1.453  13.383 -0.5664 -0.0383  0.3499
18969TIP3    H178398   2.412   1.529  13.438 -0.1225 -0.7063  1.1508
18969TIP3    H278399   2.313   1.474  13.338 -1.4119  0.1857  1.9113
18970TIP3   OH278400   0.614   2.704  15.359  0.7556 -0.7148 -0.3701
18970TIP3    H178401   0.642   2.739  15.443 -0.9487 -1.1654  0.4258
18970TIP3    H278402   0.619   2.778  15.299  0.6313 -0.0174  0.4622
18971TIP3   OH278403   3.391   2.854  11.238 -0.1006  0.6315  0.0058
18971TIP3    H178404   3.483   2.841  11.263 -0.7969 -0.8758  1.9980
18971TIP3    H278405   3.389   2.832  11.145  1.8516  2.4478 -0.5697
18972TIP3   OH278406   0.218   5.556  14.609  0.3375 -0.4810  0.1156
18972TIP3    H178407   0.311   5.551  14.631  0.8038  1.8560 -1.0588
18972TIP3    H278408   0.198   5.649  14.608 -2.1940 -0.9353  0.8724
18973TIP3   OH278409   0.052   3.122   6.592 -0.4527  0.0279 -0.0095
18973TIP3    H178410   0.119   3.065   6.630  0.8174  0.0820 -2.0232
18973TIP3    H278411  -0.014   3.063   6.558 -0.4369 -0.1244  0.2237
18974TIP3   OH278412   1.466   5.787   3.147 -0.4711  0.1859  0.4624
18974TIP3    H178413   1.510   5.871   3.138  0.0137  0.0158  1.1878
18974TIP3    H278414   1.447   5.760   3.057  0.1941  0.6333  0.1861
18975TIP3   OH278415   2.866   4.619  16.170  0.7468 -0.0434  0.3788
18975TIP3    H178416   2.860   4.532  16.131 -0.0480 -0.0099  0.4046
18975TIP3    H278417   2.780   4.634  16.209  0.4065  1.2671 -0.7616
18976TIP3   OH278418   6.450   6.324   0.671 -0.1681  0.2850  0.5431
18976TIP3    H178419   6.427   6.401   0.619  2.1779 -0.0252 -1.0991
18976TIP3    H278420   6.519   6.355   0.730 -0.4112 -0.1892  1.0899
18977TIP3   OH278421   5.963   5.446   2.583  0.7512 -0.2725  0.0750
18977TIP3    H178422   6.008   5.377   2.533  0.3926 -0.0831 -0.5242
18977TIP3    H278423   5.906   5.488   2.519  2.3778  1.8959 -0.0623
18978TIP3   OH278424   5.399   6.083   6.613  0.2176 -0.1974 -0.2452
18978TIP3    H178425   5.468   6.116   6.671 -1.3277  1.1780  0.9067
18978TIP3    H278426   5.388   6.152   6.548 -1.4823  0.6385  0.8478
18979TIP3   OH278427   0.811   6.560   3.884  1.3117 -0.0711  0.2586
18979TIP3    H178428   0.783   6.471   3.903 -0.7539  0.7002  1.0770
18979TIP3    H278429   0.868   6.584   3.957 -0.0180  0.0472  1.2936
18980TIP3   OH278430   4.693   6.315   1.566  0.0763  0.1284  0.2695
18980TIP3    H178431   4.624   6.347   1.624  0.2697  1.5185 -0.2199
18980TIP3    H278432   4.713   6.390   1.510  2.9697  0.2704  1.3145
18981TIP3   OH278433   1.314   0.553   3.803  0.1354  0.2835  0.1938
18981TIP3    H178434   1.262   0.571   3.882 -1.1008 -0.4120 -0.4351
18981TIP3    H278435   1.352   0.466   3.818 -0.8907 -0.2760 -0.3644
18982TIP3   OH278436   5.458   0.602   4.108  0.4561 -0.4387  0.1409
18982TIP3    H178437   5.537   0.620   4.056  0.1428  0.2538 -0.1073
18982TIP3    H278438   5.436   0.686   4.147  0.1896 -0.7685  0.7091
18983TIP3   OH278439   5.433   3.872  17.012  0.3253  0.2013  0.0741
18983TIP3    H178440   5.344   3.840  16.994  0.2302  1.1794 -1.4349
18983TIP3    H278441   5.482   3.850  16.933  0.7563  1.9215 -0.1724
18984TIP3   OH278442   6.266   6.825   4.733  0.3079  0.0745 -0.7683
18984TIP3    H178443   6.171   6.830   4.722  0.3554  1.3111 -0.6464
18984TIP3    H278444   6.290   6.901   4.785  0.9871 -1.9863  2.1709
18985TIP3   OH278445   2.494   5.279  14.879  0.0533  0.4020  0.2224
18985TIP3    H178446   2.447   5.277  14.962 -0.8068  0.0152 -0.2687
18985TIP3    H278447   2.559   5.349  14.890  1.1249 -0.7684  1.8406
18986TIP3   OH278448   3.413   6.256  14.781 -0.1094 -0.0488  0.4941
18986TIP3    H178449   3.350   6.243  14.852  0.3955 -0.6050  0.8489
18986TIP3    H278450   3.386   6.195  14.713  1.5490 -2.2483  1.6792
18987TIP3   OH278451   6.247   4.224  14.974 -0.7963 -0.0512 -0.5115
18987TIP3    H178452   6.191   4.292  15.012 -1.6315 -0.4435 -0.9909
18987TIP3    H278453   6.226   4.146  15.025  0.5131  0.1339  0.3516
18988TIP3   OH278454   0.877   1.422   3.746 -0.2044  0.0522 -0.0210
18988TIP3    H178455   0.846   1.505   3.780  2.6834  1.7440 -1.1787
18988TIP3    H278456   0.901   1.372   3.824 -0.6526  0.8615  0.6526
18989TIP3   OH278457   2.005   1.826  11.851 -0.7149 -0.0377  1.0221
18989TIP3    H178458   1.934   1.838  11.789 -2.4376 -3.1517  2.1712
18989TIP3    H278459   1.980   1.879  11.927 -0.0279  1.5237  0.2031
18990TIP3   OH278460   6.696   5.926   5.907 -0.1251  0.3191  0.4087
18990TIP3    H178461   6.782   5.886   5.922  0.4623  2.1841  2.6081
18990TIP3    H278462   6.698   6.007   5.958 -2.1395  1.9417 -1.8424
18991TIP3   OH278463   6.388   4.139  16.027  0.2891 -0.6228 -0.3430
18991TIP3    H178464   6.465   4.158  15.974  0.1588  0.2758 -0.2305
18991TIP3    H278465   6.421   4.083  16.098  0.6852 -0.8618 -0.7075
18992TIP3   OH278466   2.871   6.506  16.869  0.0424 -0.2665  0.5314
18992TIP3    H178467   2.917   6.503  16.785  1.0984  1.1292  1.0380
18992TIP3    H278468   2.788   6.549  16.849  0.8194  1.2395  0.3998
18993TIP3   OH278469   6.320   1.260   1.452 -0.2124  0.7271 -0.9090
18993TIP3    H178470   6.354   1.320   1.518 -0.5316  0.5611 -0.5855
18993TIP3    H278471   6.299   1.180   1.501  1.4010 -0.1208 -1.5365
18994TIP3   OH278472   4.645   3.539   3.552  0.3128  0.1574 -0.1561
18994TIP3    H178473   4.721   3.555   3.609  0.5738 -2.6982  0.4550
18994TIP3    H278474   4.646   3.611   3.490  3.5887  0.2112 -0.2071
18995TIP3   OH278475   4.334   3.973   4.955  0.0901 -0.4319  0.3348
18995TIP3    H178476   4.310   4.010   5.040 -1.0694 -0.7238  0.1401
18995TIP3    H278477   4.308   4.039   4.891 -0.7667 -1.0125  0.0785
18996TIP3   OH278478   5.484   6.077  16.122 -0.1000 -0.1630 -0.2009
18996TIP3    H178479   5.390   6.072  16.108 -0.2045 -2.1804  0.7789
18996TIP3    H278480   5.522   6.015  16.059  0.4591 -0.1577  0.1150
18997TIP3   OH278481   2.917   3.634   1.199  0.0918  0.4822 -0.2736
18997TIP3    H178482   2.947   3.627   1.108  2.6021  0.2598  0.4833
18997TIP3    H278483   2.962   3.563   1.245 -0.9178  0.7443  1.2071
18998TIP3   OH278484   1.578   4.202  15.320 -0.4771 -0.1189  0.4922
18998TIP3    H178485   1.579   4.141  15.394  1.0713  1.5426  1.9266
18998TIP3    H278486   1.622   4.280  15.352 -0.6095  1.0431 -1.9148
18999TIP3   OH278487   1.950   0.852  13.395 -0.3774 -0.1808  0.0510
18999TIP3    H178488   1.886   0.905  13.347 -0.4101  1.0751  1.4047
18999TIP3    H278489   1.936   0.875  13.487  2.6202  0.8928  0.3605
19000TIP3   OH278490   1.639   4.119  17.219  0.0617 -0.5648 -0.5714
19000TIP3    H178491   1.660   4.099  17.310 -0.9882  1.0647  0.0530
19000TIP3    H278492   1.724   4.136  17.178  0.3989  0.9773  0.6851
19001TIP3   OH278493   2.274   4.238  16.411 -0.0163 -0.2010  0.1977
19001TIP3    H178494   2.280   4.235  16.316  0.0597  1.0934  0.1429
19001TIP3    H278495   2.352   4.191  16.441  0.5777  0.3794 -0.3934
19002TIP3   OH278496   0.536   0.378  14.737  0.0446 -0.2642  0.0861
19002TIP3    H178497   0.460   0.332  14.702 -1.0936  0.3372  1.6810
19002TIP3    H278498   0.575   0.317  14.800 -0.3889  0.2203  0.8426
19003TIP3   OH278499   3.425   4.792  12.276  0.2521 -0.0954  0.4549
19003TIP3    H178500   3.376   4.791  12.358  0.8820 -0.2052  0.8430
19003TIP3    H278501   3.375   4.735  12.218 -0.4816  0.4021  0.5898
19004TIP3   OH278502   2.687   3.152   0.715 -0.3019  0.3485  0.3880
19004TIP3    H178503   2.692   3.099   0.635  0.5914 -1.4933  1.5953
19004TIP3    H278504   2.707   3.241   0.686  0.6342 -0.3707 -1.3336
19005TIP3   OH278505   3.964   5.622   2.110  0.2494 -0.3917  0.2174
19005TIP3    H178506   4.027   5.657   2.172 -0.6851  0.8376  0.5257
19005TIP3    H278507   4.001   5.538   2.082  1.0472 -0.6429  1.8760
19006TIP3   OH278508   3.335   1.167   5.581  0.3984  0.5758 -0.0471
19006TIP3    H178509   3.244   1.157   5.610  0.7566 -0.6128  0.7548
19006TIP3    H278510   3.376   1.084   5.605  1.3076  0.4591 -1.8797
19007TIP3   OH278511   3.477   6.702   5.151 -0.0898 -0.2642 -0.0286
19007TIP3    H178512   3.421   6.739   5.219  0.0303  0.5115 -0.3407
19007TIP3    H278513   3.449   6.611   5.144 -1.4602  0.1475 -0.3184
19008TIP3   OH278514   3.779   5.811  13.534  0.0258  0.5059 -0.5704
19008TIP3    H178515   3.849   5.789  13.596 -0.4099  2.4614  0.6740
19008TIP3    H278516   3.699   5.807  13.586 -0.8921 -1.7998 -2.0051
19009TIP3   OH278517   2.771   3.124   3.554  0.5028  0.9207 -0.1706
19009TIP3    H178518   2.783   3.161   3.642  1.4042  2.2998 -0.8288
19009TIP3    H278519   2.745   3.199   3.500 -0.2232  0.0519 -1.0492
19010TIP3   OH278520   5.489   5.487  14.270 -0.1837 -0.1235  0.3146
19010TIP3    H178521   5.397   5.473  14.291  0.1826 -1.7450  0.9872
19010TIP3    H278522   5.531   5.500  14.355  0.3147 -0.1298  0.0722
19011TIP3   OH278523   4.472   5.999   0.473  0.0335 -0.6662  0.0940
19011TIP3    H178524   4.513   5.913   0.486 -0.0781 -0.5978  0.9174
19011TIP3    H278525   4.394   5.996   0.527 -2.8420 -1.9455 -3.6964
19012TIP3   OH278526   1.196   4.261  17.093  0.1926  0.0664  0.1000
19012TIP3    H178527   1.276   4.284  17.141 -0.6482 -1.6389  2.4709
19012TIP3    H278528   1.226   4.247  17.003  2.2762  0.9509  0.5833
19013TIP3   OH278529   1.394   1.804   6.034 -0.0715 -0.0523 -0.3171
19013TIP3    H178530   1.317   1.775   5.985 -1.6631  1.9103  0.8343
19013TIP3    H278531   1.395   1.749   6.112  0.4151 -0.8545 -0.8726
19014TIP3   OH278532   1.823   5.805  12.569 -0.1844 -0.3331 -0.3722
19014TIP3    H178533   1.729   5.804  12.553 -0.1855 -2.4280 -0.4402
19014TIP3    H278534   1.856   5.728  12.524  1.5148  0.0912  0.0662
19015TIP3   OH278535   1.180   3.093   3.631 -0.4227  0.1330 -0.3278
19015TIP3    H178536   1.250   3.066   3.689  0.7239 -0.2806 -1.8456
19015TIP3    H278537   1.100   3.079   3.682  0.4524 -1.3261  0.7163
19016TIP3   OH278538   1.691   1.926   3.842 -0.2612  0.5226 -0.1729
19016TIP3    H178539   1.723   2.014   3.859  1.3642  0.1391 -0.9984
19016TIP3    H278540   1.660   1.928   3.751 -0.1402  0.2331 -0.2237
19017TIP3   OH278541   1.148   2.276  17.144  0.4703  0.8740 -0.6469
19017TIP3    H178542   1.187   2.294  17.058 -0.3580  0.6375 -1.0795
19017TIP3    H278543   1.069   2.330  17.147  0.9698  1.5932  0.3570
19018TIP3   OH278544   4.956   0.666   3.261  0.0860 -0.3661  0.1188
19018TIP3    H178545   5.029   0.720   3.289 -0.0223 -0.3593  0.3954
19018TIP3    H278546   4.983   0.576   3.281  0.0647 -0.3718  0.1227
19019TIP3   OH278547   5.077   6.549  12.249 -0.2102  0.1279  0.1417
19019TIP3    H178548   5.039   6.485  12.188 -0.4420 -0.9588  1.3791
19019TIP3    H278549   5.130   6.497  12.309  3.0738  1.5459 -1.2701
19020TIP3   OH278550   2.935   6.488  12.770 -0.1525  0.6138 -0.4291
19020TIP3    H178551   2.862   6.520  12.824 -0.1368  0.2612 -0.1945
19020TIP3    H278552   3.008   6.481  12.831 -0.9352 -2.9070  0.3353
19021TIP3   OH278553   3.695   0.854   5.741  0.9755  0.1795 -0.0466
19021TIP3    H178554   3.731   0.844   5.829  1.1348  0.3774 -0.0882
19021TIP3    H278555   3.757   0.808   5.684  0.6884 -0.2529 -0.0192
19022TIP3   OH278556   5.484   1.341  11.583 -0.4434 -0.2506  0.9539
19022TIP3    H178557   5.404   1.358  11.533 -0.4762  0.3790  1.2258
19022TIP3    H278558   5.555   1.358  11.521 -0.5153 -1.0206  0.6460
19023TIP3   OH278559   2.771   0.161   4.820 -0.4930  0.3668  0.1367
19023TIP3    H178560   2.681   0.141   4.845  0.1495 -0.5533  1.8463
19023TIP3    H278561   2.818   0.079   4.833  0.6465  0.8945 -0.5369
19024TIP3   OH278562   0.817   6.726  17.202 -0.1306 -0.0718 -0.0760
19024TIP3    H178563   0.888   6.672  17.167 -1.8400 -1.6742 -1.2707
19024TIP3    H278564   0.835   6.732  17.296  0.4648 -2.2559 -0.0049
19025TIP3   OH278565   6.221   3.239   2.170  0.9371  0.2556  0.0663
19025TIP3    H178566   6.221   3.160   2.224 -1.6482  0.7550  0.9692
19025TIP3    H278567   6.241   3.208   2.082 -0.0440 -1.4322  0.3904
19026TIP3   OH278568   4.248   6.272  15.533  0.1326  0.2333  0.2321
19026TIP3    H178569   4.290   6.224  15.604 -0.0749  0.4959  0.5379
19026TIP3    H278570   4.189   6.209  15.493  0.5255 -0.0218  0.0564
19027TIP3   OH278571   5.169   2.759   0.902 -0.3611  0.0273  0.2032
19027TIP3    H178572   5.195   2.695   0.968  2.7176  1.5985  0.7104
19027TIP3    H278573   5.188   2.844   0.942 -1.2235  1.1605 -1.6344
19028TIP3   OH278574   1.536   5.819  12.204  0.0732  0.4075 -0.1249
19028TIP3    H178575   1.490   5.740  12.230  0.1919  0.7208  1.1008
19028TIP3    H278576   1.576   5.851  12.285  1.7383  0.6027 -0.9755
19029TIP3   OH278577   3.520   2.398   4.186 -0.0938 -0.6726 -0.1627
19029TIP3    H178578   3.505   2.304   4.184 -3.2488 -0.2923 -2.6107
19029TIP3    H278579   3.459   2.434   4.121  1.6392  3.0006 -0.0488
19030TIP3   OH278580   6.416   3.827  13.538 -0.2749  0.5043 -0.5283
19030TIP3    H178581   6.464   3.908  13.556 -2.4139  1.6102  0.5317
19030TIP3    H278582   6.394   3.831  13.445  0.9235  0.3696 -0.8368
19031TIP3   OH278583   2.649   3.106   2.498  0.1220  0.4102 -0.1815
19031TIP3    H178584   2.606   3.026   2.468 -2.8228  1.3338  1.2336
19031TIP3    H278585   2.653   3.162   2.421 -0.8640  0.1374 -0.4342
19032TIP3   OH278586   6.052   6.293  14.978  0.1410  0.1686 -0.1944
19032TIP3    H178587   6.148   6.286  14.979  0.0765 -1.6396  2.2023
19032TIP3    H278588   6.031   6.345  15.055 -0.8302 -1.0945  0.4278
19033TIP3   OH278589   1.062   1.200  16.714  0.5788 -0.2356  0.1142
19033TIP3    H178590   0.991   1.198  16.779 -0.4041  1.6048 -0.8264
19033TIP3    H278591   1.094   1.110  16.712 -2.8917 -1.6285 -0.6406
19034TIP3   OH278592   1.939   2.295  15.088  0.2795  0.0833  0.4248
19034TIP3    H178593   1.948   2.330  15.177  0.4497 -1.2638  0.9716
19034TIP3    H278594   1.846   2.301  15.069 -0.0811 -1.3801  1.4997
19035TIP3   OH278595   5.139   4.337   4.092  0.4441 -0.5437  0.0834
19035TIP3    H178596   5.146   4.415   4.037 -1.3104 -0.2295  0.2603
19035TIP3    H278597   5.095   4.367   4.171  1.4024 -1.3585  0.9536
19036TIP3   OH278598   3.344   4.672   5.784  0.5860 -0.1211  0.1988
19036TIP3    H178599   3.416   4.734   5.794 -0.6531  1.1008  2.0057
19036TIP3    H278600   3.278   4.719   5.734 -0.2799 -0.0255  1.3950
19037TIP3   OH278601   5.184   6.435   2.582 -0.7365 -0.3611  0.1555
19037TIP3    H178602   5.164   6.378   2.508 -0.2547  2.2426 -2.1732
19037TIP3    H278603   5.100   6.450   2.625 -0.9109 -2.4656  0.6142
19038TIP3   OH278604   4.243   0.971   3.160  0.2178 -0.3414  0.5111
19038TIP3    H178605   4.336   0.978   3.180  0.0744 -1.4041  1.6959
19038TIP3    H278606   4.201   1.034   3.218  0.2085  0.3729 -0.2544
19039TIP3   OH278607   4.671   4.729  11.216  0.2082  0.5063 -0.2656
19039TIP3    H178608   4.640   4.805  11.167 -1.4155  0.0396 -0.0175
19039TIP3    H278609   4.723   4.680  11.153 -0.8145  0.5517 -1.1752
19040TIP3   OH278610   6.648   3.916  17.204 -0.0302 -0.1470 -0.6347
19040TIP3    H178611   6.561   3.887  17.176 -0.1403  0.5958 -1.0953
19040TIP3    H278612   6.633   4.002  17.242 -0.0416 -1.4329  2.6365
19041TIP3   OH278613   1.160   5.776   0.634  0.0167 -0.5721 -0.1743
19041TIP3    H178614   1.190   5.745   0.719 -0.1849  0.0970  0.1451
19041TIP3    H278615   1.066   5.761   0.634 -0.4082  1.6104  0.7082
19042TIP3   OH278616   3.284   6.121   3.402 -0.4050  0.1530 -0.1540
19042TIP3    H178617   3.286   6.084   3.491  0.0430  4.0105  1.6434
19042TIP3    H278618   3.191   6.131   3.383 -0.5024  0.0611  0.2573
19043TIP3   OH278619   2.352   3.752   0.298 -0.3873 -0.1051  0.1405
19043TIP3    H178620   2.257   3.745   0.284 -0.2754  0.0401 -0.7610
19043TIP3    H278621   2.372   3.683   0.362 -1.4593  1.4209  2.2330
19044TIP3   OH278622   0.037   5.204  11.016  0.0278  0.1264 -0.4830
19044TIP3    H178623   0.092   5.281  11.000 -2.6169  2.2442 -0.1188
19044TIP3    H278624  -0.020   5.199  10.939 -0.3401 -1.0250 -0.1547
19045TIP3   OH278625   4.326   4.232   1.716 -0.2918  0.1587  0.5723
19045TIP3    H178626   4.269   4.290   1.665  0.0379  0.3869  0.4593
19045TIP3    H278627   4.412   4.240   1.674 -0.2685 -0.5122  0.4763
19046TIP3   OH278628   4.864   6.278   0.491  0.3178  0.7006  0.2646
19046TIP3    H178629   4.785   6.330   0.498  0.4220  0.8276  0.5126
19046TIP3    H278630   4.891   6.263   0.581 -0.7127 -1.3150  0.2829
19047TIP3   OH278631   1.877   2.651  17.099  0.0430  0.3114  0.0300
19047TIP3    H178632   1.901   2.695  17.180 -1.3563 -0.2863  0.7993
19047TIP3    H278633   1.882   2.558  17.119  3.0767 -0.0370 -1.6071
19048TIP3   OH278634   2.782   0.047  11.280  0.1640 -1.0420  0.2303
19048TIP3    H178635   2.727   0.065  11.357 -0.1654  0.7808 -0.3767
19048TIP3    H278636   2.844  -0.019  11.310  1.3792  1.0433  2.7584
19049TIP3   OH278637   6.670   1.449  16.698 -0.2848  0.2564  0.0714
19049TIP3    H178638   6.575   1.452  16.710 -0.4589 -2.2720 -0.0594
19049TIP3    H278639   6.703   1.523  16.749 -2.1927 -0.0666  1.9354
19050TIP3   OH278640   6.284   3.192  11.572 -0.3482  0.3038  0.0238
19050TIP3    H178641   6.195   3.174  11.541 -0.4445  0.4706  0.2025
19050TIP3    H278642   6.334   3.113  11.550 -1.1246 -0.8907  2.2261
19051TIP3   OH278643   4.603   4.539  15.292  0.0102  0.1578  0.1320
19051TIP3    H178644   4.609   4.491  15.209  0.2537 -0.2949  0.4087
19051TIP3    H278645   4.637   4.478  15.358 -0.1026  0.5452  0.5543
19052TIP3   OH278646   6.149   5.263   0.733  0.9420  0.1906  0.0646
19052TIP3    H178647   6.105   5.345   0.711 -0.2756 -0.4570  0.0122
19052TIP3    H278648   6.157   5.217   0.649  0.7507 -0.1527  0.2323
19053TIP3   OH278649   2.645   5.798  11.948  0.4255  0.4157  0.4373
19053TIP3    H178650   2.667   5.765  11.861  1.9737 -0.9329  1.2967
19053TIP3    H278651   2.653   5.723  12.005  0.6578  1.5394  1.9425
19054TIP3   OH278652   1.678   4.304   2.309 -0.5314  0.1869  0.7083
19054TIP3    H178653   1.639   4.348   2.233 -1.2052 -0.7932  0.4645
19054TIP3    H278654   1.607   4.249   2.343  0.4015 -1.0311  0.7426
19055TIP3   OH278655   0.153   1.402  17.099 -0.5805  0.0021 -0.2507
19055TIP3    H178656   0.205   1.451  17.162 -1.8008 -0.0370  0.8387
19055TIP3    H278657   0.063   1.427  17.118 -1.1082 -1.3885 -0.7795
19056TIP3   OH278658   5.852   3.377   4.527 -0.5221  0.2397  0.1222
19056TIP3    H178659   5.855   3.355   4.434  1.8566 -3.0335  0.7743
19056TIP3    H278660   5.799   3.308   4.566  1.1012 -0.2957  1.5001
19057TIP3   OH278661   6.060   2.950   0.250 -0.4413  0.3407  0.2766
19057TIP3    H178662   6.008   3.019   0.209 -1.0299  0.4746  1.2000
19057TIP3    H278663   6.102   2.993   0.325 -1.2277 -0.3871  1.1745
19058TIP3   OH278664   0.847   0.578   3.539  0.2366  0.3116 -0.4945
19058TIP3    H178665   0.942   0.587   3.542  0.3168 -0.5364 -0.1232
19058TIP3    H278666   0.813   0.656   3.582  0.7635  0.6153 -0.6311
19059TIP3   OH278667   4.154   6.511  13.570  0.6980  0.4670  0.0985
19059TIP3    H178668   4.093   6.468  13.510  0.5084  1.6668 -0.6151
19059TIP3    H278669   4.238   6.468  13.554  0.1601 -0.9041  0.7784
19060TIP3   OH278670   4.681   1.813   4.472 -0.5333 -0.4432 -0.6852
19060TIP3    H178671   4.664   1.885   4.411 -2.8441 -0.7354 -0.4721
19060TIP3    H278672   4.734   1.852   4.541 -2.1880  1.2478 -0.2826
19061TIP3   OH278673   6.583   6.366  14.987  0.1923 -0.4375 -0.4912
19061TIP3    H178674   6.666   6.321  14.999 -0.2439 -1.6598 -1.7531
19061TIP3    H278675   6.554   6.340  14.899 -1.1122  0.6432 -0.4219
19062TIP3   OH278676   6.504   6.291  13.897  0.2105  0.9050 -0.7911
19062TIP3    H178677   6.430   6.345  13.926  0.3876  0.7360  0.0086
19062TIP3    H278678   6.547   6.265  13.979  0.4038 -0.0589 -1.1876
19063TIP3   OH278679   3.546   4.858  14.050 -0.2216 -0.4163  0.0096
19063TIP3    H178680   3.609   4.916  14.008  0.3155 -0.1875  1.1034
19063TIP3    H278681   3.478   4.845  13.984  1.0608 -0.8537 -1.2717
19064TIP3   OH278682   4.632   0.492  13.642 -0.6063  0.3664  0.4125
19064TIP3    H178683   4.697   0.562  13.650 -0.4588  0.3905 -0.8830
19064TIP3    H278684   4.640   0.443  13.724 -0.8315  1.9466  1.4239
19065TIP3   OH278685   3.440   0.641  14.793  0.5958 -0.1965  0.1412
19065TIP3    H178686   3.472   0.552  14.807  1.2163 -0.1732 -0.9793
19065TIP3    H278687   3.350   0.631  14.762  0.4236 -0.4004  0.7156
19066TIP3   OH278688   3.924   0.442   3.315 -0.3849 -0.0441  0.2198
19066TIP3    H178689   3.855   0.444   3.248  0.0394 -1.0124 -0.2782
19066TIP3    H278690   3.888   0.386   3.384 -1.2365  1.7669  1.3229
19067TIP3   OH278691   6.568   0.033  13.719 -0.0114 -0.0674 -0.1582
19067TIP3    H178692   6.561   0.122  13.683  0.5369  0.4390  0.9358
19067TIP3    H278693   6.508  -0.019  13.666 -0.9456  1.1238 -0.3293
19068TIP3   OH278694   4.409   0.108   4.001  0.4905 -0.0200 -0.3045
19068TIP3    H178695   4.323   0.087   4.037  0.8323 -1.9816 -0.5063
19068TIP3    H278696   4.434   0.030   3.951  1.9002  0.9504 -1.2012
19069TIP3   OH278697   0.065   3.434   5.524  0.2777  0.0886 -0.2833
19069TIP3    H178698  -0.004   3.368   5.531  0.4667 -0.1646 -0.7906
19069TIP3    H278699   0.052   3.473   5.438  2.9131 -2.4067 -1.9709
19070TIP3   OH278700   6.692   3.762   1.539 -0.0463  0.0795  0.1718
19070TIP3    H178701   6.610   3.811   1.553  0.3063  0.5644  0.5900
19070TIP3    H278702   6.714   3.778   1.448  0.4189  1.2909  0.4692
19071TIP3   OH278703   3.676   0.911  13.007  0.2102 -0.4378  0.7813
19071TIP3    H178704   3.749   0.869  13.052 -0.6219 -0.2286  2.3885
19071TIP3    H278705   3.624   0.952  13.076  0.6660  2.8503 -0.6145
19072TIP3   OH278706   5.344   4.685  12.420 -0.4162  0.6593 -0.5279
19072TIP3    H178707   5.415   4.732  12.464  1.0418 -0.5830 -1.4494
19072TIP3    H278708   5.275   4.751  12.409  0.4348  1.8168  0.7076
19073TIP3   OH278709   1.908   2.848  16.436  0.3600  0.2169  0.2102
19073TIP3    H178710   1.846   2.818  16.370 -0.2443  1.3042  0.2669
19073TIP3    H278711   1.896   2.943  16.440  0.3753  0.1827  1.8834
19074TIP3   OH278712   4.706   2.024  16.381 -0.6536 -0.3592  0.1257
19074TIP3    H178713   4.683   1.940  16.422 -0.1685 -0.1818  0.7694
19074TIP3    H278714   4.644   2.087  16.419 -0.2466 -0.2062  0.5320
19075TIP3   OH278715   6.072   3.657  11.063 -0.5405 -0.4373  0.0772
19075TIP3    H178716   6.165   3.643  11.048  0.4218  2.8019  1.9739
19075TIP3    H278717   6.059   3.636  11.156 -1.2954  0.6307  0.2433
19076TIP3   OH278718   3.663   1.164  15.334 -0.1067  0.0335  0.3090
19076TIP3    H178719   3.657   1.253  15.298 -0.6366 -0.1539 -0.0678
19076TIP3    H278720   3.655   1.176  15.429  0.9768  0.4983  0.3568
19077TIP3   OH278721   5.332   0.267   5.790 -0.3852 -0.5598 -0.0640
19077TIP3    H178722   5.329   0.274   5.885  0.4109 -1.1111  0.0046
19077TIP3    H278723   5.406   0.209   5.771  0.0908  0.3232 -1.0550
19078TIP3   OH278724   4.550   6.739   4.817 -0.6037 -0.0876 -0.3478
19078TIP3    H178725   4.612   6.750   4.745 -0.0179  0.2678  0.2016
19078TIP3    H278726   4.540   6.644   4.825  4.0349 -0.6428  2.9662
19079TIP3   OH278727   5.715   5.392  16.841  0.1288  0.1489  0.1617
19079TIP3    H178728   5.785   5.337  16.876 -1.5981 -0.4558  3.0428
19079TIP3    H278729   5.674   5.430  16.919 -1.4978  2.0937 -1.5238
19080TIP3   OH278730   4.417   4.348  17.066 -0.1978 -0.2444  0.6648
19080TIP3    H178731   4.370   4.274  17.028 -1.0298  0.6214 -0.0671
19080TIP3    H278732   4.369   4.368  17.147 -0.4128 -0.0810  0.5006
19081TIP3   OH278733   0.011   4.032   1.707  0.1008 -0.0856 -0.4220
19081TIP3    H178734   0.091   4.083   1.720 -0.4598  0.8111 -0.3541
19081TIP3    H278735   0.033   3.944   1.735  0.6114  0.5040  1.1214
19082TIP3   OH278736   4.703   4.113  13.620 -0.3722  0.3959  0.2679
19082TIP3    H178737   4.660   4.152  13.696 -0.2912  0.4535  0.2851
19082TIP3    H278738   4.668   4.162  13.545 -0.7593  0.0636  0.2315
19083TIP3   OH278739   5.625   1.749   3.127 -0.4639  0.1539  0.1872
19083TIP3    H178740   5.664   1.695   3.195 -0.7055  0.6227  0.7094
19083TIP3    H278741   5.538   1.769   3.160 -1.0631 -0.6696 -0.8504
19084TIP3   OH278742   5.755   4.631   2.782 -0.3419 -0.5830 -0.7903
19084TIP3    H178743   5.677   4.685   2.789 -0.1294 -0.0395 -2.1956
19084TIP3    H278744   5.773   4.602   2.871 -0.8949  1.0520 -0.1100
19085TIP3   OH278745   1.350   4.310  16.326 -0.5779  0.1563 -0.3252
19085TIP3    H178746   1.257   4.299  16.344 -0.4611  0.1813  0.3144
19085TIP3    H278747   1.357   4.303  16.231 -1.6154  2.8554 -0.6935
19086TIP3   OH278748   0.390   0.688   0.021  0.5079 -0.1123 -0.0077
19086TIP3    H178749   0.350   0.733  -0.053 -1.9226  2.0425  2.3856
19086TIP3    H278750   0.449   0.623  -0.018 -1.2356  0.3424 -3.7461
19087TIP3   OH278751   5.558   3.570  16.737 -0.4247 -0.0261 -0.3987
19087TIP3    H178752   5.622   3.535  16.676 -0.3702 -0.1378 -0.2787
19087TIP3    H278753   5.475   3.532  16.709 -0.0856 -1.9461  0.9697
19088TIP3   OH278754   3.992   5.761   3.948  0.1372 -0.6557  0.1217
19088TIP3    H178755   3.976   5.711   4.028  0.0369  0.1251  0.6102
19088TIP3    H278756   3.908   5.762   3.902 -0.1585 -0.0364  0.6498
19089TIP3   OH278757   3.853   0.478   0.631 -0.2065  0.3247 -0.3812
19089TIP3    H178758   3.860   0.447   0.721  0.1756  0.9690 -0.1794
19089TIP3    H278759   3.876   0.402   0.577  0.6862  0.2341  0.0973
19090TIP3   OH278760   6.819   3.953   0.310 -0.0353 -0.2398 -0.3999
19090TIP3    H178761   6.762   3.877   0.323 -1.1228  0.5252 -0.5598
19090TIP3    H278762   6.872   3.930   0.234  0.4824 -1.3068  0.2527
19091TIP3   OH278763   6.030   6.014  12.024  0.5651 -0.0544 -0.0926
19091TIP3    H178764   5.947   5.971  12.045  0.3990 -0.8658 -2.1421
19091TIP3    H278765   6.079   5.948  11.974  0.8717  1.6346 -2.1495
19092TIP3   OH278766   1.328   0.594   1.638  0.0020  0.8243  0.0665
19092TIP3    H178767   1.421   0.574   1.649  0.0115  0.9698  0.2690
19092TIP3    H278768   1.283   0.512   1.658  0.1148  0.5908 -0.6175
19093TIP3   OH278769   4.919   2.295  15.629  0.5453  0.1134 -0.1997
19093TIP3    H178770   4.985   2.253  15.574 -1.1749 -0.7494 -1.6939
19093TIP3    H278771   4.836   2.257  15.601 -0.9323  3.1330 -0.3162
19094TIP3   OH278772   5.459   1.037   1.410  0.5039 -0.1062  0.6157
19094TIP3    H178773   5.535   1.095   1.416  0.5376 -0.2811  3.1038
19094TIP3    H278774   5.397   1.084   1.356  0.8871  1.8741  1.7919
19095TIP3   OH278775   2.063   1.908   2.514  0.4156 -0.5493 -0.6158
19095TIP3    H178776   1.969   1.899   2.498  0.5750  0.2845 -2.3028
19095TIP3    H278777   2.093   1.965   2.443  1.7819  1.2654  1.3160
19096TIP3   OH278778   0.921   1.000   3.843 -0.2194 -0.3094 -0.1507
19096TIP3    H178779   0.845   1.049   3.875 -0.9158 -1.8908  0.7751
19096TIP3    H278780   0.983   1.000   3.916  0.2546  0.1134 -0.5430
19097TIP3   OH278781   0.518   5.757   1.385 -0.0220 -0.8119  0.4265
19097TIP3    H178782   0.569   5.832   1.417 -2.4322  0.7651  0.8465
19097TIP3    H278783   0.472   5.725   1.463 -1.7139 -0.4616 -0.3998
19098TIP3   OH278784   2.232   3.847   5.863 -0.0551 -0.4069  0.2071
19098TIP3    H178785   2.221   3.892   5.946 -1.2549  0.2395 -0.2745
19098TIP3    H278786   2.316   3.879   5.829 -0.2706  0.4797  0.4787
19099TIP3   OH278787   3.137   2.761   3.338  0.0490 -0.3227  0.1450
19099TIP3    H178788   3.104   2.673   3.354  0.4840 -0.3751  0.7922
19099TIP3    H278789   3.078   2.819   3.386  0.4045 -0.3524  0.6256
19100TIP3   OH278790   1.007   4.117  12.564  0.5149 -0.2337 -0.7874
19100TIP3    H178791   1.054   4.149  12.487  0.2148  1.7586 -0.1890
19100TIP3    H278792   0.920   4.095  12.531  1.1150 -1.7983 -1.4576
19101TIP3   OH278793   4.769   6.498  16.658 -0.1833  0.4405 -0.2031
19101TIP3    H178794   4.695   6.507  16.598 -1.7504  2.1535  1.8110
19101TIP3    H278795   4.729   6.498  16.746  2.1149  0.1424  0.9138
19102TIP3   OH278796   4.079   3.572  12.313  0.4369  0.3106 -0.3947
19102TIP3    H178797   4.165   3.533  12.330  1.1753  1.7404 -0.6968
19102TIP3    H278798   4.024   3.498  12.287  1.8703 -0.5014 -1.2731
19103TIP3   OH278799   4.131   0.851  13.053  0.3265  0.3175 -0.2045
19103TIP3    H178800   4.125   0.833  12.959  0.3991 -0.9456  0.0069
19103TIP3    H278801   4.142   0.946  13.059  0.8675  0.3563 -1.4914
19104TIP3   OH278802   2.345   4.128  12.018 -0.1252 -0.1944  0.3569
19104TIP3    H178803   2.352   4.094  12.108  0.4746 -1.2037 -0.0445
19104TIP3    H278804   2.374   4.055  11.964 -1.5148  0.0270 -0.7333
19105TIP3   OH278805   4.270   2.228  17.188  0.2914  0.1942 -0.4200
19105TIP3    H178806   4.245   2.246  17.279 -1.9198  0.5176 -1.0553
19105TIP3    H278807   4.330   2.153  17.195 -1.9027 -1.5570  1.1462
19106TIP3   OH278808   1.879   3.319  15.290 -0.9851  0.3734  0.1928
19106TIP3    H178809   1.920   3.320  15.203 -1.1625  1.5654  0.1021
19106TIP3    H278810   1.895   3.231  15.323  1.1115  0.5803 -0.1057
19107TIP3   OH278811   4.223   1.907   2.096  0.2282  0.6611  0.3191
19107TIP3    H178812   4.188   1.973   2.156 -0.7766  1.1998 -0.8318
19107TIP3    H278813   4.178   1.923   2.013  2.1286  0.4200 -0.8170
19108TIP3   OH278814   4.972   4.743   1.289 -0.0510 -0.2921  0.7072
19108TIP3    H178815   4.915   4.788   1.351  0.7348 -0.1126  1.3153
19108TIP3    H278816   4.914   4.683   1.242 -1.2482  1.7614 -0.5509
19109TIP3   OH278817   5.375   3.888  14.461 -0.6566 -0.5214 -0.6353
19109TIP3    H178818   5.363   3.983  14.449 -0.7756 -0.5641 -0.8464
19109TIP3    H278819   5.414   3.858  14.379 -0.2701 -0.5938 -0.4276
19110TIP3   OH278820   2.758   5.398   6.159 -0.3208  0.7403  0.4479
19110TIP3    H178821   2.760   5.492   6.176  0.5692  0.5717  1.3453
19110TIP3    H278822   2.671   5.370   6.188 -0.5779  1.2733  0.2006
19111TIP3   OH278823   2.437   4.812   3.337  0.0628  0.2115  0.3079
19111TIP3    H178824   2.499   4.761   3.285 -0.6787 -0.0074 -0.3677
19111TIP3    H278825   2.474   4.901   3.338  0.7920 -0.0804  0.5800
19112TIP3   OH278826   6.379   4.717   6.657 -0.8546  0.5543 -0.3231
19112TIP3    H178827   6.303   4.761   6.619 -1.6631 -1.6063 -1.3491
19112TIP3    H278828   6.360   4.623   6.649  0.9077 -0.0421  1.4958
19113TIP3   OH278829   1.544   2.657   0.506  0.3312  0.1294 -0.1259
19113TIP3    H178830   1.638   2.658   0.523  0.5633 -0.3284 -1.2768
19113TIP3    H278831   1.505   2.625   0.587  0.8259  3.7422  1.7451
19114TIP3   OH278832   3.884   0.877   4.101 -0.1689  0.6246  0.2264
19114TIP3    H178833   3.857   0.818   4.031  2.0986  0.6291 -0.7422
19114TIP3    H278834   3.814   0.942   4.106 -2.4909 -1.7589  0.9754
19115TIP3   OH278835   5.723   3.255   2.964  0.4504 -0.0126  0.4006
19115TIP3    H178836   5.656   3.247   2.896  0.4883 -0.7336  0.4405
19115TIP3    H278837   5.805   3.265   2.916  0.2123  2.2245  0.3357
19116TIP3   OH278838   6.804   1.230   0.444  0.2380  0.2083 -0.4162
19116TIP3    H178839   6.756   1.150   0.425  0.1364  0.2225 -0.2253
19116TIP3    H278840   6.756   1.270   0.516  1.0205 -0.1931  0.3405
19117TIP3   OH278841   4.250   4.245  13.181 -0.2846 -0.8061 -0.0554
19117TIP3    H178842   4.345   4.247  13.192  0.0384  4.5049 -0.8897
19117TIP3    H278843   4.215   4.261  13.269 -0.3904 -1.7305  0.0801
19118TIP3   OH278844   1.506   1.050   4.467  0.4445 -0.1056 -0.5168
19118TIP3    H178845   1.547   0.964   4.483  2.7918  0.9610 -0.3933
19118TIP3    H278846   1.428   1.030   4.415  0.1626 -2.4280  0.6585
19119TIP3   OH278847   1.498   0.377  16.533  0.3892  0.1979 -0.6476
19119TIP3    H178848   1.416   0.400  16.576  0.0150  1.1166 -1.7974
19119TIP3    H278849   1.499   0.281  16.533  0.1027  0.1761  0.7945
19120TIP3   OH278850   4.645   2.798  14.098 -0.2217  0.1599 -0.1883
19120TIP3    H178851   4.693   2.830  14.175 -2.2280 -1.1573  1.7107
19120TIP3    H278852   4.573   2.860  14.087 -1.8400 -1.3884  1.0958
19121TIP3   OH278853   6.735   5.373  16.762  0.2294  0.2901 -0.3823
19121TIP3    H178854   6.668   5.307  16.783  0.0969  0.4424 -0.3251
19121TIP3    H278855   6.762   5.407  16.847  2.6747 -1.9926 -0.1015
19122TIP3   OH278856   2.092   2.065  12.420  0.4935  0.5957 -0.7410
19122TIP3    H178857   2.113   1.973  12.430  0.2179  0.5883 -0.1418
19122TIP3    H278858   2.143   2.109  12.488 -1.3910  0.5628  0.8173
19123TIP3   OH278859   6.483   2.486   2.055 -0.0954  0.2366  0.2882
19123TIP3    H178860   6.388   2.481   2.044  0.0409 -0.5957 -0.5637
19123TIP3    H278861   6.501   2.430   2.130 -0.1297 -0.8166 -0.4708
19124TIP3   OH278862   2.181   5.569  10.352  0.3218 -0.5161 -0.0199
19124TIP3    H178863   2.272   5.540  10.344  0.9910  1.2616  0.7938
19124TIP3    H278864   2.136   5.494  10.391  1.4478 -1.3860 -0.3295
19125TIP3   OH278865   5.151   2.083   0.153 -0.8548  0.3238  0.0950
19125TIP3    H178866   5.212   2.018   0.189 -0.8837  0.5537  0.5662
19125TIP3    H278867   5.158   2.071   0.058  0.0607  0.4650  0.1287
19126TIP3   OH278868   4.016   0.471  14.313 -0.9175  0.4319 -0.0834
19126TIP3    H178869   4.070   0.477  14.234 -0.2059 -1.9031  0.1367
19126TIP3    H278870   4.016   0.559  14.349  1.8726  0.7718 -0.6815
19127TIP3   OH278871   2.498   1.459  15.051 -0.7114  0.3025 -0.0194
19127TIP3    H178872   2.556   1.502  15.114  0.3301  0.7426 -1.2453
19127TIP3    H278873   2.454   1.530  15.006  0.1486  0.1033 -1.2447
19128TIP3   OH278874   0.860   5.772   3.216  0.0502  0.2763 -0.5437
19128TIP3    H178875   0.897   5.856   3.244  1.4263 -0.1233 -1.0698
19128TIP3    H278876   0.933   5.727   3.173 -0.7135 -1.1149 -0.4391
19129TIP3   OH278877   3.102   6.600   2.822  0.1526 -0.0479  0.0130
19129TIP3    H178878   3.143   6.514   2.837 -1.7409 -0.8437  1.0231
19129TIP3    H278879   3.015   6.579   2.787 -0.4580  1.4536  0.5606
19130TIP3   OH278880   0.438   3.200  15.082  0.5768 -0.4572 -0.4657
19130TIP3    H178881   0.361   3.256  15.080  0.1231 -1.0659 -0.3339
19130TIP3    H278882   0.506   3.251  15.038  0.5326  0.6887  0.7433
19131TIP3   OH278883   4.531   3.974  11.971 -0.1358  0.5152  0.1013
19131TIP3    H178884   4.547   4.003  11.881  1.2031  1.2953  0.5528
19131TIP3    H278885   4.615   3.987  12.015  0.2443 -2.9459  0.6745
19132TIP3   OH278886   5.881   1.102  13.959 -0.6814  0.6798  0.0775
19132TIP3    H178887   5.800   1.106  13.907 -0.2863  0.4031 -0.5677
19132TIP3    H278888   5.883   1.013  13.993 -0.5901  0.6487 -0.0076
19133TIP3   OH278889   3.506   1.880  11.021 -0.6454 -0.2557  0.4934
19133TIP3    H178890   3.415   1.853  11.037 -0.5450  0.3477  2.3690
19133TIP3    H278891   3.499   1.945  10.952 -1.7804  0.4849  1.2604
19134TIP3   OH278892   4.750   2.650  16.306  0.2326 -0.0985  0.2601
19134TIP3    H178893   4.682   2.714  16.286 -0.9263 -1.1741  0.6555
19134TIP3    H278894   4.831   2.701  16.309 -0.6315  1.3083  0.3708
19135TIP3   OH278895   4.470   2.551   1.275  0.2234  0.7229 -0.4670
19135TIP3    H178896   4.418   2.627   1.249 -0.8497  0.1613 -0.0517
19135TIP3    H278897   4.458   2.546   1.370  1.3889  0.8193 -0.3042
19136TIP3   OH278898   6.018   5.477  11.435  0.1686  0.1473  0.3337
19136TIP3    H178899   6.084   5.517  11.379  0.0181 -0.0222  0.0382
19136TIP3    H278900   6.057   5.394  11.463 -0.1064 -0.1749 -0.2224
19137TIP3   OH278901   6.618   6.344   1.591 -0.1543 -0.2213 -0.2125
19137TIP3    H178902   6.615   6.394   1.510  0.7812 -0.8736 -0.6679
19137TIP3    H278903   6.623   6.411   1.660 -1.3124  0.3428 -0.6479
19138TIP3   OH278904   1.041   3.970   6.401  0.4909 -0.5158  0.1120
19138TIP3    H178905   1.089   3.959   6.483 -0.0144 -2.7816  0.1582
19138TIP3    H278906   1.108   3.993   6.336  1.0756 -0.0141  0.8821
19139TIP3   OH278907   2.913   4.529   4.941  0.3141  0.1356  0.4350
19139TIP3    H178908   2.838   4.474   4.920  1.4748 -3.1729  3.8587
19139TIP3    H278909   2.953   4.548   4.856 -1.7586 -1.9452 -1.1315
19140TIP3   OH278910   3.131   6.356   1.945  0.6579 -0.4221  0.6283
19140TIP3    H178911   3.174   6.440   1.963 -0.3205  0.4279 -0.7463
19140TIP3    H278912   3.203   6.295   1.929  1.3808  0.2288  1.2943
19141TIP3   OH278913   1.027   2.417   4.382  0.0776  0.2776 -0.6082
19141TIP3    H178914   0.940   2.412   4.422  0.5867 -2.1190  0.4301
19141TIP3    H278915   1.084   2.370   4.444  1.3717 -1.5059 -2.9682
19142TIP3   OH278916   3.787   5.885   0.082  0.1479  0.0836 -0.2242
19142TIP3    H178917   3.800   5.828   0.158 -0.6743 -1.3207 -1.0932
19142TIP3    H278918   3.693   5.901   0.080  0.2752  0.8403 -0.4595
19143TIP3   OH278919   5.547   0.985  14.070 -0.4021 -0.4287 -0.3564
19143TIP3    H178920   5.608   0.912  14.065 -0.4381 -0.4764 -0.1304
19143TIP3    H278921   5.580   1.040  14.141  0.0253  0.1517 -0.9937
19144TIP3   OH278922   3.684   6.614  14.918  0.4179  0.0120 -0.6355
19144TIP3    H178923   3.727   6.646  14.997  2.5174 -1.2633 -1.2037
19144TIP3    H278924   3.702   6.682  14.853 -0.2133  0.4422 -0.3793
19145TIP3   OH278925   2.963   1.378   5.726  0.3742  0.5235 -1.1497
19145TIP3    H178926   2.907   1.395   5.802 -2.0347 -2.1581 -2.1417
19145TIP3    H278927   2.928   1.435   5.657 -0.4161 -0.2922 -1.4401
19146TIP3   OH278928   4.130   2.473  14.330 -0.1603 -0.2217  0.5625
19146TIP3    H178929   4.130   2.386  14.290 -1.0229 -1.2766  2.7064
19146TIP3    H278930   4.058   2.519  14.287 -1.9189 -1.7680  1.6513
19147TIP3   OH278931   2.949   2.138  13.950  0.0984 -0.0974 -0.6167
19147TIP3    H178932   3.021   2.196  13.971  0.3110 -0.9204  1.0964
19147TIP3    H278933   2.946   2.137  13.854  0.7528  1.8632 -0.6947
19148TIP3   OH278934   1.070   6.773   1.550  0.0773 -0.3027 -0.3852
19148TIP3    H178935   1.088   6.800   1.460  0.5717  2.2583  0.4096
19148TIP3    H278936   0.990   6.720   1.543 -0.6866  0.9660 -2.1843
19149TIP3   OH278937   3.086   0.395  16.113 -0.1854  0.7236  0.3461
19149TIP3    H178938   3.177   0.389  16.085 -0.0726  0.9809  0.6496
19149TIP3    H278939   3.058   0.482  16.084 -0.3616  0.6132  0.1785
19150TIP3   OH278940   1.141   2.263  15.518  0.8009  0.0238  0.2646
19150TIP3    H178941   1.189   2.333  15.474 -0.9478  0.0071 -1.8307
19150TIP3    H278942   1.187   2.183  15.493  0.0196  0.0454 -1.3696
19151TIP3   OH278943   6.138   1.884   6.364 -0.4245  0.5927 -0.1062
19151TIP3    H178944   6.171   1.795   6.377  0.1959  0.8699  0.2697
19151TIP3    H278945   6.121   1.917   6.452 -1.5058  0.5421 -0.2804
19152TIP3   OH278946   2.295   0.340  15.438  0.7596 -0.1692  0.5757
19152TIP3    H178947   2.288   0.415  15.380  0.4168 -0.6195  0.0211
19152TIP3    H278948   2.360   0.283  15.397 -0.3801 -1.0705 -0.0593
19153TIP3   OH278949   5.097   0.036   3.259  0.1773  0.1616 -0.0288
19153TIP3    H178950   5.172   0.027   3.319 -0.4056  1.7312  0.9995
19153TIP3    H278951   5.099   0.128   3.232 -1.6306  0.3616  0.3905
19154TIP3   OH278952   4.013   3.559  10.434  0.4348 -0.7424 -0.0825
19154TIP3    H178953   3.994   3.570  10.341  1.6650  1.8203 -0.1169
19154TIP3    H278954   3.928   3.537  10.473 -0.4084 -0.3549 -1.6024
19155TIP3   OH278955   1.426   3.959   2.917 -0.1011  0.1367  0.5360
19155TIP3    H178956   1.479   4.029   2.879  0.0240 -0.2159  0.0563
19155TIP3    H278957   1.345   3.959   2.865 -0.1134 -0.0534  0.5524
19156TIP3   OH278958   0.580   0.772  16.488  0.6123  0.1154  0.2255
19156TIP3    H178959   0.633   0.849  16.508 -1.6655  1.1775  2.5809
19156TIP3    H278960   0.530   0.797  16.410 -0.5925  1.3625  1.3415
19157TIP3   OH278961   5.527   5.112   1.132 -0.1060 -0.4742  0.5171
19157TIP3    H178962   5.463   5.066   1.186 -0.7892 -0.3164 -0.1336
19157TIP3    H278963   5.574   5.169   1.192  0.2037 -1.4262  1.2015
19158TIP3   OH278964   2.115   4.833  16.088 -0.0143  0.4324 -0.7204
19158TIP3    H178965   2.057   4.909  16.086 -0.1689  0.3023 -1.4118
19158TIP3    H278966   2.066   4.764  16.043  0.1186 -0.0856 -0.0943
19159TIP3   OH278967   5.957   4.299  16.349  0.6704  0.5890  0.3912
19159TIP3    H178968   6.047   4.299  16.318  0.7294  0.6642  0.5609
19159TIP3    H278969   5.905   4.325  16.273  0.5543 -1.6663 -0.3736
19160TIP3   OH278970   2.536   2.596   5.268  0.3261 -0.1436  0.7571
19160TIP3    H178971   2.551   2.617   5.360 -1.0788 -1.0485  1.2256
19160TIP3    H278972   2.445   2.622   5.252 -0.0528 -1.7198  0.1760
19161TIP3   OH278973   3.518   0.797  16.080 -0.6840 -0.5385  0.4383
19161TIP3    H178974   3.590   0.852  16.048 -1.7100 -0.1599 -1.3716
19161TIP3    H278975   3.440   0.851  16.067 -1.6577 -2.1555 -0.7928
19162TIP3   OH278976   0.119   3.389  16.400  0.1516  0.1153  0.0342
19162TIP3    H178977   0.173   3.323  16.442  0.4304  0.6085  0.4677
19162TIP3    H278978   0.158   3.401  16.314  1.2890  1.0919  0.6531
19163TIP3   OH278979   0.708   2.543   5.014 -0.1033  0.1617 -0.0293
19163TIP3    H178980   0.619   2.511   5.028 -1.1111  2.5526 -0.4449
19163TIP3    H278981   0.734   2.580   5.099 -0.2162  1.0180 -0.3572
19164TIP3   OH278982   3.781   3.741   5.379  0.0665 -0.4944 -0.1288
19164TIP3    H178983   3.794   3.827   5.338 -0.6215  0.0190  0.7005
19164TIP3    H278984   3.687   3.725   5.370 -0.1561 -0.2390  1.4562
19165TIP3   OH278985   4.213   6.121   2.396  0.3688 -0.0627  0.6446
19165TIP3    H178986   4.196   6.141   2.488  0.4063 -0.7635  0.8123
19165TIP3    H278987   4.211   6.206   2.352  1.9789  0.4972  1.5462
19166TIP3   OH278988   6.011   2.281  13.293 -0.3782  0.5676 -0.1983
19166TIP3    H178989   5.988   2.356  13.238 -0.0836  0.1029 -0.9735
19166TIP3    H278990   5.930   2.258  13.337 -1.6905 -1.4047 -3.3043
19167TIP3   OH278991   2.674   2.800   2.703  0.5931  0.9076  0.2136
19167TIP3    H178992   2.590   2.761   2.677  1.9952 -2.3509  0.1923
19167TIP3    H278993   2.729   2.793   2.625  0.8216  3.4920  0.0645
19168TIP3   OH278994   1.576   1.934  14.003  0.2600 -0.3050 -0.0412
19168TIP3    H178995   1.496   1.985  13.990 -0.9054 -1.4231  2.0997
19168TIP3    H278996   1.551   1.867  14.068  2.5276 -1.6699 -0.4695
19169TIP3   OH278997   1.822   5.009   4.036  0.1388  1.0978  0.3501
19169TIP3    H178998   1.862   5.075   3.979  0.6786 -0.0064 -0.5966
19169TIP3    H278999   1.874   4.929   4.020 -1.4314  0.0435  0.3145
19170TIP3   OH279000   2.565   0.223  12.314  0.5915  0.3311  0.0354
19170TIP3    H179001   2.630   0.213  12.245  0.4919  1.0207 -0.1605
19170TIP3    H279002   2.481   0.208  12.270  0.5179  0.9186 -0.0255
19171TIP3   OH279003   0.695   1.105  15.954 -0.6040  0.2494 -0.3600
19171TIP3    H179004   0.744   1.132  16.031 -0.6969 -0.2730 -0.1112
19171TIP3    H279005   0.604   1.097  15.985 -0.8502  1.1631 -0.8028
19172TIP3   OH279006   4.008   2.555  12.068  0.2642  0.6287  0.2577
19172TIP3    H179007   3.984   2.471  12.108 -1.4360  0.0502 -1.8112
19172TIP3    H279008   3.952   2.619  12.113 -2.2113 -0.1239 -1.5317
19173TIP3   OH279009   2.238   1.993  15.664  0.4018 -0.5771  0.2075
19173TIP3    H179010   2.178   1.926  15.631  0.6692 -1.3550  1.2284
19173TIP3    H279011   2.200   2.076  15.635 -1.1034 -1.0549  0.7120
19174TIP3   OH279012   0.422   3.686  15.270  0.4442  0.0473 -0.0159
19174TIP3    H179013   0.382   3.713  15.352 -0.0287 -1.1756  0.1678
19174TIP3    H279014   0.414   3.763  15.213 -0.4839  0.4354  0.6220
19175TIP3   OH279015   5.264   6.251  16.931 -0.4190  0.0373  0.1475
19175TIP3    H179016   5.334   6.314  16.915  1.5180 -1.1326  3.1879
19175TIP3    H279017   5.196   6.301  16.977  0.1151  0.4036  0.5465
19176TIP3   OH279018   0.315   4.106   0.210 -0.0823 -0.2760 -0.1455
19176TIP3    H179019   0.249   4.043   0.181  0.7660 -1.7581  0.9996
19176TIP3    H279020   0.265   4.173   0.257 -0.7973 -1.5870  1.0775
19177TIP3   OH279021   1.897   4.280  16.151 -0.4964  0.6226  0.5216
19177TIP3    H179022   1.903   4.187  16.174 -0.5476  0.3151 -0.6606
19177TIP3    H279023   1.834   4.283  16.080  0.6200  1.3692 -0.4735
19178TIP3   OH279024   6.239   3.139  16.969  0.0623 -0.2865  0.0186
19178TIP3    H179025   6.301   3.118  17.039 -0.4415  0.4074  0.6814
19178TIP3    H279026   6.295   3.158  16.893  0.6127 -0.9885  0.2339
19179TIP3   OH279027   5.067   2.546  13.377  0.2125  0.2957  0.1872
19179TIP3    H179028   4.987   2.520  13.422  0.4858 -0.4912  0.2358
19179TIP3    H279029   5.070   2.491  13.299 -0.9078  2.5186 -1.5435
19180TIP3   OH279030   3.311   0.872  12.597  0.0677  0.0448  0.1326
19180TIP3    H179031   3.330   0.966  12.604  1.3273 -0.1603 -0.2884
19180TIP3    H279032   3.332   0.850  12.507 -0.4206 -0.6086  0.1723
19181TIP3   OH279033   1.800   6.263  11.296  0.3728 -0.3455 -0.1301
19181TIP3    H179034   1.843   6.341  11.333  1.0737 -0.6708 -0.2562
19181TIP3    H279035   1.870   6.215  11.253 -0.1206 -0.8906 -0.3306
19182TIP3   OH279036   1.907   4.808  14.303  0.7025 -0.0620  0.5063
19182TIP3    H179037   1.993   4.776  14.330  0.1758 -0.9478  1.2249
19182TIP3    H279038   1.899   4.782  14.212  1.0474 -0.3137  0.5457
19183TIP3   OH279039   0.321   5.996  10.265 -0.3953  0.1331  0.4882
19183TIP3    H179040   0.350   5.905  10.255  0.0259  0.3793 -0.6751
19183TIP3    H279041   0.243   6.003  10.210  0.9208  1.0542 -1.3529
19184TIP3   OH279042   3.353   1.831  14.264  0.2930  1.0230 -0.0834
19184TIP3    H179043   3.317   1.857  14.179  2.2027 -0.8058 -1.5610
19184TIP3    H279044   3.447   1.850  14.257  1.1201 -2.3214  0.1911
19185TIP3   OH279045   3.900   0.729   5.638  0.0222  0.0622  0.3152
19185TIP3    H179046   3.968   0.723   5.705 -0.6976  0.5754  1.1059
19185TIP3    H279047   3.893   0.640   5.603 -0.3942 -0.4788  1.7240
19186TIP3   OH279048   5.678   1.404  16.895  0.3410  0.0336  0.3577
19186TIP3    H179049   5.594   1.451  16.901  1.0980  1.2200  2.3050
19186TIP3    H279050   5.685   1.356  16.977  1.5634 -0.0745  0.2082
19187TIP3   OH279051   3.332   0.571  15.914  0.1083  0.0412 -0.3462
19187TIP3    H179052   3.364   0.537  15.831 -1.9614  0.1741 -1.2845
19187TIP3    H279053   3.328   0.495  15.972  0.6228 -0.2481 -0.6851
19188TIP3   OH279054   3.963   2.040   0.158 -0.7546  0.4899  0.3438
19188TIP3    H179055   3.969   2.130   0.189  1.2785  0.2236  0.9062
19188TIP3    H279056   3.880   2.035   0.111 -0.7535  2.7329  0.0188
19189TIP3   OH279057   3.619   2.958  16.597  0.2077  0.3674  0.1544
19189TIP3    H179058   3.601   2.872  16.633 -0.9253  1.1646  1.5956
19189TIP3    H279059   3.712   2.955  16.572  0.4460 -0.9287  1.1252
19190TIP3   OH279060   3.947   2.456   0.982  0.4221 -0.3981  0.0680
19190TIP3    H179061   3.961   2.393   1.052  0.2595 -0.5320 -0.0196
19190TIP3    H279062   4.022   2.516   0.988  0.3464 -0.3384  0.4293
19191TIP3   OH279063   4.495   5.796   6.002  0.0156 -0.0576  0.2927
19191TIP3    H179064   4.567   5.773   6.060 -1.1119  1.2759  2.3202
19191TIP3    H279065   4.441   5.856   6.053 -1.9348 -0.1194 -1.5721
19192TIP3   OH279066   3.594   4.193   2.059  0.1357 -0.2316  0.1707
19192TIP3    H179067   3.686   4.166   2.054  0.3360  0.3434  0.6526
19192TIP3    H279068   3.558   4.174   1.972  0.7511 -0.2959 -0.0706
19193TIP3   OH279069   0.671   6.037  11.072 -0.1907  0.0342  0.2272
19193TIP3    H179070   0.624   6.121  11.071 -0.7248 -0.2631 -0.3225
19193TIP3    H279071   0.633   5.988  10.999 -0.5337 -1.0461  1.1044
19194TIP3   OH279072   4.182   3.648  12.069 -0.0305 -0.5030 -0.0329
19194TIP3    H179073   4.210   3.738  12.053 -1.0618 -0.3521 -1.1563
19194TIP3    H279074   4.122   3.654  12.143 -0.9721 -0.0711 -0.8051
19195TIP3   OH279075   6.589   2.984   5.108 -0.2652 -0.2312  0.2071
19195TIP3    H179076   6.575   3.000   5.015  0.7444 -2.2157 -0.3244
19195TIP3    H279077   6.664   2.925   5.112  0.1320  0.3320  2.3246
19196TIP3   OH279078   0.498   5.416   1.379 -0.4796 -0.0275 -0.6006
19196TIP3    H179079   0.589   5.442   1.394 -0.3557 -1.3219  1.2845
19196TIP3    H279080   0.487   5.337   1.432 -2.4595 -0.4039 -1.4983
19197TIP3   OH279081   4.832   1.239   0.415 -0.0871  0.2935 -0.2930
19197TIP3    H179082   4.834   1.213   0.323 -0.4325 -2.4698  0.4175
19197TIP3    H279083   4.759   1.301   0.420  0.1110  0.7088 -1.9080
19198TIP3   OH279084   2.607   2.701   4.168  0.2002  0.0438  0.3128
19198TIP3    H179085   2.651   2.634   4.221  1.8148 -0.1579 -1.1817
19198TIP3    H279086   2.587   2.657   4.086 -1.6060  0.5581  0.4281
19199TIP3   OH279087   3.604   4.548  10.599  0.0167  0.1376  0.2643
19199TIP3    H179088   3.660   4.626  10.605  0.3498 -0.1461  0.9782
19199TIP3    H279089   3.610   4.521  10.508 -0.2264  1.0399 -0.0305
19200TIP3   OH279090   0.412   1.074   4.153  0.7251  0.4485 -0.2332
19200TIP3    H179091   0.500   1.050   4.184  0.3956 -0.4080  0.0732
19200TIP3    H279092   0.413   1.169   4.149  2.1360  0.4333 -1.5858
19201TIP3   OH279093   0.844   6.430   6.096  0.2178 -0.3095 -0.5055
19201TIP3    H179094   0.909   6.360   6.088 -0.0019 -0.5578 -0.1464
19201TIP3    H279095   0.835   6.465   6.007  0.7302 -0.3702 -0.5878
19202TIP3   OH279096   6.585   0.939  11.033 -0.3213  0.6008  0.0337
19202TIP3    H179097   6.667   0.945  10.983 -0.9639 -0.4719 -1.2100
19202TIP3    H279098   6.517   0.937  10.967 -1.1299 -2.4169  0.8021
19203TIP3   OH279099   5.362   5.503   4.528 -0.1451  0.1213 -0.2021
19203TIP3    H179100   5.317   5.528   4.609  1.3513  0.0068  0.7079
19203TIP3    H279101   5.449   5.540   4.537  0.6139 -1.3836 -0.9668
19204TIP3   OH279102   1.253   5.399  12.024 -0.2624 -0.7398 -0.4691
19204TIP3    H179103   1.200   5.372  11.949  0.6886 -1.9699 -0.7338
19204TIP3    H279104   1.228   5.340  12.094 -2.8443  1.8488  0.9977
19205TIP3   OH279105   3.149   4.172   0.973  0.1879  0.0399  0.5855
19205TIP3    H179106   3.058   4.189   0.994 -0.3439 -0.1285 -1.3806
19205TIP3    H279107   3.175   4.246   0.918  1.0281 -0.2647  0.5607
19206TIP3   OH279108   1.052   2.142   3.313  0.2047 -0.2991 -0.1794
19206TIP3    H179109   0.966   2.181   3.294 -0.1763 -0.5278  0.9873
19206TIP3    H279110   1.108   2.173   3.243 -0.4371  1.2166 -0.0603
19207TIP3   OH279111   4.886   3.741   1.826 -0.7671 -0.0903 -0.0683
19207TIP3    H179112   4.856   3.701   1.908  0.3390  0.9073  0.8610
19207TIP3    H279113   4.864   3.676   1.759  0.2631 -1.9292  1.2778
19208TIP3   OH279114   5.368   0.086   3.062  0.4429  0.1218  0.2786
19208TIP3    H179115   5.292   0.131   3.099 -0.6631 -1.5612  0.2069
19208TIP3    H279116   5.342   0.065   2.972  0.7441 -0.9498  0.4227
19209TIP3   OH279117   4.954   3.709  11.724  0.1678 -0.6886 -0.3680
19209TIP3    H179118   4.992   3.714  11.636 -1.2576 -1.2031 -1.0412
19209TIP3    H279119   5.022   3.667  11.777  0.8323 -0.8986 -1.3607
19210TIP3   OH279120   4.262   2.862   3.707 -0.1142 -0.2008 -0.1619
19210TIP3    H179121   4.337   2.807   3.682  2.9506  3.6700 -0.3736
19210TIP3    H279122   4.250   2.846   3.800  0.7258 -1.1779 -0.2042
19211TIP3   OH279123   1.397   0.286   5.463 -0.1034  0.6313  0.5221
19211TIP3    H179124   1.338   0.218   5.494  0.5486  0.2975  1.0613
19211TIP3    H279125   1.340   0.362   5.449 -0.4981  0.6839  2.2016
19212TIP3   OH279126   5.504   1.592   4.717  0.2528  0.1333  0.3058
19212TIP3    H179127   5.599   1.582   4.720  0.6545  2.4533 -1.6094
19212TIP3    H279128   5.483   1.594   4.623 -1.4135  1.4610  0.6468
19213TIP3   OH279129   3.040   4.501  13.339 -0.0546  0.1866  0.3593
19213TIP3    H179130   3.072   4.583  13.375 -1.1627  0.2618  1.1997
19213TIP3    H279131   3.002   4.525  13.254 -4.6994  1.5034  2.5220
19214TIP3   OH279132   0.264   2.708  14.286  0.6027  0.7704 -1.1094
19214TIP3    H179133   0.239   2.618  14.306  1.3217  0.5675 -1.0763
19214TIP3    H279134   0.217   2.728  14.205 -0.9541  0.9950 -0.1971
19215TIP3   OH279135   3.296   1.354  11.803 -0.4642  0.4008 -0.1282
19215TIP3    H179136   3.375   1.329  11.755  0.1760  1.4503  0.3215
19215TIP3    H279137   3.330   1.389  11.886 -1.3617  1.4368 -0.1764
19216TIP3   OH279138   1.024   3.504  13.666 -0.9438 -0.7391  0.1258
19216TIP3    H179139   1.085   3.473  13.599 -1.5713 -2.2906  0.2162
19216TIP3    H279140   0.983   3.581  13.628  0.8889  0.2327 -0.0170
19217TIP3   OH279141   1.689   3.215  11.857  0.5003 -0.9017 -0.0788
19217TIP3    H179142   1.738   3.134  11.867 -0.5819 -1.6010 -0.2277
19217TIP3    H279143   1.736   3.265  11.791  1.7255 -0.9623  0.7206
19218TIP3   OH279144   3.686   0.277  11.017  0.0809 -0.3719 -0.5168
19218TIP3    H179145   3.619   0.218  11.051 -1.3314  1.5676  0.2163
19218TIP3    H279146   3.645   0.319  10.942  0.3176  1.0601  0.1205
19219TIP3   OH279147   1.133   1.908   5.711  0.6033  0.2985 -0.4358
19219TIP3    H179148   1.214   1.859   5.693  0.1208 -1.1697  1.0880
19219TIP3    H279149   1.096   1.925   5.624  1.9248 -0.0889 -1.1096
19220TIP3   OH279150   3.697   1.964  11.200 -0.0860  0.0237 -0.0585
19220TIP3    H179151   3.698   2.049  11.156 -0.1448 -0.1172 -0.3320
19220TIP3    H279152   3.632   1.913  11.153  0.0011 -0.1978  0.0594
19221TIP3   OH279153   5.531   6.476   4.331 -0.2091 -0.4229  0.6377
19221TIP3    H179154   5.450   6.438   4.296  1.2526 -2.3021 -0.9246
19221TIP3    H279155   5.572   6.404   4.379  1.5976 -0.2654 -0.5681
19222TIP3   OH279156   4.428   2.189   4.130 -0.6675  0.5153  0.3870
19222TIP3    H179157   4.459   2.278   4.143  1.6884 -0.3478  1.3551
19222TIP3    H279158   4.487   2.152   4.064 -1.6445 -0.3271 -0.0538
19223TIP3   OH279159   2.373   6.241  16.794 -0.4537  0.2103 -0.2185
19223TIP3    H179160   2.370   6.177  16.865  1.7831 -0.3385 -0.5304
19223TIP3    H279161   2.434   6.308  16.826  2.4275 -1.1816 -2.3749
19224TIP3   OH279162   5.656   3.189  16.743  0.5028  0.0977  0.1793
19224TIP3    H179163   5.594   3.201  16.672  0.1886 -1.1609  0.2150
19224TIP3    H279164   5.742   3.195  16.702  0.3207 -0.9067 -0.3823
19225TIP3   OH279165   4.112   3.985   2.245 -0.0179  0.1193 -0.2305
19225TIP3    H179166   4.045   3.986   2.313 -2.1852  0.3329 -2.2251
19225TIP3    H279167   4.074   3.931   2.175  1.0434  1.8087 -2.2220
19226TIP3   OH279168   3.411   1.986   2.831  0.8589 -0.2809  0.2197
19226TIP3    H179169   3.478   1.923   2.859  0.1481 -1.1086  0.0882
19226TIP3    H279170   3.381   1.954   2.746 -1.6127 -1.4859  1.4439
19227TIP3   OH279171   1.069   4.838  11.633  0.7193  0.0987 -0.5544
19227TIP3    H179172   1.033   4.899  11.569  1.6305  1.6869  0.3879
19227TIP3    H279173   0.993   4.795  11.671 -0.0101  1.2201 -0.7095
19228TIP3   OH279174   5.393   3.518   3.536  0.1087  0.3207 -0.1355
19228TIP3    H179175   5.428   3.438   3.497  0.6116  0.8401 -0.7648
19228TIP3    H279176   5.345   3.487   3.613  1.9272 -0.4070  0.7557
19229TIP3   OH279177   2.645   1.331  14.053  0.2596 -0.2929  0.4562
19229TIP3    H179178   2.680   1.246  14.027 -1.3383 -1.3213  1.4678
19229TIP3    H279179   2.641   1.328  14.148 -0.6369  0.5588  0.4651
19230TIP3   OH279180   3.370   5.054  12.790 -0.1703  0.1699 -0.0908
19230TIP3    H179181   3.376   4.981  12.729  0.1869 -0.5255  0.7596
19230TIP3    H279182   3.277   5.074  12.796 -0.2069  0.2558 -0.8614
19231TIP3   OH279183   6.463   0.590   3.554 -0.1121  0.1509 -0.5573
19231TIP3    H179184   6.487   0.640   3.477 -1.1586  0.7952 -0.4932
19231TIP3    H279185   6.513   0.630   3.625  1.5994 -1.0666 -1.0172
19232TIP3   OH279186   3.810   4.959   6.001 -0.0228 -0.0410 -0.4736
19232TIP3    H179187   3.838   4.941   6.090  0.7206 -0.7042 -0.8379
19232TIP3    H279188   3.727   4.912   5.992  1.4289 -2.6445 -1.1149
19233TIP3   OH279189   5.949   2.705   0.370  0.3098 -0.1754 -0.1478
19233TIP3    H179190   5.952   2.642   0.299 -1.2759 -0.6020  0.1299
19233TIP3    H279191   5.996   2.781   0.337  1.4748 -1.1599 -0.8182
19234TIP3   OH279192   5.648   2.288  12.293 -0.2862 -0.7742 -0.6233
19234TIP3    H179193   5.684   2.296  12.381 -0.0208 -0.5170 -0.7511
19234TIP3    H279194   5.725   2.290  12.235 -0.5473  0.9739 -0.9709
19235TIP3   OH279195   1.756   2.183   0.854 -0.3127 -0.0329 -0.0882
19235TIP3    H179196   1.815   2.166   0.927 -0.4701  0.2594  0.1078
19235TIP3    H279197   1.814   2.201   0.779 -0.1517  0.5000  0.1587
19236TIP3   OH279198   1.675   2.454  11.960  0.9665 -0.5131  0.3670
19236TIP3    H179199   1.763   2.442  11.926  0.0440 -0.0474 -2.4969
19236TIP3    H279200   1.650   2.542  11.933 -1.1478 -1.4363 -1.0495
19237TIP3   OH279201   2.819   0.101   3.704 -0.0685 -0.1735 -0.3085
19237TIP3    H179202   2.758   0.104   3.631 -0.1920  0.6357 -0.1785
19237TIP3    H279203   2.801   0.017   3.747 -0.7121 -0.1848 -0.5899
19238TIP3   OH279204   4.514   4.334  12.443  0.1062 -0.4098  0.0835
19238TIP3    H179205   4.523   4.255  12.496  0.2606  1.0038  2.2855
19238TIP3    H279206   4.593   4.336  12.389 -0.9391 -2.8676 -1.7201
19239TIP3   OH279207   2.372   1.547   2.855  0.0722  0.2017 -0.2495
19239TIP3    H179208   2.296   1.577   2.904 -0.7662 -0.9560 -0.8103
19239TIP3    H279209   2.441   1.540   2.921  0.1048  2.5031  0.0519
19240TIP3   OH279210   6.816   2.021  12.982  0.5175 -0.4330 -0.4031
19240TIP3    H179211   6.783   2.110  12.988  0.1469 -0.6341  0.7764
19240TIP3    H279212   6.799   1.983  13.069  0.1207 -1.8362 -1.0718
19241TIP3   OH279213   4.526   4.264   5.275 -0.5056 -0.5089  0.2122
19241TIP3    H179214   4.455   4.327   5.264  0.8994  0.9756 -0.6757
19241TIP3    H279215   4.570   4.263   5.190  1.4945 -0.1955  1.2063
19242TIP3   OH279216   1.727   3.612  15.082 -0.4390 -0.0217  0.3637
19242TIP3    H179217   1.805   3.572  15.044  0.5374  1.7808  0.3272
19242TIP3    H279218   1.738   3.601  15.176 -0.0816  0.2910  0.3631
19243TIP3   OH279219   6.081   3.323  14.496 -0.5001 -0.2075 -0.4281
19243TIP3    H179220   6.083   3.266  14.419 -0.0153  0.5422 -0.9837
19243TIP3    H279221   6.108   3.266  14.568  3.1604 -0.0119 -1.4504
19244TIP3   OH279222   6.116   2.344  12.942 -0.0610 -0.7341  0.2410
19244TIP3    H179223   6.143   2.432  12.969 -1.0910 -0.2380 -0.2648
19244TIP3    H279224   6.057   2.314  13.011 -3.7117  1.0437 -1.7804
19245TIP3   OH279225   6.231   3.957  12.921  0.3569 -0.0306 -0.0452
19245TIP3    H179226   6.218   3.862  12.922 -0.1400  0.0272 -0.5079
19245TIP3    H279227   6.291   3.973  12.848  0.4182  0.0121  0.0145
19246TIP3   OH279228   2.624   4.209   1.115  0.1979 -0.3725 -0.9238
19246TIP3    H179229   2.528   4.210   1.110  0.2111  1.0191 -1.2518
19246TIP3    H279230   2.644   4.144   1.181 -1.0128 -0.1519 -0.3211
19247TIP3   OH279231   2.808   5.446  13.764 -0.0611  0.5610 -0.1855
19247TIP3    H179232   2.795   5.508  13.836  0.8015 -0.8823  1.3012
19247TIP3    H279233   2.859   5.495  13.700 -0.4757  1.7727  0.3709
19248TIP3   OH279234   3.090   3.120  14.290 -0.2115 -0.9631 -0.4182
19248TIP3    H179235   3.118   3.031  14.273 -0.1103 -1.0059 -0.0358
19248TIP3    H279236   3.062   3.120  14.381  0.5876 -0.4053 -0.1536
19249TIP3   OH279237   5.700   2.989   2.318 -0.4190  0.1696  0.2390
19249TIP3    H179238   5.621   2.954   2.276  0.0776 -0.0787 -0.5177
19249TIP3    H279239   5.668   3.041   2.391 -1.2140 -1.4519  1.1054
19250TIP3   OH279240   0.976   0.180  14.209  0.3391  0.1336 -0.3189
19250TIP3    H179241   0.937   0.167  14.296  1.3920  0.6381  0.2499
19250TIP3    H279242   1.062   0.139  14.216  0.6481  0.6687 -0.9506
19251TIP3   OH279243   2.959   5.640  13.593 -0.1406  0.1235 -0.4333
19251TIP3    H179244   2.990   5.706  13.655 -1.8440  0.5603 -0.0133
19251TIP3    H279245   3.000   5.664  13.510  1.7621 -0.1617  0.3715
19252TIP3   OH279246   1.994   4.680  15.595  0.2185  0.7789 -0.5237
19252TIP3    H179247   2.001   4.677  15.691 -1.7219 -1.7957 -0.3318
19252TIP3    H279248   2.079   4.649  15.564  0.1517 -0.5435  0.4933
19253TIP3   OH279249   3.696   5.382  12.274  0.5621 -0.8562 -0.0349
19253TIP3    H179250   3.765   5.432  12.230 -1.0112  1.5082  0.0377
19253TIP3    H279251   3.665   5.320  12.208  0.8040  0.0403 -1.0107
19254TIP3   OH279252   3.157   3.497  12.803  0.2246  0.1879  0.3108
19254TIP3    H179253   3.104   3.520  12.880  1.5205 -1.2817  1.7273
19254TIP3    H279254   3.093   3.475  12.735 -0.9653  1.8612  0.8261
19255TIP3   OH279255   1.438   6.087   0.055  0.0683  0.1708  0.3350
19255TIP3    H179256   1.496   6.162   0.054  0.2277  0.0426 -0.4932
19255TIP3    H279257   1.358   6.117   0.012 -1.2089  0.8833  2.9672
19256TIP3   OH279258   5.709   0.158   0.653  0.1712  0.0149 -0.9933
19256TIP3    H179259   5.645   0.108   0.602  0.7287 -1.6628 -0.1196
19256TIP3    H279260   5.657   0.204   0.718 -0.1321 -2.8551  1.0007
19257TIP3   OH279261   3.619   6.684  11.106  0.2096 -0.9035  0.4047
19257TIP3    H179262   3.592   6.597  11.134 -0.4061 -0.7671  0.2660
19257TIP3    H279263   3.561   6.704  11.032  1.1987 -0.8979 -0.3976
19258TIP3   OH279264   2.838   0.639  14.480  0.2666  0.3050 -0.5512
19258TIP3    H179265   2.876   0.570  14.534  1.1343  0.2243 -1.2380
19258TIP3    H279266   2.907   0.661  14.417  0.2227  2.1902  0.0025
19259TIP3   OH279267   5.871   0.203  16.910 -0.5401 -0.3075  0.1553
19259TIP3    H179268   5.842   0.115  16.886 -2.1155  0.2531 -0.1386
19259TIP3    H279269   5.873   0.203  17.006  4.1239 -2.0396  0.2761
19260TIP3   OH279270   6.665   5.960   5.291 -0.3843  0.1735 -0.2028
19260TIP3    H179271   6.658   5.885   5.232 -1.9258  0.4755 -0.4484
19260TIP3    H279272   6.698   5.923   5.373 -0.2581 -0.6018 -0.5899
19261TIP3   OH279273   1.543   4.608  11.575 -0.2191  0.4980 -0.2184
19261TIP3    H179274   1.553   4.545  11.647  1.4818  0.1724 -0.7097
19261TIP3    H279275   1.506   4.686  11.617 -0.2793 -0.0579  0.8014
19262TIP3   OH279276   1.969   1.616   2.503 -0.0577  0.7048 -0.2210
19262TIP3    H179277   1.969   1.520   2.495 -2.7827  0.7167 -1.2022
19262TIP3    H279278   2.016   1.647   2.426 -0.4787  0.1812 -0.6927
19263TIP3   OH279279   4.322   4.584  15.244 -0.2775 -0.2050 -0.5317
19263TIP3    H179280   4.326   4.507  15.188 -0.2400  0.0197 -0.8401
19263TIP3    H279281   4.410   4.592  15.281 -0.6427 -1.1247  0.6150
19264TIP3   OH279282   3.814   2.999  15.615  0.1887  0.7705 -0.0816
19264TIP3    H179283   3.718   3.001  15.606  0.1782  0.6179 -0.0023
19264TIP3    H279284   3.837   3.087  15.644  0.1335  0.9963 -0.6913
19265TIP3   OH279285   2.065   4.118   4.908 -0.6939  0.0858 -0.1458
19265TIP3    H179286   2.140   4.151   4.857 -0.6985 -1.2759 -1.0799
19265TIP3    H279287   1.999   4.187   4.900 -0.4771  0.1693 -1.5181
19266TIP3   OH279288   0.598   2.546   2.154 -0.3672 -0.1403 -0.1619
19266TIP3    H179289   0.583   2.517   2.244  1.0471 -1.0029 -0.1758
19266TIP3    H279290   0.516   2.527   2.109 -0.6036 -1.0661  0.6180
19267TIP3   OH279291   1.221   6.827  11.117 -0.0279  0.0896 -0.0388
19267TIP3    H179292   1.140   6.851  11.162  0.8604  1.5927  0.8220
19267TIP3    H279293   1.289   6.830  11.185  1.0520  0.7024 -1.0995
19268TIP3   OH279294   5.477   1.499   3.676 -0.2495  0.2265  0.2083
19268TIP3    H179295   5.400   1.547   3.646  0.5879 -0.2684 -3.0611
19268TIP3    H279296   5.546   1.564   3.678  0.6477 -0.4419 -3.2362
19269TIP3   OH279297   5.173   3.533  11.797  0.3041  0.1933 -0.0731
19269TIP3    H179298   5.180   3.452  11.846  0.9130  0.8096  0.8928
19269TIP3    H279299   5.184   3.507  11.705 -2.3284 -1.1721 -0.0957
19270TIP3   OH279300   0.405   6.620   0.035 -0.0616  0.5999 -0.1399
19270TIP3    H179301   0.444   6.696  -0.008 -1.1608  1.2231 -0.0760
19270TIP3    H279302   0.410   6.550  -0.030 -2.0064  1.6082 -1.5028
19271TIP3   OH279303   3.376   1.314  14.330 -0.2000  0.1927  0.1533
19271TIP3    H179304   3.349   1.253  14.399 -0.1566  2.6633  2.5450
19271TIP3    H279305   3.296   1.359  14.305  0.0953  0.6472  0.0119
19272TIP3   OH279306   5.357   6.495  10.926 -0.0349  0.2044  0.1119
19272TIP3    H179307   5.366   6.583  10.965  0.4322  0.6464 -0.9644
19272TIP3    H279308   5.263   6.485  10.911 -0.0720  0.5999  0.0632
19273TIP3   OH279309   3.945   6.058  12.957 -0.4510 -0.4626 -0.1137
19273TIP3    H179310   3.909   6.140  12.923  1.2201  0.8435  1.1093
19273TIP3    H279311   3.870   6.012  12.993 -1.1461  1.5017  1.0786
19274TIP3   OH279312   0.972   0.084  12.279 -0.2361  0.1428 -0.2975
19274TIP3    H179313   1.041   0.140  12.314 -0.1087 -0.2681  0.1156
19274TIP3    H279314   1.019   0.011  12.238 -0.4053  0.2640 -0.7152
19275TIP3   OH279315   3.667   4.565   4.177  0.4210  0.1127 -0.1827
19275TIP3    H179316   3.717   4.642   4.150 -1.1724  0.8908 -1.0400
19275TIP3    H279317   3.729   4.493   4.169  1.9210  1.2664  0.5442
19276TIP3   OH279318   6.380   6.697  16.242 -0.4351 -0.6244 -0.2859
19276TIP3    H179319   6.475   6.703  16.234 -0.5757 -1.3258 -3.7926
19276TIP3    H279320   6.347   6.782  16.214 -0.8862 -1.0032 -0.9241
19277TIP3   OH279321   4.386   3.465  11.561 -0.1469 -0.1969 -0.2784
19277TIP3    H179322   4.443   3.414  11.618  1.4682  1.7840 -0.0109
19277TIP3    H279323   4.425   3.456  11.474  0.3714  0.8211 -0.1677
19278TIP3   OH279324   0.495   1.596  16.217 -0.1811 -0.1032  0.0615
19278TIP3    H179325   0.548   1.562  16.290 -1.7859 -0.9525  0.8782
19278TIP3    H279326   0.555   1.654  16.170  1.2957 -0.5453  1.2909
19279TIP3   OH279327   6.778   3.674   2.572  0.7203 -0.4839  0.1625
19279TIP3    H179328   6.776   3.769   2.581 -0.0841 -0.4961  0.2067
19279TIP3    H279329   6.871   3.652   2.568  0.9038  0.4775 -1.7879
19280TIP3   OH279330   2.025   3.163   3.524  0.5324  0.4041 -0.4430
19280TIP3    H179331   2.014   3.155   3.429  2.3046  0.8381 -0.7225
19280TIP3    H279332   2.007   3.076   3.558  0.7388  0.0218 -1.2817
19281TIP3   OH279333   1.756   1.706   2.068 -0.3767  0.1734 -0.0038
19281TIP3    H179334   1.740   1.683   1.977 -3.1778  1.2587  0.1142
19281TIP3    H279335   1.818   1.779   2.064  0.4391 -0.5481 -0.9431
19282TIP3   OH279336   3.079   3.295  11.002 -0.2593  0.3724 -0.1410
19282TIP3    H179337   3.108   3.271  11.090 -1.4380  2.0506  0.7738
19282TIP3    H279338   3.031   3.219  10.970 -1.7222  0.5119  1.5943
19283TIP3   OH279339   2.122   5.667  16.380  0.0378 -0.8229 -0.2085
19283TIP3    H179340   2.159   5.686  16.466 -0.6376 -0.6033  0.0437
19283TIP3    H279341   2.062   5.594  16.395  1.4321 -2.1754 -0.8795
19284TIP3   OH279342   6.352   6.048  11.663 -0.3994  0.5925 -0.0301
19284TIP3    H179343   6.412   5.978  11.640 -0.5914  0.7023 -0.9077
19284TIP3    H279344   6.336   6.094  11.580 -0.8207  1.2389  0.4024
19285TIP3   OH279345   4.310   4.037  15.233 -0.3994  0.3706  0.2567
19285TIP3    H179346   4.284   4.129  15.229 -2.0216 -0.0723 -0.0725
19285TIP3    H279347   4.261   4.001  15.307  0.3989 -0.1893  0.5248
19286TIP3   OH279348   6.181   5.043  10.546  0.0271  0.3885 -0.4181
19286TIP3    H179349   6.235   5.064  10.469 -0.9369 -0.0072 -1.2254
19286TIP3    H279350   6.172   5.126  10.593 -0.5389  0.9525 -1.4947
19287TIP3   OH279351   2.760   4.682  15.363 -0.4296  0.4393  0.0862
19287TIP3    H179352   2.825   4.654  15.427  1.3764 -0.0811 -1.8605
19287TIP3    H279353   2.743   4.604  15.311 -1.0038  1.1086 -0.7636
19288TIP3   OH279354   0.439   4.227   3.417 -0.0645  0.2989 -0.5419
19288TIP3    H179355   0.462   4.164   3.485 -0.6098  0.0655 -0.5625
19288TIP3    H279356   0.411   4.305   3.464 -2.2003 -0.4681 -0.4099
19289TIP3   OH279357   1.026   4.619  14.801 -0.7211 -0.0070  0.0605
19289TIP3    H179358   1.069   4.601  14.885 -0.6052 -0.5418 -0.1075
19289TIP3    H279359   0.947   4.564  14.803 -0.8864  0.2265 -0.0441
19290TIP3   OH279360   2.529   1.275   4.831 -0.2838 -0.2971  0.5324
19290TIP3    H179361   2.546   1.351   4.775 -0.2770 -1.5420 -1.2093
19290TIP3    H279362   2.435   1.259   4.820 -0.1399 -0.9874  0.3154
19291TIP3   OH279363   5.588   3.362  13.797 -0.6381  0.0382  0.1242
19291TIP3    H179364   5.613   3.280  13.754  2.4519  0.5087  0.7479
19291TIP3    H279365   5.672   3.404  13.818 -2.0444  1.7830  2.8228
19292TIP3   OH279366   3.046   1.091  13.662 -0.4827  0.1527  0.3155
19292TIP3    H179367   3.079   1.167  13.710  1.5269 -0.4339 -0.0412
19292TIP3    H279368   3.085   1.099  13.575 -0.2218 -1.2668  0.2802
19293TIP3   OH279369   4.288   0.180  16.047 -0.0643 -0.1112 -0.2210
19293TIP3    H179370   4.234   0.214  16.118  0.6639 -1.9862  1.2997
19293TIP3    H279371   4.368   0.232  16.051  0.0165 -0.2777  0.4218
19294TIP3   OH279372   1.288   0.670  13.438  0.0532  0.4164 -0.6335
19294TIP3    H179373   1.280   0.603  13.506  3.9372  0.4182  0.0499
19294TIP3    H279374   1.274   0.752  13.485 -1.7882  0.2596 -0.8575
19295TIP3   OH279375   0.952   1.109  15.195  0.5595 -0.4474  0.1032
19295TIP3    H179376   0.932   1.029  15.147 -1.6645 -0.4505  0.8867
19295TIP3    H279377   0.996   1.079  15.275 -0.1466 -0.9001  0.3294
19296TIP3   OH279378   2.201   1.143   3.252 -0.0926  0.1483 -0.0567
19296TIP3    H179379   2.168   1.157   3.164 -0.2940  0.6883  0.1001
19296TIP3    H279380   2.296   1.149   3.244 -0.0331 -0.9880 -0.4368
19297TIP3   OH279381   5.409   6.415   3.920 -0.2062  0.3236 -0.8954
19297TIP3    H179382   5.322   6.442   3.891 -1.1285 -0.7749  0.6875
19297TIP3    H279383   5.431   6.340   3.864 -1.0962 -0.5259 -0.1536
19298TIP3   OH279384   0.019   5.487   0.723 -0.3028 -0.1787  0.2401
19298TIP3    H179385   0.005   5.581   0.723  0.0143 -0.1314  0.4683
19298TIP3    H279386   0.085   5.472   0.791 -1.4385 -0.7324  1.2569
19299TIP3   OH279387   5.791   0.123   0.951  0.1419  0.1539  0.1669
19299TIP3    H179388   5.837   0.196   0.994 -1.7350  2.8855 -2.1010
19299TIP3    H279389   5.831   0.117   0.864  0.0232 -1.3804  0.1871
19300TIP3   OH279390   5.527   3.673  12.917 -0.0718 -0.6397 -0.4432
19300TIP3    H179391   5.502   3.702  13.005 -1.3519 -0.9188 -0.6991
19300TIP3    H279392   5.466   3.602  12.897  1.2777 -1.7067 -0.9030
19301TIP3   OH279393   5.246   5.394  13.974  0.7396 -0.7013  0.1824
19301TIP3    H179394   5.184   5.424  13.908  3.5566 -3.0123 -3.9986
19301TIP3    H279395   5.301   5.470  13.992 -0.2646  0.0439  0.1554
19302TIP3   OH279396   3.519   4.288  11.257  0.1941  0.8359 -0.3775
19302TIP3    H179397   3.600   4.296  11.207  0.2154  0.1736 -0.4599
19302TIP3    H279398   3.495   4.195  11.250  1.3222  0.1978  2.5166
19303TIP3   OH279399   6.784   4.205  10.447  0.0043 -0.3908  0.6664
19303TIP3    H179400   6.750   4.267  10.383  0.2725 -1.5936 -0.6867
19303TIP3    H279401   6.849   4.255  10.497 -1.0800  0.9024  0.8422
19304TIP3   OH279402   1.620   2.703  15.218  0.0593 -0.1145  0.3495
19304TIP3    H179403   1.649   2.658  15.297  1.6942 -0.9159 -0.6635
19304TIP3    H279404   1.700   2.736  15.178 -0.9819  2.7472  0.4334
19305TIP3   OH279405   2.268   5.494   5.744 -0.4804  0.7602 -0.3198
19305TIP3    H179406   2.315   5.540   5.674  1.1192 -2.2761 -1.4170
19305TIP3    H279407   2.333   5.484   5.814 -1.1887  1.1932  0.4247
19306TIP3   OH279408   3.367   5.611   1.897 -0.5178 -0.3052 -0.0134
19306TIP3    H179409   3.393   5.528   1.857 -1.4660 -0.4932 -0.2495
19306TIP3    H279410   3.320   5.658   1.828 -0.6948  0.0866  0.3702
19307TIP3   OH279411   6.497   6.020  12.520  0.2257  0.1043  0.1791
19307TIP3    H179412   6.589   6.045  12.531  0.1040  0.5904  0.1155
19307TIP3    H279413   6.448   6.100  12.538 -0.0339  0.8015 -3.0268
19308TIP3   OH279414   0.563   3.519  15.069  0.6599 -0.3201 -0.4512
19308TIP3    H179415   0.657   3.520  15.091  0.2120 -0.5860  1.6945
19308TIP3    H279416   0.520   3.546  15.150 -1.1949 -1.3951 -1.0401
19309TIP3   OH279417   5.078   1.916   3.156  0.0261 -0.1916 -0.4683
19309TIP3    H179418   5.147   1.978   3.176 -1.2882  0.8957  0.9421
19309TIP3    H279419   5.033   1.952   3.080 -0.2360  0.1681 -0.1442
19310TIP3   OH279420   4.843   3.957  13.435  0.0751 -0.0464  0.2300
19310TIP3    H179421   4.776   3.978  13.500  0.9156  0.5788  0.9237
19310TIP3    H279422   4.797   3.958  13.351 -0.5679  1.4636  0.5789
19311TIP3   OH279423   6.787   2.444  11.270  0.4381  0.5590  0.2959
19311TIP3    H179424   6.834   2.463  11.189 -1.6869 -0.8139 -1.3912
19311TIP3    H279425   6.701   2.485  11.257 -0.0998 -0.0773  1.6729
19312TIP3   OH279426   1.826   0.418   1.342 -0.2008 -0.1287  0.4712
19312TIP3    H179427   1.741   0.434   1.384  1.0142  2.1496  2.3182
19312TIP3    H279428   1.826   0.476   1.266 -0.3644 -0.3307  0.3128
19313TIP3   OH279429   1.345   3.298   5.291  0.3329  0.1833  0.4842
19313TIP3    H179430   1.287   3.252   5.231  0.7507  0.5928 -0.2387
19313TIP3    H279431   1.287   3.358   5.338 -0.0541 -0.3983  0.7705
19314TIP3   OH279432   2.287   3.053  15.838 -0.3255  0.5389 -0.1690
19314TIP3    H179433   2.213   3.041  15.779 -0.5562  1.2523 -0.0415
19314TIP3    H279434   2.321   3.140  15.816  1.1991 -0.2274 -1.0178
19315TIP3   OH279435   1.307   3.622  14.753 -0.2178  0.7926  0.1056
19315TIP3    H179436   1.288   3.537  14.792  1.1388 -0.2217 -1.3229
19315TIP3    H279437   1.359   3.602  14.675 -0.2396  2.9089 -0.5231
19316TIP3   OH279438   3.179   3.713   5.952  0.2819  0.3795 -0.0535
19316TIP3    H179439   3.268   3.746   5.956 -0.6089  2.9023  0.3673
19316TIP3    H279440   3.160   3.709   5.858  0.4984  0.8019 -0.1171
19317TIP3   OH279441   2.603   0.828   4.284 -0.9496  0.4025 -0.8475
19317TIP3    H179442   2.577   0.748   4.330  0.5501 -0.1313 -0.8765
19317TIP3    H279443   2.553   0.898   4.326  0.9636  0.0950  2.2367
19318TIP3   OH279444   1.995   0.372  12.739 -0.1761 -0.4084  0.3426
19318TIP3    H179445   2.013   0.465  12.730  0.4534 -0.4037  1.4497
19318TIP3    H279446   1.911   0.367  12.783 -0.8268 -0.3911 -0.8606
19319TIP3   OH279447   2.169   5.944  13.378 -0.0887 -0.7470  0.0066
19319TIP3    H179448   2.236   5.951  13.310  1.9364  1.6795  2.0914
19319TIP3    H279449   2.207   5.884  13.443  0.7120  1.5245  1.7542
19320TIP3   OH279450   4.832   0.488  13.904  0.4800  0.5799  0.0954
19320TIP3    H179451   4.826   0.573  13.861 -0.6655 -0.0404 -1.0519
19320TIP3    H279452   4.902   0.443  13.857  0.1157  0.3825 -0.2694
19321TIP3   OH279453   5.847   0.128  15.057  0.0924 -0.0545 -0.1713
19321TIP3    H179454   5.776   0.181  15.021 -0.9697 -1.0626  0.3982
19321TIP3    H279455   5.859   0.162  15.146  1.0672  0.8121 -0.6088
19322TIP3   OH279456   0.400   6.583   1.641 -0.2914 -0.7816  0.6963
19322TIP3    H179457   0.451   6.626   1.573 -1.6478 -0.2280 -0.0019
19322TIP3    H279458   0.394   6.492   1.612 -1.1110 -0.4880 -0.1063
19323TIP3   OH279459   4.454   3.033   4.671 -0.8992 -0.3461 -0.1478
19323TIP3    H179460   4.475   2.958   4.728  0.1916 -0.6906 -0.9720
19323TIP3    H279461   4.372   3.008   4.629 -0.3211 -1.3094 -0.7550
19324TIP3   OH279462   1.198   4.999  16.066 -0.0229 -0.2178  0.4613
19324TIP3    H179463   1.158   4.914  16.047 -0.6371 -0.0000  0.7611
19324TIP3    H279464   1.225   4.993  16.158  0.4344 -0.2830  0.3261
19325TIP3   OH279465   5.862   4.311   4.685 -0.0190 -0.3065  0.1823
19325TIP3    H179466   5.851   4.371   4.759 -0.0746 -0.8718  0.6367
19325TIP3    H279467   5.957   4.303   4.674 -0.0128  0.3739 -0.3010
19326TIP3   OH279468   3.752   1.165  11.563  0.1351 -0.2478 -0.0082
19326TIP3    H179469   3.715   1.160  11.475  1.9133  1.1713 -0.9024
19326TIP3    H279470   3.803   1.085  11.572  0.0282 -0.3513 -0.3183
19327TIP3   OH279471   0.020   4.355  13.195 -0.2374  0.2557  0.7150
19327TIP3    H179472   0.000   4.333  13.286 -3.9312 -0.5099 -0.1107
19327TIP3    H279473  -0.040   4.427  13.174 -0.4068 -0.4330 -1.4217
19328TIP3   OH279474   1.413   0.890  15.250 -0.0175  0.1690  0.2617
19328TIP3    H179475   1.485   0.864  15.307  0.6285  1.7214  0.2093
19328TIP3    H279476   1.417   0.829  15.177  0.2168 -0.7737  1.0333
19329TIP3   OH279477   6.606   5.633  15.601  0.2872  0.0261  0.4816
19329TIP3    H179478   6.580   5.542  15.608 -0.5712  0.2670  0.5255
19329TIP3    H279479   6.636   5.643  15.510  0.0731 -0.2146  0.3862
19330TIP3   OH279480   0.259   1.695   4.207  0.2442 -0.3733  0.6341
19330TIP3    H179481   0.183   1.707   4.150  0.2759 -0.3249  0.6015
19330TIP3    H279482   0.272   1.601   4.210  1.1098 -0.3114 -0.5786
19331TIP3   OH279483   4.488   0.926   1.355 -0.0273  0.7560 -0.1369
19331TIP3    H179484   4.395   0.933   1.335 -0.2974 -0.1200  0.7352
19331TIP3    H279485   4.495   0.849   1.411  1.5496 -0.7143 -2.1586
19332TIP3   OH279486   3.379   3.613   4.635  0.4776  0.4284  0.2430
19332TIP3    H179487   3.297   3.613   4.587  0.0653  0.8473  0.9288
19332TIP3    H279488   3.418   3.698   4.616  0.0148  0.8513  1.1269
19333TIP3   OH279489   1.038   0.720   3.774  0.0718  0.0115  0.2045
19333TIP3    H179490   0.946   0.730   3.750  0.3345 -0.9163 -1.3680
19333TIP3    H279491   1.047   0.627   3.798  0.3736  0.3506  1.4663
19334TIP3   OH279492   0.133   5.997   3.678 -0.2500 -0.0257 -0.4285
19334TIP3    H179493   0.103   5.924   3.623 -0.7212  0.4749 -0.8444
19334TIP3    H279494   0.067   6.005   3.746  1.0170 -1.5252  1.0545
19335TIP3   OH279495   1.681   5.221   5.793 -0.3502 -0.0796 -0.0093
19335TIP3    H179496   1.614   5.191   5.731 -1.6101  2.1809  0.1255
19335TIP3    H279497   1.651   5.189   5.878 -1.9207  1.7032  0.1977
19336TIP3   OH279498   0.414   3.502   5.278 -0.8325  0.5882  0.1566
19336TIP3    H179499   0.448   3.590   5.264 -0.3966  0.1959 -1.4543
19336TIP3    H279500   0.384   3.474   5.192 -2.5175 -0.2211  0.9568
19337TIP3   OH279501   6.607   4.914  11.768 -0.0747 -0.5629  0.0941
19337TIP3    H179502   6.605   4.822  11.794  1.3572 -0.3942  0.8591
19337TIP3    H279503   6.638   4.961  11.845  0.9962  0.3451 -0.8467
19338TIP3   OH279504   1.526   5.011   5.001  0.0670  0.1209  0.0840
19338TIP3    H179505   1.593   4.963   5.050 -2.1016 -1.2403  1.9453
19338TIP3    H279506   1.533   5.101   5.034  1.0545  0.0440  0.1208
19339TIP3   OH279507   6.464   3.878  13.815 -0.0408  0.1129  0.3832
19339TIP3    H179508   6.375   3.882  13.780 -0.0893 -0.4377  0.4377
19339TIP3    H279509   6.516   3.933  13.755 -0.4059  0.3990  0.3290
19340TIP3   OH279510   3.510   5.449  15.085  0.1982  0.0457 -0.2973
19340TIP3    H179511   3.491   5.509  15.156 -1.1185 -3.5549  2.7138
19340TIP3    H279512   3.426   5.435  15.042 -0.0459 -1.3306  0.5667
19341TIP3   OH279513   1.894   6.291  11.751 -0.4021  0.1904 -0.0558
19341TIP3    H179514   1.803   6.304  11.728 -0.6095 -0.6500  0.2476
19341TIP3    H279515   1.937   6.265  11.670 -0.5004  0.2431 -0.1243
19342TIP3   OH279516   0.702   3.249   3.442  0.8149  0.5242 -0.4571
19342TIP3    H179517   0.616   3.273   3.477  1.5434  0.7365  1.3275
19342TIP3    H279518   0.710   3.298   3.360 -0.3899  1.2190 -0.1815
19343TIP3   OH279519   1.508   1.433  15.828 -0.0308  0.0625  0.5679
19343TIP3    H179520   1.527   1.397  15.915  1.4448 -0.6575 -0.0217
19343TIP3    H279521   1.588   1.418  15.778 -1.1399 -0.3039 -1.1718
19344TIP3   OH279522   3.430   0.945   5.728  0.1735 -0.0137 -0.1964
19344TIP3    H179523   3.409   0.991   5.809 -0.7501  1.6702 -1.3327
19344TIP3    H279524   3.525   0.934   5.731  0.2142  0.4773  0.8770
19345TIP3   OH279525   6.279   4.350  11.979 -0.6684 -0.0517 -0.0047
19345TIP3    H179526   6.342   4.315  12.042  0.6823  0.3918 -1.0681
19345TIP3    H279527   6.272   4.282  11.912  0.8442  1.0207 -1.3196
19346TIP3   OH279528   4.057   5.993   3.603 -0.1327  0.3347  0.5045
19346TIP3    H179529   4.119   5.930   3.638  1.9741  1.7537 -0.4809
19346TIP3    H279530   4.034   6.048   3.678  2.6390  1.9946  0.2688
19347TIP3   OH279531   5.781   5.017  14.009 -0.2224 -0.0786  0.2147
19347TIP3    H179532   5.791   5.037  13.916 -2.2801 -0.7994 -0.2143
19347TIP3    H279533   5.722   4.941  14.011 -1.8466  1.1386  2.1486
19348TIP3   OH279534   0.415   1.868   0.768 -0.0031  0.0357 -0.7303
19348TIP3    H179535   0.359   1.820   0.707  0.8943  0.6541 -2.0927
19348TIP3    H279536   0.386   1.840   0.854 -2.1909  0.0911 -1.3805
19349TIP3   OH279537   0.322   2.757   2.173  0.4906  0.0129  0.1272
19349TIP3    H179538   0.335   2.726   2.083 -0.9142  1.0965 -0.4783
19349TIP3    H279539   0.406   2.794   2.198  1.1455 -1.0487 -0.4253
19350TIP3   OH279540   6.755   5.442  12.394  0.5123 -0.4097 -0.0142
19350TIP3    H179541   6.715   5.364  12.357 -0.9330  0.5200 -0.4985
19350TIP3    H279542   6.806   5.480  12.322 -2.6300  1.6232 -1.3505
19351TIP3   OH279543   3.686   3.955  11.394  0.1666 -0.0184 -0.1162
19351TIP3    H179544   3.663   3.911  11.312  2.7544 -0.8818 -0.4684
19351TIP3    H279545   3.715   4.042  11.366 -1.0094  0.4642  0.1378
19352TIP3   OH279546   1.553   2.517   4.553  0.1395  0.5180  0.0269
19352TIP3    H179547   1.594   2.551   4.473  1.2055 -0.2195  0.2310
19352TIP3    H279548   1.626   2.510   4.615 -0.3516 -0.5710  0.4956
19353TIP3   OH279549   6.525   4.906   1.946 -0.1705 -0.4177 -0.0928
19353TIP3    H179550   6.454   4.851   1.978 -1.1749  0.2947 -1.0441
19353TIP3    H279551   6.566   4.854   1.877 -0.9589 -0.0890 -0.8193
19354TIP3   OH279552   3.627   1.357  14.213  0.2013  0.4159  0.2848
19354TIP3    H179553   3.628   1.284  14.150 -0.1730  0.2294  0.4947
19354TIP3    H279554   3.535   1.372  14.231  0.2558  1.1299  0.0362
19355TIP3   OH279555   3.618   6.038  13.896  0.1565 -0.4141  0.6099
19355TIP3    H179556   3.535   6.077  13.867  0.8295 -0.1692 -1.0663
19355TIP3    H279557   3.666   6.112  13.934  0.9026  0.1961 -1.3966
19356TIP3   OH279558   3.145   0.771   3.619 -0.4251  0.0727 -0.4884
19356TIP3    H179559   3.090   0.804   3.690 -0.2776 -2.3666  0.8731
19356TIP3    H279560   3.234   0.796   3.644 -0.4337 -0.2715 -0.1028
19357TIP3   OH279561   2.055   0.802   1.867  0.9052  0.2778 -0.1383
19357TIP3    H179562   2.147   0.780   1.850  1.1541  1.2334 -0.0921
19357TIP3    H279563   2.059   0.879   1.924  0.0828  1.2192 -1.3079
19358TIP3   OH279564   1.666   0.456  10.735 -0.8592 -0.2389 -0.0686
19358TIP3    H179565   1.692   0.393  10.803 -0.1051 -0.1068 -0.2269
19358TIP3    H279566   1.738   0.454  10.671 -0.6634  1.0161  0.0816
19359TIP3   OH279567   4.505   3.059  14.586 -0.0359 -0.2604  0.2539
19359TIP3    H179568   4.525   3.118  14.513 -1.4106  0.2706  0.2842
19359TIP3    H279569   4.519   2.971  14.550  1.0811  0.0394 -0.0820
19360TIP3   OH279570   6.431   4.745   4.850 -0.3202 -0.0279  0.5171
19360TIP3    H179571   6.398   4.656   4.842 -0.4197  0.0621 -0.1255
19360TIP3    H279572   6.387   4.780   4.927 -1.7708  0.0956 -0.3162
19361TIP3   OH279573   4.498   1.711  15.312 -0.5659 -0.3139 -0.5898
19361TIP3    H179574   4.521   1.794  15.354 -2.9808 -0.1905  0.7092
19361TIP3    H279575   4.561   1.648  15.348  1.0189  0.8324 -1.2569
19362TIP3   OH279576   6.689   6.458   0.758  0.8872  0.1742  0.1517
19362TIP3    H179577   6.742   6.396   0.810  0.1174 -2.0478 -1.5382
19362TIP3    H279578   6.742   6.474   0.680  1.1380  1.8668  0.6254
19363TIP3   OH279579   1.979   1.057   1.587  0.3084  0.0777  0.8693
19363TIP3    H179580   2.002   1.066   1.679  0.0107  0.4484  0.9087
19363TIP3    H279581   2.062   1.065   1.541  0.5003 -0.4326  1.1248
19364TIP3   OH279582   2.066   5.737   3.441  0.3203  0.4775 -0.3970
19364TIP3    H179583   2.074   5.787   3.360  0.0875  1.9766  0.4557
19364TIP3    H279584   2.014   5.793   3.499  1.9908  0.2698  1.4096
19365TIP3   OH279585   3.343   5.272  14.109  1.0532  0.4904 -0.5344
19365TIP3    H179586   3.321   5.322  14.188 -3.0369 -1.2504 -0.3756
19365TIP3    H279587   3.280   5.301  14.044  1.6714 -1.1047 -1.8977
19366TIP3   OH279588   2.448   2.320   0.913 -0.4009  0.6933 -0.0488
19366TIP3    H179589   2.521   2.258   0.909 -0.5739  0.5237 -0.8836
19366TIP3    H279590   2.478   2.390   0.972 -0.1424 -0.0982  0.7806
19367TIP3   OH279591   5.704   2.373  13.468  0.5202 -0.7997  0.0574
19367TIP3    H179592   5.753   2.298  13.503  0.3760 -0.5910  0.7173
19367TIP3    H279593   5.749   2.450  13.505 -0.3415 -0.6049  0.7363
19368TIP3   OH279594   4.427   3.065  16.169 -0.1267  0.8520  0.4749
19368TIP3    H179595   4.370   3.059  16.092 -0.3210  3.5717  0.3230
19368TIP3    H279596   4.367   3.062  16.243 -0.0841 -0.0774  0.4888
19369TIP3   OH279597   5.221   3.059  16.903  0.8156 -0.7311  0.2137
19369TIP3    H179598   5.284   3.129  16.892 -1.1272  1.2205  0.8602
19369TIP3    H279599   5.241   2.996  16.833  1.9303  0.9734 -1.0569
19370TIP3   OH279600   1.587   2.713   0.264  0.4336  0.2592 -0.0478
19370TIP3    H179601   1.589   2.720   0.360 -1.6405  2.1732 -0.0726
19370TIP3    H279602   1.532   2.637   0.247 -0.0417  0.5248  0.2841
19371TIP3   OH279603   3.018   4.257   4.222  0.1867  0.1708  0.1320
19371TIP3    H179604   3.104   4.250   4.181 -0.6852  0.2229 -1.7781
19371TIP3    H279605   2.957   4.275   4.150 -1.5261 -0.4800  1.3329
19372TIP3   OH279606   0.837   3.431   2.661  0.4477 -0.1175 -0.1705
19372TIP3    H179607   0.748   3.406   2.635  0.3472  0.1281 -0.0569
19372TIP3    H279608   0.867   3.357   2.714  0.1587 -0.0152  0.1414
19373TIP3   OH279609   5.652   1.662   0.947  0.2116 -0.3091 -0.2809
19373TIP3    H179610   5.655   1.571   0.974  1.3757 -0.1193  0.2620
19373TIP3    H279611   5.743   1.692   0.951 -0.3399  1.3322  1.1596
19374TIP3   OH279612   4.621   3.475   1.818  0.0958 -0.0506 -0.1789
19374TIP3    H179613   4.555   3.429   1.767 -0.7502 -0.7230  1.4753
19374TIP3    H279614   4.699   3.419   1.810 -0.3027 -0.6521  0.0472
19375TIP3   OH279615   3.607   4.409   4.451  0.0927  0.2068 -0.4464
19375TIP3    H179616   3.516   4.387   4.471  0.3042 -0.7276 -0.4621
19375TIP3    H279617   3.626   4.358   4.372  0.7868  0.0063 -0.1470
19376TIP3   OH279618   1.806   0.788  17.093 -0.0569 -0.7135 -0.0310
19376TIP3    H179619   1.712   0.804  17.105 -0.2564 -2.1996  0.5746
19376TIP3    H279620   1.816   0.694  17.107  1.6044 -0.4991  0.3735
19377TIP3   OH279621   1.987   1.830  14.486  0.2082 -0.7206  0.2590
19377TIP3    H179622   2.052   1.790  14.428  0.5709  0.0407  0.1293
19377TIP3    H279623   1.978   1.919  14.455  0.2628 -0.3525  1.2490
19378TIP3   OH279624   1.242   3.571  12.366  0.0177  0.3323  0.3606
19378TIP3    H179625   1.223   3.661  12.339  0.5205  0.0751 -0.9308
19378TIP3    H279626   1.321   3.548  12.317 -0.0741 -0.7949  0.7263
19379TIP3   OH279627   6.536   5.159  16.842 -0.5290  0.4222  0.1534
19379TIP3    H179628   6.472   5.181  16.774  0.6300  0.9432 -0.8233
19379TIP3    H279629   6.513   5.071  16.870 -1.6642  0.5998 -0.1647
19380TIP3   OH279630   0.868   4.978   6.786 -0.3002 -0.5520  1.1881
19380TIP3    H179631   0.786   5.009   6.746  0.6043  1.2954  0.6769
19380TIP3    H279632   0.844   4.894   6.826 -2.0954 -0.7712 -0.1928
19381TIP3   OH279633   5.495   0.741   6.020 -0.0089  0.2549  0.5875
19381TIP3    H179634   5.580   0.773   6.052  0.2062  3.1377 -2.3953
19381TIP3    H279635   5.517   0.660   5.973  0.8299  0.1857  1.0676
19382TIP3   OH279636   3.334   4.169   3.598 -0.7077 -0.5776  0.5750
19382TIP3    H179637   3.308   4.138   3.685 -0.8594 -1.6238  0.1681
19382TIP3    H279638   3.356   4.089   3.550  1.3954  0.1210  0.2838
19383TIP3   OH279639   1.100   3.761   3.817 -0.1296  0.0271 -0.3466
19383TIP3    H179640   1.018   3.742   3.862 -1.1077  2.5455 -0.8788
19383TIP3    H279641   1.153   3.682   3.828 -1.3183 -0.4648  2.8455
19384TIP3   OH279642   2.645   2.238  12.862 -0.0820  0.7650  0.2348
19384TIP3    H179643   2.727   2.252  12.817  0.5655 -0.5995  0.9280
19384TIP3    H279644   2.634   2.143  12.863 -1.8459  0.9269 -0.1454
19385TIP3   OH279645   4.707   5.799   2.437  0.2710  0.6369  0.0331
19385TIP3    H179646   4.729   5.747   2.513  0.4637 -1.1362 -1.1804
19385TIP3    H279647   4.613   5.782   2.423  0.1107  1.3741  0.1691
19386TIP3   OH279648   1.537   5.938   0.411 -0.3860  0.0690  0.2026
19386TIP3    H179649   1.523   5.863   0.352  2.4866 -0.9479  0.6510
19386TIP3    H279650   1.555   5.898   0.496  0.2659  1.3170  0.6689
19387TIP3   OH279651   1.627   6.555  13.422  0.3673  0.7239  0.3649
19387TIP3    H179652   1.547   6.548  13.475 -0.2752  0.4018 -0.6299
19387TIP3    H279653   1.664   6.639  13.448 -0.5436  1.1014  0.5078
19388TIP3   OH279654   6.732   6.707   2.765 -0.0834 -0.5788  0.4399
19388TIP3    H179655   6.807   6.648   2.770  1.1055  0.6123 -1.9061
19388TIP3    H279656   6.656   6.650   2.779  1.1605 -1.8282  2.7829
19389TIP3   OH279657   6.104   1.800   1.228  0.3435 -0.4443 -0.0567
19389TIP3    H179658   6.181   1.743   1.231  0.6859  0.0494  1.2966
19389TIP3    H279659   6.035   1.750   1.272  0.2301 -0.4011 -0.1840
19390TIP3   OH279660   1.169   5.854  15.763 -0.2859  0.1954  0.0022
19390TIP3    H179661   1.163   5.792  15.836 -0.6682  1.1424  0.7960
19390TIP3    H279662   1.084   5.897  15.761 -0.4370 -0.1092 -1.2995
19391TIP3   OH279663   0.040   2.447  13.861 -0.2407 -0.3350  0.1157
19391TIP3    H179664  -0.009   2.366  13.873  2.3380 -2.3876 -2.0005
19391TIP3    H279665  -0.020   2.504  13.812 -2.2130 -0.7610  1.9248
19392TIP3   OH279666   6.313   3.034   4.590 -0.0677 -0.1945  0.0267
19392TIP3    H179667   6.241   3.076   4.636 -0.0637 -0.7325  0.5371
19392TIP3    H279668   6.348   3.102   4.532 -1.9738 -0.3460 -1.3921
19393TIP3   OH279669   1.240   2.893   0.629  0.1034  0.0542 -0.3011
19393TIP3    H179670   1.169   2.953   0.608 -1.8598 -1.2762  2.0036
19393TIP3    H279671   1.254   2.844   0.548 -0.3686  1.5071 -1.3040
19394TIP3   OH279672   2.910   3.882   5.901 -0.1870 -0.1502  0.0136
19394TIP3    H179673   2.853   3.810   5.928 -0.6137 -0.2932 -1.2153
19394TIP3    H279674   2.962   3.846   5.829  1.3101  0.0538  0.9391
19395TIP3   OH279675   0.253   4.889  11.927  0.1857  0.2178 -0.4678
19395TIP3    H179676   0.318   4.957  11.908 -0.5706  1.1386  0.1775
19395TIP3    H279677   0.215   4.867  11.842 -0.7163  1.7943 -0.5008
19396TIP3   OH279678   6.011   1.264  10.972 -0.4077  0.0654 -0.6126
19396TIP3    H179679   6.048   1.176  10.972 -0.5156  0.0038  0.4957
19396TIP3    H279680   6.087   1.322  10.981 -0.3404  0.0908 -1.3014
19397TIP3   OH279681   2.740   3.384  12.626  0.2326 -0.5686  0.0459
19397TIP3    H179682   2.667   3.332  12.660 -1.5501  0.8979 -1.3399
19397TIP3    H279683   2.718   3.400  12.534  1.6618  1.0059 -0.0723
19398TIP3   OH279684   3.871   4.447  11.655  0.5158 -0.2297  0.4934
19398TIP3    H179685   3.942   4.421  11.597 -0.8266 -2.9189 -0.0975
19398TIP3    H279686   3.810   4.495  11.599 -0.9466 -3.1223 -0.5540
19399TIP3   OH279687   1.125   1.981  11.591 -0.4499 -0.5436  0.2030
19399TIP3    H179688   1.213   2.017  11.600 -0.7872  0.6924 -1.0676
19399TIP3    H279689   1.139   1.893  11.554  0.2444  0.1472 -1.2883
19400TIP3   OH279690   6.310   4.793   5.868  0.0580  0.0121  0.4665
19400TIP3    H179691   6.230   4.839   5.843  1.9819  1.6054 -3.8385
19400TIP3    H279692   6.299   4.705   5.832  1.0854  1.0188 -2.6282
19401TIP3   OH279693   4.491   0.158  14.827  0.6395  0.0571 -0.7860
19401TIP3    H179694   4.456   0.084  14.777  0.8484 -1.0214  0.5699
19401TIP3    H279695   4.426   0.174  14.895 -0.4468  2.5921 -2.3101
19402TIP3   OH279696   5.328   5.889  14.432 -0.1478  0.0081 -0.1026
19402TIP3    H179697   5.406   5.931  14.395 -0.5049 -1.4721 -2.7377
19402TIP3    H279698   5.289   5.842  14.359 -3.1607  0.1130  1.3091
19403TIP3   OH279699   4.652   2.437  15.412 -0.0437 -0.0836  0.2610
19403TIP3    H179700   4.691   2.353  15.388  1.1459  0.2438  0.9569
19403TIP3    H279701   4.558   2.421  15.414  0.1729 -1.3932  0.3542
19404TIP3   OH279702   1.966   6.470   1.028  0.8689  0.3921 -0.3262
19404TIP3    H179703   1.898   6.481   0.962 -0.2991  0.8305  0.8917
19404TIP3    H279704   1.962   6.378   1.052 -0.6809  0.7657  1.0925
19405TIP3   OH279705   3.622   0.564  13.779  0.0712 -0.0263  0.1406
19405TIP3    H179706   3.559   0.629  13.811  0.2144 -0.2004  0.7942
19405TIP3    H279707   3.644   0.593  13.691 -0.6476  0.2414  0.0375
19406TIP3   OH279708   4.588   6.714   1.926 -0.2013 -0.5979  0.1222
19406TIP3    H179709   4.521   6.669   1.978 -0.1975  0.6258  1.2518
19406TIP3    H279710   4.638   6.765   1.990 -1.8870  3.1814 -1.2465
19407TIP3   OH279711   5.746   6.450   4.770  0.1820  0.1896 -0.4771
19407TIP3    H179712   5.782   6.381   4.714 -0.0791 -0.3565  0.0157
19407TIP3    H279713   5.675   6.488   4.719 -1.7997 -2.0462  0.4320
19408TIP3   OH279714   3.735   3.684  13.482 -0.0414  0.1082  0.0880
19408TIP3    H179715   3.723   3.659  13.574  1.0065  0.0031  0.2061
19408TIP3    H279716   3.762   3.776  13.486  3.0811 -0.6806  0.1435
19409TIP3   OH279717   0.064   6.227   1.568 -0.0375 -0.0466  0.1603
19409TIP3    H179718   0.064   6.144   1.616  1.8393 -0.6988 -0.8497
19409TIP3    H279719  -0.028   6.242   1.545 -0.5900 -1.1272  1.5338
19410TIP3   OH279720   1.250   2.184  12.846 -0.3578  0.5205 -0.2422
19410TIP3    H179721   1.225   2.274  12.825 -0.4059  0.1168 -2.1326
19410TIP3    H279722   1.167   2.135  12.845 -0.6797  0.7955  3.1715
19411TIP3   OH279723   0.332   5.007   5.911 -0.6207  0.8392  0.6143
19411TIP3    H179724   0.282   4.965   5.981  1.6443 -1.1897  1.1472
19411TIP3    H279725   0.423   5.007   5.942  0.3233  0.7768 -1.8986
19412TIP3   OH279726   5.693   3.631   3.212  0.2923 -0.2434  0.6647
19412TIP3    H179727   5.619   3.573   3.192  0.6350 -0.2841 -0.5583
19412TIP3    H279728   5.699   3.630   3.308  0.7168 -2.7903  0.6799
19413TIP3   OH279729   4.905   4.006   0.336 -0.1809 -0.0822 -0.3362
19413TIP3    H179730   4.820   4.046   0.358 -0.1892 -0.0127 -0.4905
19413TIP3    H279731   4.970   4.068   0.370 -0.1917 -0.1564 -0.1801
19414TIP3   OH279732   5.634   4.043  11.419 -0.3863  0.1414 -1.1255
19414TIP3    H179733   5.605   4.083  11.501  0.4813 -1.0648 -0.1889
19414TIP3    H279734   5.669   3.958  11.445  0.1390 -0.1654 -2.7267
19415TIP3   OH279735   1.116   6.366   4.125  0.2346 -0.5100 -0.1226
19415TIP3    H179736   1.077   6.442   4.082  0.9581  0.4134  0.8157
19415TIP3    H279737   1.090   6.292   4.070 -0.5335  0.3945 -1.0228
19416TIP3   OH279738   3.471   3.456  16.071  0.1741  0.3600 -0.3355
19416TIP3    H179739   3.546   3.510  16.046 -0.8125  1.4333 -1.0708
19416TIP3    H279740   3.446   3.412  15.990  1.2633 -1.6554  0.3547
19417TIP3   OH279741   2.108   2.912   3.088  0.3868 -0.1638 -0.0541
19417TIP3    H179742   2.115   2.865   3.004 -1.0030  0.6713 -0.6732
19417TIP3    H279743   2.195   2.906   3.126  1.0872 -0.4459 -1.6283
19418TIP3   OH279744   5.830   5.119  11.271  0.1558  0.1799 -0.1118
19418TIP3    H179745   5.816   5.026  11.254  1.7495  0.0038 -0.6408
19418TIP3    H279746   5.815   5.129  11.365 -1.8951 -0.2148 -0.3631
19419TIP3   OH279747   0.761   1.443  17.161  0.3629 -0.2202  0.7077
19419TIP3    H179748   0.696   1.375  17.179  1.4362 -1.2306  0.8487
19419TIP3    H279749   0.826   1.434  17.230  0.9857  0.3693  0.2173
19420TIP3   OH279750   1.848   5.514  16.410 -0.3894  0.1850 -0.6902
19420TIP3    H179751   1.879   5.504  16.500  1.1554  0.3091 -1.1785
19420TIP3    H279752   1.778   5.579  16.417 -0.0166  0.5092  0.3775
19421TIP3   OH279753   3.658   2.139   6.416 -0.3183  0.1442  0.1163
19421TIP3    H179754   3.740   2.175   6.383 -1.0481  0.5518 -1.3382
19421TIP3    H279755   3.680   2.049   6.441  0.7075  0.4515  0.3775
19422TIP3   OH279756   1.590   0.817   3.112 -0.4120 -0.5405 -0.3724
19422TIP3    H179757   1.496   0.819   3.095 -0.6726  1.4683  1.0653
19422TIP3    H279758   1.619   0.734   3.073 -2.6969 -1.0652 -1.1101
19423TIP3   OH279759   5.517   2.964  10.803  0.0431 -0.1934  0.4512
19423TIP3    H179760   5.566   2.914  10.868  1.0385 -2.0594 -1.6009
19423TIP3    H279761   5.582   3.022  10.763  0.0273 -0.8492 -0.5500
19424TIP3   OH279762   3.703   1.068  10.953 -0.3313 -0.3358  0.0249
19424TIP3    H179763   3.709   1.158  10.987  0.6970  0.1314 -1.2972
19424TIP3    H279764   3.783   1.057  10.902 -1.4389 -1.2556 -1.5902
19425TIP3   OH279765   3.492   5.419  11.827  0.2312  0.0355  0.1432
19425TIP3    H179766   3.476   5.509  11.854 -1.6975 -0.2357  0.0025
19425TIP3    H279767   3.405   5.381  11.812  1.0336 -1.3451 -1.4837
19426TIP3   OH279768   6.427   5.188   3.953  0.1316  0.0556 -0.5408
19426TIP3    H179769   6.415   5.094   3.968 -0.2281  0.1376 -0.3076
19426TIP3    H279770   6.436   5.225   4.041  0.5791  0.2017 -0.6455
19427TIP3   OH279771   3.981   6.511   4.854 -0.4822 -0.6035 -0.0585
19427TIP3    H179772   4.041   6.586   4.864  0.5735 -1.5222  0.7559
19427TIP3    H279773   3.918   6.520   4.925  0.1191 -0.9053  0.5186
19428TIP3   OH279774   5.755   2.652  14.643  0.0477 -0.2110  0.0456
19428TIP3    H179775   5.669   2.656  14.684 -0.8356 -0.2420 -1.7221
19428TIP3    H279776   5.815   2.635  14.715 -1.4796 -0.7151  1.2545
19429TIP3   OH279777   5.293   1.228   0.749  0.3555  0.1990  0.2079
19429TIP3    H179778   5.239   1.224   0.670  0.6014  0.5978  0.0143
19429TIP3    H279779   5.230   1.234   0.821  0.1063 -1.2609  0.1280
19430TIP3   OH279780   1.194   0.621  16.231  0.1176 -0.5057  0.6299
19430TIP3    H179781   1.133   0.569  16.283 -0.4162  0.4481  0.9944
19430TIP3    H279782   1.150   0.706  16.221  0.4556 -0.4816 -0.9094
19431TIP3   OH279783   6.194   5.351  11.167 -0.0710  0.2870 -0.3431
19431TIP3    H179784   6.185   5.424  11.228  1.0268 -0.4878  0.7838
19431TIP3    H279785   6.285   5.323  11.176 -0.4988 -1.2877 -0.6697
19432TIP3   OH279786   6.066   0.628  10.773  0.6181  0.5933  0.4821
19432TIP3    H179787   6.103   0.549  10.733  0.1703  0.3900  0.4680
19432TIP3    H279788   6.143   0.679  10.800  0.9047 -0.2028  1.2110
19433TIP3   OH279789   2.764   2.752   4.428 -0.9564 -0.4354 -0.2454
19433TIP3    H179790   2.708   2.830   4.426  0.0271  0.2872 -1.6966
19433TIP3    H279791   2.714   2.685   4.382 -1.9136 -0.7799  1.2293
19434TIP3   OH279792   0.994   3.310   1.627  0.3550 -0.1743  0.5899
19434TIP3    H179793   1.002   3.216   1.645 -0.2977 -0.2852  0.3015
19434TIP3    H279794   1.082   3.336   1.600  0.7353 -0.5392  1.4277
19435TIP3   OH279795   1.435   6.140  15.978 -0.1155  0.1951  0.9558
19435TIP3    H179796   1.347   6.177  15.971  0.0343  0.2989 -1.0029
19435TIP3    H279797   1.465   6.166  16.065 -0.7198  3.1678  0.4078
19436TIP3   OH279798   3.045   0.769  14.119  0.2691  0.3830 -0.1410
19436TIP3    H179799   3.007   0.683  14.139 -0.0215  0.6848  0.6788
19436TIP3    H279800   3.120   0.750  14.063  0.8988 -0.5178  0.9641
19437TIP3   OH279801   6.595   1.962  14.969  0.0445 -0.3996 -0.2713
19437TIP3    H179802   6.614   1.990  14.880 -0.5778  1.7833  0.2277
19437TIP3    H279803   6.678   1.928  15.002  0.7613  0.4861 -1.1037
19438TIP3   OH279804   5.426   4.553   2.990 -0.5941 -0.1370  0.3757
19438TIP3    H179805   5.476   4.611   2.933 -1.8869 -0.6591 -1.3356
19438TIP3    H279806   5.406   4.607   3.067  0.9677  0.6421  0.2808
19439TIP3   OH279807   5.299   3.788   2.502  0.3023  0.1466 -0.6730
19439TIP3    H179808   5.288   3.736   2.423  1.4666 -0.3473 -0.5353
19439TIP3    H279809   5.329   3.725   2.568  1.6358  0.9431 -0.4760
19440TIP3   OH279810   1.958   2.068  17.045  0.0420  0.5425 -0.2550
19440TIP3    H179811   2.020   2.120  17.096 -0.4522  1.9983 -1.0765
19440TIP3    H279812   1.874   2.081  17.090 -0.4661  2.1149 -1.5393
19441TIP3   OH279813   2.402   5.401  12.455 -0.7155 -0.4321 -0.0895
19441TIP3    H179814   2.366   5.434  12.373 -1.8627 -3.0572 -0.7602
19441TIP3    H279815   2.351   5.322  12.473  0.0535 -0.3855  2.7430
19442TIP3   OH279816   1.790   0.886  11.255  0.1718  0.0237 -0.2385
19442TIP3    H179817   1.796   0.858  11.347 -1.0572 -0.2637 -0.2304
19442TIP3    H279818   1.880   0.905  11.230  0.7607 -1.6424  0.4826
19443TIP3   OH279819   0.666   2.056   2.604  0.0901 -0.0287 -0.5300
19443TIP3    H179820   0.599   2.060   2.535 -1.0183  2.4034  0.5576
19443TIP3    H279821   0.619   2.025   2.681  0.1405  1.7081  0.2511
19444TIP3   OH279822   2.655   2.584  13.383  0.1712  0.2696  0.4278
19444TIP3    H179823   2.609   2.501  13.370 -1.1409  0.9877  0.2883
19444TIP3    H279824   2.676   2.613  13.294  0.4422  0.1962  0.4668
19445TIP3   OH279825   4.913   6.513   6.445 -0.7067  0.4904 -0.0998
19445TIP3    H179826   4.869   6.431   6.427 -0.3154 -0.1441  1.6751
19445TIP3    H279827   4.844   6.580   6.439 -1.3351 -0.1471 -0.0470
19446TIP3   OH279828   0.608   6.612  15.686 -0.1985  0.3979 -0.9026
19446TIP3    H179829   0.638   6.537  15.737 -1.9925 -1.5889 -2.5443
19446TIP3    H279830   0.688   6.654  15.655  0.8758 -0.4653  0.5733
19447TIP3   OH279831   1.324   0.895   0.767 -0.1457  0.3999 -0.4768
19447TIP3    H179832   1.362   0.810   0.743 -0.4306  0.6628 -1.9631
19447TIP3    H279833   1.240   0.873   0.807  0.6404 -0.0872  0.9876
19448TIP3   OH279834   0.276   1.411  11.382 -0.2709  0.0968  0.1970
19448TIP3    H179835   0.312   1.348  11.445 -1.5096  1.0260  1.9068
19448TIP3    H279836   0.272   1.493  11.430 -2.7737  0.4818 -0.5328
19449TIP3   OH279837   2.722   3.623   5.973 -0.2423  0.0238  0.2980
19449TIP3    H179838   2.733   3.529   5.980  0.1017  0.0091 -0.3580
19449TIP3    H279839   2.688   3.637   5.885  0.6760  0.5809  0.0174
19450TIP3   OH279840   4.296   2.640  15.280  0.3128 -0.9324  0.2966
19450TIP3    H179841   4.338   2.725  15.291 -1.6915  0.0366  1.1455
19450TIP3    H279842   4.245   2.649  15.199 -0.6923 -0.9381  0.9129
19451TIP3   OH279843   6.297   4.535  17.156  0.1814 -0.0936 -0.3061
19451TIP3    H179844   6.348   4.513  17.078 -0.3510 -2.7200 -0.0055
19451TIP3    H279845   6.222   4.585  17.123  0.7178  0.0884 -1.2792
19452TIP3   OH279846   0.880   4.717   1.461 -0.4432 -0.3170 -0.2063
19452TIP3    H179847   0.796   4.695   1.501 -0.8078  0.4774 -0.5102
19452TIP3    H279848   0.942   4.654   1.499 -1.4292 -1.8817 -1.0730
19453TIP3   OH279849   3.093   2.961   3.823  0.2330  0.2609  0.7135
19453TIP3    H179850   3.166   2.899   3.832 -2.1645 -3.0310 -0.3793
19453TIP3    H279851   3.060   2.971   3.913  1.4927  1.1707  1.1050
19454TIP3   OH279852   4.531   2.811  16.260 -0.5480  0.8135 -1.0587
19454TIP3    H179853   4.541   2.889  16.206 -1.5157 -0.0477 -2.5523
19454TIP3    H279854   4.491   2.746  16.202  0.7449 -0.9973 -0.0524
19455TIP3   OH279855   4.962   3.189   0.820 -0.3334  0.0187  0.5355
19455TIP3    H179856   5.037   3.172   0.877  0.1383  0.3794  0.0224
19455TIP3    H279857   5.000   3.209   0.735 -1.0462 -2.8439 -0.5796
19456TIP3   OH279858   1.801   1.334  17.182 -0.3555  0.3951  0.0353
19456TIP3    H179859   1.775   1.383  17.260 -0.1977  2.5817 -1.1824
19456TIP3    H279860   1.896   1.322  17.192 -0.2913  0.8973  0.0869
19457TIP3   OH279861   1.254   0.191   3.779 -0.0419  0.1379  0.3464
19457TIP3    H179862   1.256   0.118   3.718 -1.6314  0.3864 -0.0370
19457TIP3    H279863   1.346   0.208   3.799  0.4205 -0.9812 -0.7226
19458TIP3   OH279864   0.509   4.773  17.214 -0.2475 -0.4854 -0.0106
19458TIP3    H179865   0.519   4.866  17.192 -1.4632 -0.4753 -0.6264
19458TIP3    H279866   0.580   4.755  17.276 -0.1916  0.9308  0.3739
19459TIP3   OH279867   2.319   0.839   4.003  0.1958 -0.5627  0.0404
19459TIP3    H179868   2.286   0.801   3.922  2.0881 -3.9610  0.6870
19459TIP3    H279869   2.279   0.786   4.072  2.5894 -1.1655  1.0560
19460TIP3   OH279870   4.241   2.698  12.645  0.1114  0.7280  0.0229
19460TIP3    H179871   4.188   2.621  12.626  0.1073  0.3405  1.4860
19460TIP3    H279872   4.322   2.663  12.683  0.2630  1.4226  0.3588
19461TIP3   OH279873   2.508   5.486  11.835 -0.2305 -0.0819  0.7078
19461TIP3    H179874   2.479   5.510  11.748  0.8204  1.2744  0.6833
19461TIP3    H279875   2.444   5.526  11.894  0.4431  1.2451  0.5972
19462TIP3   OH279876   4.392   4.811   4.378 -0.8465 -0.2581 -0.5320
19462TIP3    H179877   4.477   4.768   4.388 -1.0956 -0.4632  0.8967
19462TIP3    H279878   4.403   4.896   4.419 -1.2391 -0.1724 -0.5974
19463TIP3   OH279879   1.957   4.243   0.247 -0.4434  0.7590  0.2054
19463TIP3    H179880   1.889   4.178   0.232 -1.2600  1.1669  1.8640
19463TIP3    H279881   2.039   4.195   0.236 -1.0160 -0.7354  1.9590
19464TIP3   OH279882   3.566   6.811  11.527 -0.3433 -0.1201 -0.5888
19464TIP3    H179883   3.613   6.772  11.600 -0.3351 -0.6638 -0.8791
19464TIP3    H279884   3.474   6.787  11.542 -0.6503  1.4774  0.3235
19465TIP3   OH279885   3.962   5.239  14.840  0.2638 -0.4686 -0.7309
19465TIP3    H179886   3.952   5.164  14.898  0.6629  0.8554  1.1249
19465TIP3    H279887   3.924   5.312  14.889 -1.8867  0.2663 -3.2515
19466TIP3   OH279888   4.441   3.881  13.865  0.4692 -0.0456  0.6759
19466TIP3    H179889   4.383   3.954  13.842 -0.5304  0.1798  3.4957
19466TIP3    H279890   4.389   3.828  13.926  2.4981 -1.0005  1.6584
19467TIP3   OH279891   3.046   4.253  14.317 -0.1096 -0.2881  0.0505
19467TIP3    H179892   3.110   4.302  14.368 -0.5824 -1.5960  2.0091
19467TIP3    H279893   3.030   4.307  14.240  2.6185  0.5383 -0.0512
19468TIP3   OH279894   1.258   0.412   1.920  0.2165  0.1890  0.3260
19468TIP3    H179895   1.292   0.328   1.891  0.5468  0.3810  0.1487
19468TIP3    H279896   1.215   0.449   1.843  0.9306  0.6164  0.1209
19469TIP3   OH279897   5.980   3.942   2.147 -0.4587  0.4489 -0.0948
19469TIP3    H179898   6.009   3.854   2.171 -2.1772 -0.8071 -2.2458
19469TIP3    H279899   5.890   3.931   2.117 -0.5579  2.8818 -0.9591
19470TIP3   OH279900   4.652   0.744   0.215 -0.0880 -0.3416 -0.0455
19470TIP3    H179901   4.608   0.826   0.235 -1.9030 -1.3097  0.1568
19470TIP3    H279902   4.598   0.704   0.147  0.8324 -1.3122 -0.2316
19471TIP3   OH279903   4.174   1.282   0.451 -0.3417  0.2079 -0.7616
19471TIP3    H179904   4.097   1.314   0.499  0.2840 -0.1737  0.5696
19471TIP3    H279905   4.196   1.352   0.390  0.3697  1.9487  1.3276
19472TIP3   OH279906   3.515   6.213  11.590  0.2002  0.4026 -0.2531
19472TIP3    H179907   3.569   6.271  11.537  0.4934 -0.4750 -0.9339
19472TIP3    H279908   3.553   6.126  11.577  0.1764  0.1291  1.2532
19473TIP3   OH279909   0.603   5.144  13.920  0.1059  0.5767 -0.1954
19473TIP3    H179910   0.651   5.061  13.920  0.0371  0.5064 -1.7730
19473TIP3    H279911   0.519   5.122  13.960 -0.8781 -0.7770 -2.7532
19474TIP3   OH279912   5.182   6.753   5.160 -0.0847 -0.6955  0.1858
19474TIP3    H179913   5.232   6.824   5.121 -0.5308 -1.2708 -1.5070
19474TIP3    H279914   5.092   6.768   5.132 -0.6902 -0.3801  2.1529
19475TIP3   OH279915   5.351   5.115  12.252  0.4388 -0.2899 -0.0189
19475TIP3    H179916   5.431   5.121  12.304  1.5793 -0.8950 -1.6381
19475TIP3    H279917   5.345   5.200  12.208 -0.7723  0.3929  1.3906
19476TIP3   OH279918   4.981   4.803  11.764 -0.6042  0.2843  0.4048
19476TIP3    H179919   4.895   4.781  11.728 -0.2270 -1.6294  0.5695
19476TIP3    H279920   5.039   4.804  11.688 -0.2093 -1.6303  0.6330
19477TIP3   OH279921   2.442   3.893   2.901  0.2494 -0.4890  0.4121
19477TIP3    H179922   2.450   3.810   2.948  0.6679 -1.3612 -1.1464
19477TIP3    H279923   2.366   3.882   2.845 -0.0518  0.4254  0.6216
19478TIP3   OH279924   2.044   5.536  14.690  0.1929  0.9557  0.2087
19478TIP3    H179925   2.103   5.463  14.703 -1.7189 -0.7884 -0.3380
19478TIP3    H279926   2.072   5.576  14.608 -1.3875 -2.0556 -2.0157
19479TIP3   OH279927   3.277   1.577   5.183 -0.4291 -0.6072  0.0259
19479TIP3    H179928   3.316   1.585   5.270 -0.7054 -0.9874  0.1841
19479TIP3    H279929   3.353   1.574   5.124 -0.2533  1.2902  0.0907
19480TIP3   OH279930   2.175   1.723   1.014 -0.2523  0.6439 -0.4093
19480TIP3    H179931   2.214   1.787   1.074  2.0340 -1.0533  0.0843
19480TIP3    H279932   2.183   1.763   0.928  0.9280  1.1406 -0.0894
19481TIP3   OH279933   2.154   1.874   5.822 -0.1627 -0.0470 -0.5543
19481TIP3    H179934   2.207   1.795   5.832  1.3814  0.6562 -2.5360
19481TIP3    H279935   2.141   1.906   5.911 -0.5952 -2.3463  0.2679
19482TIP3   OH279936   2.969   1.041   5.828 -0.0511 -0.2940  0.1976
19482TIP3    H179937   2.931   1.110   5.882  1.9686  0.3011  0.9808
19482TIP3    H279938   3.061   1.067   5.819  0.7689 -2.8623  0.4853
19483TIP3   OH279939   2.386   0.170  16.194  0.4789  0.5306 -0.0672
19483TIP3    H179940   2.376   0.219  16.112 -1.0290  0.3784 -0.0091
19483TIP3    H279941   2.435   0.229  16.251  1.0879  0.8535 -0.8865
19484TIP3   OH279942   3.630   1.803  15.530  0.5270  0.4269 -0.6754
19484TIP3    H179943   3.593   1.812  15.618  0.7805 -1.2402 -0.3674
19484TIP3    H279944   3.665   1.890  15.510  1.2635  0.6101  1.2332
19485TIP3   OH279945   2.041   4.401   5.691  0.2218 -0.2985  0.0476
19485TIP3    H179946   1.972   4.466   5.706 -0.2462 -1.3329  3.1179
19485TIP3    H279947   2.075   4.422   5.604 -2.6917  1.4138 -0.8352
19486TIP3   OH279948   1.724   2.844   3.724 -0.3614 -0.2586 -0.3174
19486TIP3    H179949   1.817   2.862   3.715 -0.5544  0.0919 -1.8318
19486TIP3    H279950   1.712   2.757   3.687 -0.6799 -0.1616 -0.4501
19487TIP3   OH279951   5.755   2.806  15.692 -0.2262  0.3710 -0.1674
19487TIP3    H179952   5.715   2.802  15.605  2.2990 -1.3724 -1.3740
19487TIP3    H279953   5.749   2.717  15.726  0.7244  0.5352  0.4835
19488TIP3   OH279954   1.363   0.210   3.404 -0.6575 -0.6700  0.7902
19488TIP3    H179955   1.397   0.130   3.365 -0.5233 -1.2300  2.0067
19488TIP3    H279956   1.347   0.268   3.330  1.2570 -1.0332  0.0292
19489TIP3   OH279957   3.735   0.604   1.962  0.0572 -0.2471 -0.4397
19489TIP3    H179958   3.821   0.564   1.951  0.1082 -0.0632 -0.7435
19489TIP3    H279959   3.700   0.609   1.872 -0.3817 -0.5690 -0.2918
19490TIP3   OH279960   0.749   1.770  12.244 -0.3301 -0.2844 -0.0239
19490TIP3    H179961   0.658   1.781  12.271 -0.3619 -1.3295  0.3276
19490TIP3    H279962   0.768   1.677  12.257  1.0303  0.0565  0.6741
19491TIP3   OH279963   1.985   1.322  13.350 -0.4396 -0.7009 -0.2461
19491TIP3    H179964   2.040   1.271  13.290  1.0688  0.5670 -0.0254
19491TIP3    H279965   2.034   1.404  13.363 -1.3500 -0.4001  1.6750
19492TIP3   OH279966   3.115   4.021  12.420 -0.0135  0.3390 -0.1054
19492TIP3    H179967   3.148   4.032  12.331  0.0117 -1.4736 -0.3510
19492TIP3    H279968   3.188   4.045  12.476  0.0944  1.1151 -0.5606
19493TIP3   OH279969   5.399   1.699  11.066  0.0098 -0.0468  0.2867
19493TIP3    H179970   5.401   1.644  10.988  0.7126 -0.8819  0.8636
19493TIP3    H279971   5.466   1.661  11.123  1.2542  2.0518  0.2983
19494TIP3   OH279972   1.568   3.806   4.718 -0.7725 -0.3544 -0.3409
19494TIP3    H179973   1.562   3.898   4.693  0.5040 -0.2317 -0.2419
19494TIP3    H279974   1.647   3.800   4.772 -1.9150 -1.1498  1.3269
19495TIP3   OH279975   1.426   0.763   4.708  0.1880 -0.3022 -0.3620
19495TIP3    H179976   1.430   0.798   4.797 -0.2167 -0.6235 -0.2131
19495TIP3    H279977   1.384   0.678   4.718  1.2784 -0.9035 -0.6929
19496TIP3   OH279978   1.875   5.754   4.002  0.2348 -0.4049  0.2290
19496TIP3    H179979   1.872   5.755   4.098  2.0546 -0.4103  0.3256
19496TIP3    H279980   1.895   5.664   3.980 -0.7499 -0.5234 -0.1980
19497TIP3   OH279981   3.186   5.818  13.441 -0.1636 -0.2267 -0.2005
19497TIP3    H179982   3.140   5.862  13.369 -0.4696  0.5430  0.4467
19497TIP3    H279983   3.210   5.732  13.405 -0.6048  0.0125 -1.1067
19498TIP3   OH279984   6.667   6.620   2.072  0.2509  0.0241 -0.0698
19498TIP3    H179985   6.713   6.537   2.081  0.7796  0.4551  1.4235
19498TIP3    H279986   6.732   6.686   2.096 -0.7886  0.7172  0.9179
19499TIP3   OH279987   5.540   6.191  11.372  0.1406  0.3835  0.2277
19499TIP3    H179988   5.515   6.283  11.365  2.3202  1.0360  0.2708
19499TIP3    H279989   5.601   6.189  11.446  1.1456 -0.8410 -0.6034
19500TIP3   OH279990   5.474   4.167   0.434  0.2345  0.3356 -0.3111
19500TIP3    H179991   5.565   4.143   0.421  0.5673  1.0813  0.5949
19500TIP3    H279992   5.425   4.095   0.394  1.1905  0.4362 -1.7724
19501TIP3   OH279993   2.386   5.123   4.031 -0.6802 -0.6121 -0.1566
19501TIP3    H179994   2.441   5.049   4.056  0.0500  0.0579  0.2389
19501TIP3    H279995   2.331   5.140   4.108 -0.7144 -0.6200 -0.1787
19502TIP3   OH279996   0.663   1.322   2.700  0.4523 -0.2531  0.1714
19502TIP3    H179997   0.727   1.394   2.697  0.5601 -0.2333  1.8118
19502TIP3    H279998   0.708   1.253   2.748 -0.2940 -0.7430  0.1723
19503TIP3   OH279999   2.147   4.941  13.948 -0.3274 -0.9177 -0.0481
19503TIP3    H180000   2.214   4.918  13.883  3.8709  1.0275  3.1148
19503TIP3    H280001   2.109   5.022  13.915  0.4541 -0.8902 -0.9326
19504TIP3   OH280002   3.079   2.345   3.705  0.2098 -0.1171  0.7040
19504TIP3    H180003   3.068   2.384   3.792 -0.5247  0.3079  0.4262
19504TIP3    H280004   2.992   2.315   3.681  0.6306 -1.3394  0.6227
19505TIP3   OH280005   0.239   6.820   1.050 -0.3071  0.6003  0.1036
19505TIP3    H180006   0.272   6.848   1.135  2.9696 -0.7070 -0.6095
19505TIP3    H280007   0.203   6.900   1.010  0.2685  1.7199  1.7532
19506TIP3   OH280008   1.887   2.204   0.613 -0.0057  0.2915 -0.0899
19506TIP3    H180009   1.822   2.214   0.543 -0.9750 -0.7563  0.6228
19506TIP3    H280010   1.940   2.130   0.586  1.0760  1.2773 -0.7740
19507TIP3   OH280011   6.275   1.134  14.203 -0.2092  0.3977  0.3503
19507TIP3    H180012   6.311   1.048  14.224  0.3073 -0.0373 -2.0641
19507TIP3    H280013   6.241   1.125  14.114 -0.4729  2.5890  0.1720
19508TIP3   OH280014   4.312   1.634   4.580 -0.1646 -0.0148 -0.5720
19508TIP3    H180015   4.341   1.689   4.508  1.5231 -1.4822 -1.0515
19508TIP3    H280016   4.387   1.580   4.602 -0.9082 -0.2523  1.7167
19509TIP3   OH280017   6.700   2.075  16.954  0.0711  0.4172 -0.0714
19509TIP3    H180018   6.774   2.100  16.899 -0.6534  1.1074 -0.7686
19509TIP3    H280019   6.739   2.025  17.026  1.0932 -0.0764 -0.9377
19510TIP3   OH280020   2.562   0.530  14.673 -0.2521 -0.4583  0.0512
19510TIP3    H180021   2.563   0.476  14.594  2.6971  2.1246 -1.9428
19510TIP3    H280022   2.621   0.485  14.733 -1.6893 -1.8943  0.4648
19511TIP3   OH280023   0.005   6.712   5.631 -0.6420  0.3635 -0.0038
19511TIP3    H180024   0.089   6.757   5.632 -0.7406  0.5454  0.2255
19511TIP3    H280025  -0.032   6.732   5.545 -1.0145  1.3393  0.3716
19512TIP3   OH280026   1.795   0.290  16.843  0.2428  0.2240 -0.7518
19512TIP3    H180027   1.739   0.270  16.918  0.4844  0.3232 -0.5454
19512TIP3    H280028   1.787   0.213  16.786  0.7189 -0.2241 -0.2304
19513TIP3   OH280029   2.582   3.644   2.680 -0.4868  0.1862  0.5193
19513TIP3    H180030   2.627   3.633   2.764  2.0753 -0.3057 -0.7980
19513TIP3    H280031   2.578   3.738   2.667  1.2150  0.2618  0.2283
19514TIP3   OH280032   2.553   5.420  14.236 -0.2602 -0.1276  0.4154
19514TIP3    H180033   2.591   5.504  14.264 -0.7537  0.1010  0.4064
19514TIP3    H280034   2.474   5.445  14.187  0.3081 -0.5417 -0.7406
19515TIP3   OH280035   1.344   1.715   5.102  0.4226  0.4086 -0.2516
19515TIP3    H180036   1.313   1.664   5.028 -0.1553  0.1074  0.1892
19515TIP3    H280037   1.296   1.797   5.096  0.6546  0.5335 -0.4217
19516TIP3   OH280038   0.293   0.211   3.210 -0.1637 -0.3833 -0.1982
19516TIP3    H180039   0.234   0.273   3.167 -0.3522 -1.1395 -1.0764
19516TIP3    H280040   0.375   0.218   3.161  0.1799  0.0034  0.4340
19517TIP3   OH280041   0.566   1.904   5.190  0.1669 -0.8634  0.2495
19517TIP3    H180042   0.529   1.893   5.103 -1.3296 -1.7813  0.9657
19517TIP3    H280043   0.498   1.871   5.249  0.6763  0.8165  1.8379
19518TIP3   OH280044   1.610   5.725  12.748 -0.1871 -0.0333  0.2415
19518TIP3    H180045   1.573   5.696  12.664  0.3855  0.3156 -0.1432
19518TIP3    H280046   1.703   5.737  12.729 -0.0118 -0.1995  1.0013
19519TIP3   OH280047   3.610   2.510  11.075  0.2884 -0.5129  0.6147
19519TIP3    H180048   3.558   2.502  11.155 -1.8819 -0.2589 -0.7035
19519TIP3    H280049   3.605   2.603  11.052 -2.1609 -1.1043 -1.6748
19520TIP3   OH280050   5.418   5.689   4.001  0.0306  0.3681 -0.3262
19520TIP3    H180051   5.391   5.706   4.092 -0.9622 -1.0047 -0.3322
19520TIP3    H280052   5.342   5.646   3.961  1.5937 -2.1207 -0.8444
19521TIP3   OH280053   2.685   1.980  11.653  0.0529  0.2215  0.2061
19521TIP3    H180054   2.596   1.960  11.681 -0.9513  1.4207 -1.8950
19521TIP3    H280055   2.705   1.914  11.588 -0.9067  2.1763 -2.2206
19522TIP3   OH280056   5.506   4.366  12.219 -0.5646 -0.3831  0.1861
19522TIP3    H180057   5.574   4.377  12.285 -0.6395 -0.8208  0.3452
19522TIP3    H280058   5.520   4.437  12.157  1.5130 -1.8138 -1.0793
19523TIP3   OH280059   1.788   0.388   3.978  0.1099 -0.4234 -0.6647
19523TIP3    H180060   1.783   0.483   3.966  2.9264  0.1808  1.7748
19523TIP3    H280061   1.856   0.360   3.917  3.9458  0.3492  2.8307
19524TIP3   OH280062   0.745   6.556  11.195 -0.0999 -0.2933  0.1455
19524TIP3    H180063   0.728   6.467  11.166 -0.6726 -0.6580  1.5175
19524TIP3    H280064   0.694   6.566  11.276  2.3524  0.1974  1.7521
19525TIP3   OH280065   5.199   2.542   4.825  0.0484  0.1085 -0.5592
19525TIP3    H180066   5.107   2.518   4.823 -0.2009  0.6852  1.6497
19525TIP3    H280067   5.231   2.512   4.910  1.4639  1.3705 -0.5836
19526TIP3   OH280068   6.013   5.976   1.842 -0.3214 -0.3292 -0.7997
19526TIP3    H180069   6.019   5.949   1.750 -2.0271 -0.3925 -0.9184
19526TIP3    H280070   6.039   6.068   1.841  1.9907 -0.9021 -0.9369
19527TIP3   OH280071   1.671   3.194   0.842 -0.4999  0.3051  0.2465
19527TIP3    H180072   1.707   3.113   0.878 -3.2601  0.7667  4.7144
19527TIP3    H280073   1.601   3.165   0.783 -0.0284 -0.5555  0.0951
19528TIP3   OH280074   1.613   2.832  10.714  0.4371  0.0014  0.2717
19528TIP3    H180075   1.650   2.920  10.711 -0.2935  0.4857  2.7868
19528TIP3    H280076   1.585   2.821  10.805 -3.1960 -1.2597 -0.8189
19529TIP3   OH280077   1.917   6.809   5.721  0.2094  0.0680 -0.1972
19529TIP3    H180078   1.942   6.719   5.701  1.5604  0.4111 -0.1505
19529TIP3    H280079   1.928   6.817   5.816  0.7466  0.4544 -0.2841
19530TIP3   OH280080   0.020   5.222  13.620 -0.0256 -0.1454 -0.8727
19530TIP3    H180081   0.079   5.266  13.559  0.4084 -0.4948 -0.7130
19530TIP3    H280082   0.078   5.183  13.686 -0.5220  1.1565  0.4029
19531TIP3   OH280083   6.132   4.277   4.657 -0.5118  0.2292  0.2006
19531TIP3    H180084   6.184   4.352   4.684 -1.2695 -0.0479  2.6900
19531TIP3    H280085   6.196   4.210   4.633  0.2033  0.8806  0.2769
19532TIP3   OH280086   1.014   6.407   2.865 -0.2953  0.0140 -0.0682
19532TIP3    H180087   0.967   6.397   2.782 -2.0471 -1.1192  0.9949
19532TIP3    H280088   0.993   6.496   2.893  0.7753  0.6131 -1.0717
19533TIP3   OH280089   0.904   0.606  12.155 -0.2478 -0.2135 -0.3658
19533TIP3    H180090   0.825   0.657  12.138  0.6214  0.8737 -1.2365
19533TIP3    H280091   0.975   0.657  12.116  0.7077 -1.9004 -0.9364
19534TIP3   OH280092   0.619   2.980  14.609  0.5331 -0.5282  0.0124
19534TIP3    H180093   0.528   2.990  14.638  0.5141  0.9817 -0.4646
19534TIP3    H280094   0.612   2.940  14.522  0.2924 -0.0636 -0.1859
19535TIP3   OH280095   0.573   3.362  12.562  0.1794  0.1306 -0.4583
19535TIP3    H180096   0.598   3.309  12.486  2.9902  0.3623  0.2126
19535TIP3    H280097   0.628   3.329  12.633 -0.2880  1.8679  0.7693
19536TIP3   OH280098   5.334   2.195  14.625 -0.5929  0.5285  0.3578
19536TIP3    H180099   5.347   2.106  14.658 -1.1356 -0.1285 -1.0878
19536TIP3    H280100   5.308   2.246  14.702  0.9327 -0.2596  1.4526
19537TIP3   OH280101   5.298   4.724  14.763 -0.0201 -0.0329 -0.3334
19537TIP3    H180102   5.310   4.663  14.690  2.0152  1.4935 -1.3551
19537TIP3    H280103   5.298   4.668  14.841 -2.4373 -1.7279 -1.4229
19538TIP3   OH280104   0.125   3.748  16.646 -0.0211 -0.3612  0.4910
19538TIP3    H180105   0.109   3.720  16.736 -2.1633  0.8350  0.5621
19538TIP3    H280106   0.077   3.685  16.592  0.4165 -0.4877  0.2453
19539TIP3   OH280107   0.154   4.579  16.560  0.4512 -0.0798 -0.0541
19539TIP3    H180108   0.091   4.509  16.574 -0.2880  0.6873  0.5168
19539TIP3    H280109   0.198   4.556  16.478  1.2601 -1.9741  0.8548
19540TIP3   OH280110   6.292   0.707  15.992 -0.0782 -0.6917  0.4637
19540TIP3    H180111   6.261   0.685  15.905 -3.4253 -2.7542  1.9876
19540TIP3    H280112   6.263   0.797  16.007 -1.3610 -1.0450  0.1652
19541TIP3   OH280113   0.478   6.202  14.191 -0.6377  0.3808  0.0877
19541TIP3    H180114   0.554   6.254  14.164  0.6542 -1.0469  0.8211
19541TIP3    H280115   0.502   6.112  14.170 -2.1241 -0.1105  0.3924
19542TIP3   OH280116   3.063   5.937   4.456 -0.7508  0.8088  0.1215
19542TIP3    H180117   3.096   5.973   4.373 -0.4800  0.8014  0.2258
19542TIP3    H280118   2.991   5.879   4.430  0.1767 -0.2156 -0.2087
19543TIP3   OH280119   4.185   0.672  14.437  0.2026 -1.3161 -0.3986
19543TIP3    H180120   4.143   0.661  14.522  2.4461  0.2188  1.0012
19543TIP3    H280121   4.237   0.752  14.445 -0.2324 -0.5556 -3.5552
19544TIP3   OH280122   5.038   6.155   3.771  0.0905  0.2263 -0.1077
19544TIP3    H180123   4.945   6.133   3.769  0.1123  0.1753 -0.7223
19544TIP3    H280124   5.083   6.070   3.766  0.1689  0.2917 -0.5451
19545TIP3   OH280125   0.537   0.719   3.380 -0.4685 -0.8299 -0.4648
19545TIP3    H180126   0.629   0.702   3.360 -0.3683 -2.4257  1.0290
19545TIP3    H280127   0.489   0.691   3.302  0.3513  1.6238 -1.9500
19546TIP3   OH280128   3.159   5.209   4.274 -0.0352 -0.2523  0.1220
19546TIP3    H180129   3.119   5.234   4.191 -0.6652  2.0067  1.0206
19546TIP3    H280130   3.087   5.211   4.337  0.9547  1.4796  1.3129
19547TIP3   OH280131   0.151   5.424  12.160 -0.1695 -0.2146  0.3612
19547TIP3    H180132   0.127   5.333  12.143  0.5985 -0.6201  1.3108
19547TIP3    H280133   0.187   5.456  12.077 -0.5054 -0.7572  0.0050
19548TIP3   OH280134   3.235   4.854   5.016 -0.0019  0.1445 -0.2738
19548TIP3    H180135   3.203   4.935   5.055  0.1806  1.0332 -1.8698
19548TIP3    H280136   3.227   4.868   4.921  0.4223 -1.5497 -0.6014
19549TIP3   OH280137   0.480   0.997  15.191 -0.2052  0.8842 -0.1967
19549TIP3    H180138   0.553   1.030  15.139  0.2965  2.5351  1.4620
19549TIP3    H280139   0.520   0.931  15.248 -0.2363  0.9860 -0.0578
19550TIP3   OH280140   2.176   0.714  12.180  0.6988  0.2714  0.4797
19550TIP3    H180141   2.256   0.662  12.167  0.2170 -1.1610  2.7676
19550TIP3    H280142   2.196   0.770  12.254 -0.1432  0.5103  0.5343
19551TIP3   OH280143   1.220   1.180   5.174 -0.0660  0.0169 -0.2420
19551TIP3    H180144   1.308   1.143   5.189  0.0720  0.2469 -0.4861
19551TIP3    H280145   1.188   1.201   5.262  0.0859 -0.1503 -0.1447
19552TIP3   OH280146   3.501   1.121   2.677 -0.1951 -0.0608  0.4375
19552TIP3    H180147   3.518   1.030   2.653 -0.6531 -0.1663  0.5000
19552TIP3    H280148   3.475   1.164   2.596  2.4484  0.6399 -0.1213
19553TIP3   OH280149   3.935   1.736  12.305 -0.7882 -1.0130 -0.2724
19553TIP3    H180150   3.841   1.748  12.321 -0.6285 -0.5319  0.3692
19553TIP3    H280151   3.941   1.705  12.215 -1.3585  2.6077 -1.7303
19554TIP3   OH280152   5.154   5.700   5.307 -0.4377 -0.7732  0.2222
19554TIP3    H180153   5.169   5.609   5.280  0.6639 -0.6468  0.3518
19554TIP3    H280154   5.129   5.745   5.227  1.1143 -0.7624 -0.2970
19555TIP3   OH280155   4.300   5.631  15.053 -0.3614  0.5097 -0.4307
19555TIP3    H180156   4.390   5.598  15.064 -0.2577  0.6660 -0.7951
19555TIP3    H280157   4.245   5.553  15.060 -0.2134  0.4478  0.0318
19556TIP3   OH280158   4.903   3.779  17.070  0.3110  0.3499 -0.1843
19556TIP3    H180159   4.991   3.808  17.093  0.7618 -1.7603  1.0554
19556TIP3    H280160   4.916   3.696  17.023 -1.0057 -0.0775  0.1403
19557TIP3   OH280161   2.620   0.456  12.681 -0.4611 -0.3352  0.4389
19557TIP3    H180162   2.645   0.547  12.667  1.8410 -1.0364 -0.3849
19557TIP3    H280163   2.576   0.431  12.600  1.3359 -0.6778 -0.4843
19558TIP3   OH280164   5.183   1.114   3.196  0.4467 -0.1905  0.4733
19558TIP3    H180165   5.205   1.043   3.257  0.0344 -1.1411 -0.4582
19558TIP3    H280166   5.267   1.138   3.157  0.4759 -0.6960  0.2266
19559TIP3   OH280167   1.510   1.784   2.832 -0.3598 -0.0701 -0.1186
19559TIP3    H180168   1.594   1.767   2.788 -2.2702 -0.6743 -3.9529
19559TIP3    H280169   1.469   1.698   2.840  0.0431 -0.0900  3.6834
19560TIP3   OH280170   0.725   3.371  14.570  0.1742  0.5021 -0.2747
19560TIP3    H180171   0.712   3.359  14.664  0.0982 -0.4398 -0.4022
19560TIP3    H280172   0.754   3.462  14.562  0.7624  0.4201  0.7187
19561TIP3   OH280173   6.015   3.770  14.173  0.2563 -0.3110  0.8807
19561TIP3    H180174   5.990   3.804  14.087 -1.2432 -0.4254  1.2411
19561TIP3    H280175   6.103   3.803  14.187  0.9488 -1.1358 -1.1417
19562TIP3   OH280176   5.755   2.290  12.535 -0.2952  0.2235 -0.7885
19562TIP3    H180177   5.689   2.271  12.601  1.8227 -1.1443  1.1165
19562TIP3    H280178   5.838   2.283  12.582  1.2605  1.2885 -3.1688
19563TIP3   OH280179   3.885   5.601  10.117 -0.1112  0.6289  0.0774
19563TIP3    H180180   3.925   5.682  10.149 -1.2091  1.8811 -1.5674
19563TIP3    H280181   3.818   5.580  10.182  0.4816  0.7586  0.7504
19564TIP3   OH280182   6.102   6.829   4.400 -0.4373  0.0405  0.1527
19564TIP3    H180183   6.033   6.848   4.336 -2.4597 -1.4790  1.7244
19564TIP3    H280184   6.105   6.906   4.456 -0.6067  0.2544 -0.1316
19565TIP3   OH280185   4.476   1.502   4.116  0.4850 -0.3793  0.0551
19565TIP3    H180186   4.410   1.571   4.103  0.2633 -0.6290 -0.1458
19565TIP3    H280187   4.454   1.464   4.201  0.0914 -0.7675 -0.2198
19566TIP3   OH280188   0.005   4.286   3.689 -0.2358 -0.0294  0.5023
19566TIP3    H180189   0.011   4.328   3.604  0.2200 -0.6921  0.1994
19566TIP3    H280190   0.002   4.358   3.752 -0.2821  0.4554 -0.0561
19567TIP3   OH280191   3.016   1.505   2.353 -0.7943 -0.2881 -0.0766
19567TIP3    H180192   2.971   1.462   2.426  0.9232  0.4461  1.5247
19567TIP3    H280193   3.000   1.598   2.367  0.8383 -0.0308  0.3554
19568TIP3   OH280194   6.348   1.762   4.001 -0.1123  0.1767  0.6890
19568TIP3    H180195   6.398   1.695   3.954 -3.2384 -2.1303  0.3423
19568TIP3    H280196   6.363   1.843   3.951  1.2424 -0.9461 -0.8355
19569TIP3   OH280197   2.818   3.004  12.143 -0.0817 -0.3466  0.5513
19569TIP3    H180198   2.785   2.929  12.193 -1.0423 -0.4281 -0.1618
19569TIP3    H280199   2.883   2.966  12.083 -2.3096 -1.1167 -1.5500
19570TIP3   OH280200   6.578   0.722   3.354 -0.1192 -0.4457 -0.2115
19570TIP3    H180201   6.655   0.698   3.301  0.5715 -2.5126  1.6135
19570TIP3    H280202   6.590   0.815   3.372  0.7414 -0.1978 -1.8449
19571TIP3   OH280203   3.338   3.222  12.931 -0.1854  0.4037 -0.4772
19571TIP3    H180204   3.383   3.208  13.014 -0.2580  0.9072 -0.3544
19571TIP3    H280205   3.248   3.243  12.955  0.4126  3.4707 -0.5150
19572TIP3   OH280206   5.836   5.049  12.499 -0.1557  0.0764  0.1531
19572TIP3    H180207   5.901   5.119  12.501  1.0877 -1.0182 -0.2865
19572TIP3    H280208   5.871   4.986  12.436 -0.0960 -2.0043  2.1369
19573TIP3   OH280209   6.125   4.841  12.694  0.2278 -0.3016 -0.1349
19573TIP3    H180210   6.168   4.757  12.709 -2.1046 -1.8687 -1.5163
19573TIP3    H280211   6.117   4.847  12.599 -1.6593  0.3447  0.0230
19574TIP3   OH280212   0.642   3.517   0.024 -0.3002  0.0081 -0.4349
19574TIP3    H180213   0.725   3.556  -0.003  0.2030 -0.8695 -0.1974
19574TIP3    H280214   0.631   3.442  -0.034  0.2331 -1.2368  1.0212
19575TIP3   OH280215   4.003   6.362  11.508  0.1334  0.1329  0.6510
19575TIP3    H180216   3.982   6.422  11.436  1.9108  0.0826  0.0369
19575TIP3    H280217   4.079   6.313  11.477  0.7596 -0.1111  2.4522
19576TIP3   OH280218   3.529   4.050   2.271 -0.4267 -0.3660 -0.1529
19576TIP3    H180219   3.510   4.108   2.197 -0.9248 -1.6506 -1.0598
19576TIP3    H280220   3.463   3.981   2.266  0.8818 -1.7047  0.1355
19577TIP3   OH280221   5.947   0.693   1.967  0.3618 -0.1334  0.8709
19577TIP3    H180222   6.027   0.707   1.916  1.1551 -0.7130  1.9222
19577TIP3    H280223   5.894   0.635   1.913  1.3826 -1.1028  0.8743
19578TIP3   OH280224   3.412   3.288   2.253 -0.1322  0.5609 -0.1844
19578TIP3    H180225   3.406   3.297   2.348  0.2944  1.6177 -0.2448
19578TIP3    H280226   3.382   3.372   2.219  2.5249  1.3214 -0.8744
19579TIP3   OH280227   4.031   4.014   4.129 -0.0203 -0.3294  0.0554
19579TIP3    H180228   4.041   3.967   4.047  2.1133 -0.3998  0.2899
19579TIP3    H280229   4.104   4.076   4.130 -0.9723  0.8391  1.1560
19580TIP3   OH280230   2.859   0.707   4.268 -0.4693 -0.4510  0.1370
19580TIP3    H180231   2.781   0.755   4.294  0.2751  0.6328  0.4680
19580TIP3    H280232   2.905   0.766   4.208  0.6153 -0.5989  0.7778
19581TIP3   OH280233   2.472   6.463   1.581  0.0504 -0.4766 -0.2951
19581TIP3    H180234   2.401   6.451   1.643 -1.2145 -0.2340 -1.6488
19581TIP3    H280235   2.471   6.383   1.528  0.1643 -0.0740 -0.9204
19582TIP3   OH280236   2.930   4.705   3.576 -0.0859  0.0126 -0.3117
19582TIP3    H180237   2.925   4.756   3.657 -0.2199  1.1140 -0.9934
19582TIP3    H280238   2.839   4.699   3.546  0.2292  2.7723 -2.2420
19583TIP3   OH280239   6.565   1.781   3.671  0.0052 -0.0033  0.1362
19583TIP3    H180240   6.503   1.849   3.696 -2.8091 -2.2939 -0.1217
19583TIP3    H280241   6.535   1.751   3.585  1.7224 -0.9511 -0.1891
19584TIP3   OH280242   3.377   5.661  16.712  0.4186 -0.0153  0.0251
19584TIP3    H180243   3.427   5.733  16.674  0.2258  0.9769  1.5610
19584TIP3    H280244   3.439   5.588  16.715  1.4582  0.8683  0.8727
19585TIP3   OH280245   1.832   1.468  12.006  0.3255  0.5169  0.0876
19585TIP3    H180246   1.853   1.384  11.965 -0.2720  0.1663  0.4873
19585TIP3    H280247   1.797   1.521  11.935 -0.1016  0.1318  0.0076
19586TIP3   OH280248   0.533   5.989   4.188  0.1400  0.1639 -0.3816
19586TIP3    H180249   0.454   6.041   4.201  0.0221  0.0128 -0.4905
19586TIP3    H280250   0.577   6.030   4.113  0.1992  0.2884 -0.2793
19587TIP3   OH280251   0.671   0.366   4.684  0.2674 -0.1234 -0.6498
19587TIP3    H180252   0.720   0.387   4.605 -0.1324  1.7622 -0.4254
19587TIP3    H280253   0.580   0.384   4.662  0.1914  0.7853  0.3393
19588TIP3   OH280254   6.134   0.507   3.083 -0.6958  0.1063  0.5115
19588TIP3    H180255   6.185   0.426   3.079  0.4032  0.7643  0.6986
19588TIP3    H280256   6.198   0.574   3.104 -1.5368  1.0872  0.0276
19589TIP3   OH280257   1.773   6.051   0.397  0.6108 -0.1587  0.0593
19589TIP3    H180258   1.800   6.089   0.313 -1.3661 -0.7954 -0.9385
19589TIP3    H280259   1.686   6.014   0.379  1.2150 -2.5748  1.7424
19590TIP3   OH280260   2.910   6.769  14.495  0.6339 -0.1666  0.0217
19590TIP3    H180261   2.896   6.821  14.416  1.4298  1.7532  1.0691
19590TIP3    H280262   2.942   6.684  14.463  0.2514  0.3198 -1.7243
19591TIP3   OH280263   2.547   3.679   6.187 -0.4087 -0.0844  0.0864
19591TIP3    H180264   2.612   3.677   6.117 -0.8002 -0.1568 -0.2732
19591TIP3    H280265   2.463   3.678   6.143 -0.6883  2.1201  0.4916
19592TIP3   OH280266   2.115   3.666  13.157 -0.3859 -0.1293  0.2195
19592TIP3    H180267   2.027   3.651  13.123 -0.3679  1.0721 -0.3765
19592TIP3    H280268   2.129   3.592  13.217 -1.2876 -1.0439 -0.6427
19593TIP3   OH280269   1.757   1.058   5.118  0.1075 -0.0333 -0.4340
19593TIP3    H180270   1.842   1.059   5.163 -0.1929  1.8859  0.2047
19593TIP3    H280271   1.708   1.129   5.159 -1.8809 -1.1818 -0.6978
19594TIP3   OH280272   5.391   3.756  11.702  0.1208 -0.1715 -0.2657
19594TIP3    H180273   5.335   3.828  11.675  2.0565  1.6039  0.1448
19594TIP3    H280274   5.366   3.738  11.792 -0.4273 -0.0648 -0.3933
19595TIP3   OH280275   5.152   3.983  13.787  0.3470 -0.2287  0.1104
19595TIP3    H180276   5.177   3.914  13.726  0.2307 -0.3762  0.2295
19595TIP3    H280277   5.060   3.968  13.805  0.9869 -1.9276  2.4934
19596TIP3   OH280278   5.626   3.692  12.646 -0.2583 -0.1250 -0.5223
19596TIP3    H180279   5.606   3.703  12.739  1.5381  0.5672 -0.1680
19596TIP3    H280280   5.543   3.666  12.606 -1.1449 -0.1033  1.2121
19597TIP3   OH280281   6.129   3.784  16.062 -0.2138  0.0042 -0.2230
19597TIP3    H180282   6.106   3.723  15.992  3.1061 -1.5036 -0.1744
19597TIP3    H280283   6.045   3.809  16.101 -1.8566 -2.6695 -1.7723
19598TIP3   OH280284   1.934   5.495   3.377  0.3420 -0.0292  0.0050
19598TIP3    H180285   1.962   5.581   3.406  0.0037  0.5480 -1.2957
19598TIP3    H280286   1.842   5.505   3.356  0.6093 -0.3229 -1.4514
19599TIP3   OH280287   6.325   3.656  16.865 -0.8228 -0.4596  0.0748
19599TIP3    H180288   6.278   3.724  16.816  0.4647  0.7477  0.4378
19599TIP3    H280289   6.342   3.588  16.800 -0.2900  0.5241 -0.8662
19600TIP3   OH280290   2.246   0.334  12.500  0.6083 -0.3010  0.1636
19600TIP3    H180291   2.330   0.371  12.472 -0.0114  1.0876  0.0576
19600TIP3    H280292   2.247   0.340  12.595  0.4198  0.2432  0.1384
19601TIP3   OH280293   3.903   4.139  10.724  0.1445 -0.3107  0.0132
19601TIP3    H180294   3.848   4.061  10.721  1.3416 -1.2520  1.4839
19601TIP3    H280295   3.982   4.115  10.677  0.7285 -0.1615  0.9038
19602TIP3   OH280296   3.910   4.902  11.306  0.0049 -0.0083  0.1782
19602TIP3    H180297   3.940   4.986  11.341 -0.7787 -0.0130  0.8840
19602TIP3    H280298   3.881   4.853  11.382  0.0609 -0.7718 -0.2752
19603TIP3   OH280299   5.147   0.277   0.573  0.2994  0.3131  0.0976
19603TIP3    H180300   5.139   0.336   0.498  0.4077 -1.8671 -1.7427
19603TIP3    H280301   5.223   0.309   0.622  0.9851  1.0872 -1.4153
19604TIP3   OH280302   4.895   1.357  14.847  0.2250 -0.4567 -0.4367
19604TIP3    H180303   4.878   1.357  14.753 -0.3475  0.0440 -0.3401
19604TIP3    H280304   4.990   1.343  14.854 -0.1470 -4.2343 -0.9585
19605TIP3   OH280305   6.442   4.101   2.927 -0.5686 -0.1396 -0.6045
19605TIP3    H180306   6.377   4.085   2.858 -2.5377 -1.8869  1.4945
19605TIP3    H280307   6.448   4.018   2.974  0.7953  0.9506  1.2668
19606TIP3   OH280308   3.172   3.765  13.243  0.3555  0.1550 -0.1699
19606TIP3    H180309   3.113   3.829  13.202  0.2437 -0.5084 -1.0821
19606TIP3    H280310   3.259   3.802  13.231  0.4489 -0.5692 -2.1349
19607TIP3   OH280311   3.501   5.800  15.191  0.0368 -0.9720  0.5679
19607TIP3    H180312   3.526   5.798  15.283  0.5897 -0.6746  0.4274
19607TIP3    H280313   3.568   5.853  15.149  0.4061 -2.0315 -0.2093
19608TIP3   OH280314   2.885   3.290   3.196 -0.1226 -0.3541  0.3917
19608TIP3    H180315   2.852   3.232   3.127  1.8244 -0.8628 -0.1831
19608TIP3    H280316   2.960   3.243   3.232  0.9359  1.3780  0.5601
19609TIP3   OH280317   2.126   0.235  15.179 -0.1847 -0.3094  0.0748
19609TIP3    H180318   2.145   0.224  15.272 -2.5418 -0.7413  0.5695
19609TIP3    H280319   2.155   0.324  15.159 -1.2947  0.4535  1.6907
19610TIP3   OH280320   0.466   1.151   0.268 -1.0411  0.3265  0.4843
19610TIP3    H180321   0.492   1.221   0.327  1.6355 -0.9473  0.9681
19610TIP3    H280322   0.371   1.143   0.280 -1.3539  3.3874  0.8239
19611TIP3   OH280323   3.172   4.016  12.163 -0.5411 -0.5100  0.4368
19611TIP3    H180324   3.207   3.958  12.095  0.0584 -0.5019  0.7324
19611TIP3    H280325   3.111   4.074  12.116 -0.4909 -0.8161 -0.0105
19612TIP3   OH280326   3.878   6.440   2.637 -0.4750 -0.3682 -0.4216
19612TIP3    H180327   3.873   6.525   2.681  1.3735  0.6670 -2.0492
19612TIP3    H280328   3.879   6.376   2.708  0.8610  1.1358  0.9968
19613TIP3   OH280329   4.504   4.129  16.452 -0.2187  0.6532  0.6407
19613TIP3    H180330   4.547   4.148  16.535  0.5698  0.2488  0.3371
19613TIP3    H280331   4.507   4.211  16.404  1.2574  0.3595  0.1771
19614TIP3   OH280332   4.936   0.712   0.125  0.1175  0.3882  0.4610
19614TIP3    H180333   4.912   0.768   0.199  0.5755  0.9602  0.1871
19614TIP3    H280334   4.854   0.694   0.081  0.1756  2.6803 -0.7293
19615TIP3   OH280335   5.855   5.844   6.326 -0.0514 -0.1975  0.6949
19615TIP3    H180336   5.948   5.832   6.306 -0.5006 -0.9023 -1.1653
19615TIP3    H280337   5.822   5.756   6.340 -0.8750 -0.1833 -0.9238
19616TIP3   OH280338   6.084   1.649  16.864  0.4739 -0.4340  0.1674
19616TIP3    H180339   6.143   1.711  16.908 -0.8791  1.4000 -0.4689
19616TIP3    H280340   6.005   1.649  16.919 -0.7561  0.9173 -1.5127
19617TIP3   OH280341   1.971   2.417  14.140  1.0560 -0.1282 -0.2417
19617TIP3    H180342   1.966   2.511  14.160  0.1710 -0.4643  1.3514
19617TIP3    H280343   1.916   2.376  14.207  1.3550 -1.7850 -0.9652
19618TIP3   OH280344   0.257   4.947  13.650 -0.2040 -0.2642 -0.0596
19618TIP3    H180345   0.233   4.857  13.629  0.0508 -0.0476 -1.3858
19618TIP3    H280346   0.214   4.965  13.733 -0.1227 -1.6618  0.2992
19619TIP3   OH280347   5.443   4.426   4.117  0.1466  0.7889 -0.5318
19619TIP3    H180348   5.477   4.515   4.117  0.2624  0.7681 -1.7183
19619TIP3    H280349   5.349   4.437   4.130  0.2017  1.0689 -0.3657
19620TIP3   OH280350   1.355   2.780   0.843  0.3980 -0.4974  0.2138
19620TIP3    H180351   1.417   2.713   0.813  1.5716 -0.1053  1.6394
19620TIP3    H280352   1.317   2.815   0.762  3.6463  0.7690 -0.9248
19621TIP3   OH280353   0.923   4.930   3.900 -0.1933 -0.2088 -0.1828
19621TIP3    H180354   0.887   5.018   3.889 -1.1849 -0.7863 -1.8700
19621TIP3    H280355   0.891   4.881   3.824 -1.7662 -2.7334  1.9477
19622TIP3   OH280356   1.089   1.292  12.342  0.4597 -0.8790  0.1840
19622TIP3    H180357   1.152   1.257  12.405 -0.5732  1.6533  2.8762
19622TIP3    H280358   1.135   1.365  12.300 -0.4525  0.7779  1.9323
19623TIP3   OH280359   1.373   5.548  16.496 -0.6185  0.2431 -0.5806
19623TIP3    H180360   1.455   5.596  16.479  0.8456 -2.0335 -0.4968
19623TIP3    H280361   1.350   5.511  16.410  0.3624 -1.8561  0.0033
19624TIP3   OH280362   3.548   5.151  14.988  0.5692  0.0027  0.8658
19624TIP3    H180363   3.498   5.225  15.024  1.0790 -0.2346  2.1328
19624TIP3    H280364   3.577   5.102  15.066  0.6294 -1.2713  0.0621
19625TIP3   OH280365   1.192   1.113  14.145 -0.2267  0.2325 -0.3521
19625TIP3    H180366   1.200   1.018  14.152 -0.6315  0.0521 -1.9511
19625TIP3    H280367   1.205   1.131  14.052 -0.7862  1.6807 -0.1663
19626TIP3   OH280368   5.860   6.518  17.006  0.5405  0.6095  0.3988
19626TIP3    H180369   5.952   6.514  16.978 -0.4331 -0.7568 -3.1231
19626TIP3    H280370   5.823   6.591  16.958 -1.0106 -1.1771 -1.2690
19627TIP3   OH280371   3.937   6.635   4.257 -0.2995 -0.4897 -0.3356
19627TIP3    H180372   3.938   6.621   4.352  2.4974  0.2565 -0.1702
19627TIP3    H280373   4.017   6.593   4.226  0.6207  2.1398 -1.8411
19628TIP3   OH280374   1.306   2.457  15.082 -0.3334  0.2538 -0.1623
19628TIP3    H180375   1.364   2.503  15.022  0.6907 -1.3622 -0.4611
19628TIP3    H280376   1.218   2.477  15.050  0.1277  0.8854 -1.0833
19629TIP3   OH280377   2.457   5.266  17.175 -0.0266 -0.4034  0.8627
19629TIP3    H180378   2.394   5.207  17.133 -0.1417  0.0459  0.3958
19629TIP3    H280379   2.448   5.249  17.269  1.5069 -2.7351  0.6806
19630TIP3   OH280380   4.279   2.971  12.549  0.2008 -0.0986  0.1143
19630TIP3    H180381   4.295   2.894  12.603 -1.3675  0.3156  1.2301
19630TIP3    H280382   4.228   2.939  12.475  0.1923 -0.2505  0.1862
19631TIP3   OH280383   1.753   2.188   0.388 -0.3850 -0.1855  0.3535
19631TIP3    H180384   1.672   2.143   0.362 -0.6243 -0.2413  1.1656
19631TIP3    H280385   1.820   2.152   0.330 -0.5480 -1.7013  1.0489
19632TIP3   OH280386   6.538   0.147   5.773 -0.3731  0.5211  0.0371
19632TIP3    H180387   6.520   0.061   5.810  0.7480  0.7384  1.1733
19632TIP3    H280388   6.633   0.157   5.781 -0.5210  2.0123  0.2668
19633TIP3   OH280389   2.399   3.821   2.445  0.0803 -0.0268  0.3869
19633TIP3    H180390   2.376   3.914   2.454 -2.4402 -0.6265  0.7716
19633TIP3    H280391   2.366   3.797   2.359  0.3373 -0.6792  0.4703
19634TIP3   OH280392   5.247   0.127  12.508  0.1428  0.3369  0.5084
19634TIP3    H180393   5.259   0.046  12.459  0.7586  1.0703 -0.6119
19634TIP3    H280394   5.230   0.099  12.598 -0.6945 -1.0450 -0.0487
19635TIP3   OH280395   0.519   2.222   3.230  0.6729 -0.1184 -0.4230
19635TIP3    H180396   0.567   2.300   3.202 -1.0172 -0.1244 -3.8461
19635TIP3    H280397   0.437   2.256   3.267  0.4289 -0.2334 -0.8520
19636TIP3   OH280398   6.628   5.518  13.154  0.1670 -0.1574 -0.5459
19636TIP3    H180399   6.556   5.576  13.130 -1.7932 -2.3884 -0.4282
19636TIP3    H280400   6.630   5.452  13.084  1.7134 -0.5024 -0.2209
19637TIP3   OH280401   0.694   2.441  16.251 -0.4233  0.1297 -0.1691
19637TIP3    H180402   0.693   2.536  16.246 -2.1284  0.0857 -1.3965
19637TIP3    H280403   0.748   2.413  16.177 -2.1144  0.1263 -1.4585
19638TIP3   OH280404   6.446   0.903   6.007 -0.3684  0.0001 -0.3214
19638TIP3    H180405   6.492   0.872   6.085  0.2011 -0.9659 -1.0263
19638TIP3    H280406   6.374   0.841   5.995  0.8037 -1.1640 -1.7638
19639TIP3   OH280407   6.400   2.309   0.154  0.2728 -0.0187  0.3796
19639TIP3    H180408   6.377   2.219   0.178  0.2111 -0.7967 -2.2654
19639TIP3    H280409   6.337   2.363   0.201  0.1595 -1.3512  1.8521
19640TIP3   OH280410   1.099   0.008  11.983 -0.5463  0.1993  0.7915
19640TIP3    H180411   1.151   0.077  12.024 -0.8307  2.9142 -2.8964
19640TIP3    H280412   1.162  -0.041  11.930 -0.9530  0.1944  0.3057
19641TIP3   OH280413   3.228   1.828  11.931  0.0997 -0.2940 -0.1341
19641TIP3    H180414   3.297   1.823  11.866  0.5429 -0.8138  0.3588
19641TIP3    H280415   3.164   1.762  11.903  0.2223 -0.4193 -0.1211
19642TIP3   OH280416   1.250   0.074   5.997 -0.4937  0.2994 -0.0333
19642TIP3    H180417   1.247   0.168   5.979 -0.6750  0.6659  1.7226
19642TIP3    H280418   1.223   0.066   6.089  0.9408 -1.3259  0.3045
19643TIP3   OH280419   2.418   1.744  15.890 -0.2023 -0.0806  0.3457
19643TIP3    H180420   2.420   1.739  15.794  1.1770  0.2881  0.3432
19643TIP3    H280421   2.324   1.741  15.911 -0.5150 -0.4910 -0.9878
19644TIP3   OH280422   4.235   2.595   0.968  0.3261  0.6488 -0.2456
19644TIP3    H180423   4.279   2.677   0.992  0.7936  0.2415  0.3085
19644TIP3    H280424   4.243   2.591   0.872  0.2927  1.2529 -0.2738
19645TIP3   OH280425   0.495   1.706   3.174  0.2042 -0.2877  0.0901
19645TIP3    H180426   0.510   1.799   3.157  0.1994 -0.3418 -0.2112
19645TIP3    H280427   0.413   1.686   3.129  0.1475 -0.4130  0.2453
19646TIP3   OH280428   6.090   5.419   0.249  0.7969 -0.2617 -0.0189
19646TIP3    H180429   6.176   5.380   0.235 -0.2957 -2.9557  0.1537
19646TIP3    H280430   6.100   5.470   0.330  1.9806 -1.4356  0.6172
19647TIP3   OH280431   6.580   4.628   2.950  0.6846  0.4578 -0.3202
19647TIP3    H180432   6.522   4.551   2.951  0.4557  0.5713 -2.2069
19647TIP3    H280433   6.650   4.605   3.011 -0.4613 -0.3758  0.7402
19648TIP3   OH280434   6.579   6.055   2.966 -0.4626 -0.3528 -0.4716
19648TIP3    H180435   6.592   6.005   3.047 -0.2398  3.0423  1.7785
19648TIP3    H280436   6.490   6.089   2.973  0.8401  3.3120  0.5503
19649TIP3   OH280437   6.068   0.998  16.642  0.0087  0.0941 -0.3363
19649TIP3    H180438   6.111   0.927  16.593 -1.6340 -2.7056  1.9544
19649TIP3    H280439   6.119   1.005  16.723 -0.5299  0.7672 -0.0487
19650TIP3   OH280440   1.735   6.791   2.682  0.4178  0.1578 -0.1461
19650TIP3    H180441   1.740   6.783   2.777  3.4734 -0.4410 -0.2336
19650TIP3    H280442   1.665   6.731   2.656  2.3150 -3.0406  1.5070
19651TIP3   OH280443   6.202   3.999  14.786 -0.3530 -0.0142 -0.0665
19651TIP3    H180444   6.282   4.032  14.745  0.6569 -0.5481  1.3642
19651TIP3    H280445   6.194   4.050  14.867 -2.1502  0.8471 -0.7389
19652TIP3   OH280446   0.520   0.958   5.568 -0.1478  0.0356  0.4083
19652TIP3    H180447   0.600   0.984   5.613  1.0551 -0.1043 -1.5439
19652TIP3    H280448   0.483   1.040   5.536  0.8282 -0.1158 -1.2094
19653TIP3   OH280449   1.285   0.700   2.872  0.2294  0.6343  0.2773
19653TIP3    H180450   1.220   0.764   2.900 -0.1782  0.2171  0.2934
19653TIP3    H280451   1.291   0.713   2.777 -0.0707  0.4910  0.2395
19654TIP3   OH280452   2.678   6.042  13.105  0.6738  0.1339  0.0926
19654TIP3    H180453   2.688   6.003  13.018  1.2025 -0.3915  0.3798
19654TIP3    H280454   2.663   6.135  13.089 -1.7096 -0.3075 -0.6648
19655TIP3   OH280455   1.927   1.711   5.071 -0.4884  0.0581 -0.3399
19655TIP3    H180456   1.997   1.705   5.006  1.0057 -3.6709  1.3349
19655TIP3    H280457   1.973   1.729   5.153 -1.6994 -0.6518  0.5121
19656TIP3   OH280458   5.464   4.311   5.168  0.2864  0.0554  0.6376
19656TIP3    H180459   5.536   4.306   5.105  1.4752  0.4934  1.9230
19656TIP3    H280460   5.457   4.221   5.202 -0.7150 -0.3105 -0.4595
19657TIP3   OH280461   2.289   6.275   5.679 -0.4219  0.5820  0.4336
19657TIP3    H180462   2.326   6.195   5.716  0.5147  0.3810 -0.8324
19657TIP3    H280463   2.197   6.255   5.663  0.0584 -0.6879 -0.9602
19658TIP3   OH280464   0.432   6.621   3.209  0.2893 -0.2801  0.2659
19658TIP3    H180465   0.354   6.610   3.264  1.4300  1.6624  2.4416
19658TIP3    H280466   0.476   6.697   3.246  2.5269 -0.4938 -1.7722
19659TIP3   OH280467   1.389   2.770  16.896 -0.5535 -0.0681 -0.0896
19659TIP3    H180468   1.401   2.844  16.955  0.9396 -0.3504  0.0103
19659TIP3    H280469   1.393   2.808  16.808  0.4568 -0.0346 -0.0433
19660TIP3   OH280470   2.033   2.611   2.439  0.5174  0.5110  0.2805
19660TIP3    H180471   2.034   2.581   2.348 -0.9620  0.5723  0.2321
19660TIP3    H280472   2.016   2.705   2.434 -0.5523  0.3535  0.6321
19661TIP3   OH280473   0.444   6.196  12.914  0.1100 -0.3141 -1.1571
19661TIP3    H180474   0.374   6.132  12.930  0.3834 -0.2134  0.6555
19661TIP3    H280475   0.516   6.145  12.878  0.2902 -1.0380  0.1742
19662TIP3   OH280476   6.555   1.319   0.154  1.0391 -0.1508  0.3536
19662TIP3    H180477   6.598   1.403   0.171 -0.8382  1.3448 -1.7133
19662TIP3    H280478   6.620   1.269   0.105  1.4232  0.9909 -0.3473
19663TIP3   OH280479   0.761   2.608   5.581  0.4720 -0.3901  0.1587
19663TIP3    H180480   0.804   2.593   5.665  0.1520  2.5008  0.9295
19663TIP3    H280481   0.669   2.587   5.596  0.4798 -0.2374  0.4118
19664TIP3   OH280482   6.753   4.500   0.053  0.0781 -0.2744  0.6647
19664TIP3    H180483   6.679   4.481   0.111 -0.8782 -1.9919 -1.0041
19664TIP3    H280484   6.829   4.502   0.111 -0.8511 -1.8350  2.0274
19665TIP3   OH280485   1.331   2.672  12.212 -0.5169 -0.0647 -0.2738
19665TIP3    H180486   1.410   2.621  12.229 -1.3498 -0.6259  2.5786
19665TIP3    H280487   1.353   2.727  12.138  2.9381  0.5471  1.0198
19666TIP3   OH280488   2.523   4.571  10.858 -0.5965 -0.1266  0.1097
19666TIP3    H180489   2.429   4.567  10.847 -0.6382  0.1353  0.3487
19666TIP3    H280490   2.558   4.568  10.769 -0.6682 -3.4403  0.0708
19667TIP3   OH280491   0.929   4.034   3.833 -0.4758  0.1028 -0.2834
19667TIP3    H180492   0.845   4.049   3.877 -0.8339  1.8467 -1.4683
19667TIP3    H280493   0.994   4.065   3.896 -0.8683  0.8361 -0.2227
19668TIP3   OH280494   3.282   6.586   1.946 -0.1559 -0.0592 -0.2076
19668TIP3    H180495   3.335   6.590   2.025 -0.0565 -3.7140  0.0825
19668TIP3    H280496   3.342   6.612   1.876  0.8724 -0.3367  0.5400
19669TIP3   OH280497   3.447   2.191  12.172 -0.0215  0.5548  0.2105
19669TIP3    H180498   3.388   2.156  12.105  0.8195 -0.0076 -0.2572
19669TIP3    H280499   3.522   2.225  12.123 -0.4222  2.2567  0.7161
19670TIP3   OH280500   3.582   1.564   0.388  0.1405 -0.6427  0.0796
19670TIP3    H180501   3.488   1.580   0.378  0.4742  0.2385 -2.3214
19670TIP3    H280502   3.587   1.472   0.412 -1.3781 -0.2002  2.4563
19671TIP3   OH280503   6.064   3.429  12.429  0.4562 -0.4121  0.1072
19671TIP3    H180504   6.149   3.448  12.389  0.8561 -0.7802  0.7766
19671TIP3    H280505   6.058   3.334  12.430 -1.1290 -0.4464 -2.3333
19672TIP3   OH280506   3.098   2.496   2.224 -0.4545  0.3452  0.2111
19672TIP3    H180507   3.104   2.591   2.223 -1.4439  0.4149 -0.7676
19672TIP3    H280508   3.126   2.471   2.312 -2.9675  1.7607  1.5198
19673TIP3   OH280509   1.117   2.323  14.748 -0.4704  0.0817 -0.2802
19673TIP3    H180510   1.186   2.354  14.690 -0.4945  1.2032  0.2668
19673TIP3    H280511   1.145   2.235  14.774 -0.7816 -0.7329 -2.4879
19674TIP3   OH280512   6.455   5.853  16.636 -0.3476 -0.2047 -0.0301
19674TIP3    H180513   6.445   5.788  16.566  1.5350 -0.8120  0.1994
19674TIP3    H280514   6.396   5.823  16.705 -1.0489 -0.4867 -0.7305
19675TIP3   OH280515   5.494   6.795  13.227 -0.0936  0.1987 -0.3953
19675TIP3    H180516   5.421   6.735  13.211  0.5228 -1.1482  1.5005
19675TIP3    H280517   5.568   6.755  13.181 -0.1833  0.7504 -1.0356
19676TIP3   OH280518   5.959   2.350  16.589 -0.2586  0.2178 -0.4824
19676TIP3    H180519   5.953   2.365  16.684 -1.5570 -0.2405 -0.4663
19676TIP3    H280520   5.937   2.435  16.551  0.2654  0.4037 -0.3769
19677TIP3   OH280521   0.017   3.780  12.109  0.0797  0.9862 -0.1874
19677TIP3    H180522  -0.061   3.755  12.060 -0.8668  1.6719  0.9170
19677TIP3    H280523   0.076   3.817  12.043  0.0064 -0.6745 -1.2394
19678TIP3   OH280524   6.170   1.692   4.491  0.4949  0.2914  0.2445
19678TIP3    H180525   6.258   1.699   4.453 -0.0263 -2.1893 -1.6945
19678TIP3    H280526   6.119   1.647   4.424 -2.1803  1.2361  1.5060
19679TIP3   OH280527   3.391   3.029   2.121 -0.1945  0.2195 -0.1892
19679TIP3    H180528   3.383   3.088   2.196  0.1583  0.3690 -0.2654
19679TIP3    H280529   3.305   3.034   2.077  0.6217  2.8172 -1.7553
19680TIP3   OH280530   6.827   0.620  17.143  0.0943 -0.1973  0.3374
19680TIP3    H180531   6.879   0.548  17.107 -0.9222 -2.0948  2.3392
19680TIP3    H280532   6.890   0.690  17.160  1.1326 -0.5920 -1.6451
19681TIP3   OH280533   5.646   3.583  11.698  0.3434  0.2058 -0.5841
19681TIP3    H180534   5.557   3.612  11.719  0.6158  0.6025  0.0266
19681TIP3    H280535   5.649   3.492  11.730 -0.5064 -0.5521 -2.4984
19682TIP3   OH280536   3.719   0.773  14.927  0.2352 -0.2617  0.3739
19682TIP3    H180537   3.702   0.755  15.019  1.3156 -1.5076  0.3533
19682TIP3    H280538   3.680   0.699  14.880  1.5206 -0.7194 -0.0026
19683TIP3   OH280539   0.567   4.603   5.717  0.3297  0.0720 -0.4118
19683TIP3    H180540   0.648   4.613   5.668 -0.2059 -1.6795 -1.7168
19683TIP3    H280541   0.594   4.607   5.809  2.2982 -2.8931 -0.7414
19684TIP3   OH280542   2.409   4.177   2.891 -0.7016  0.5546 -0.0977
19684TIP3    H180543   2.319   4.183   2.859 -0.4035  0.3822 -1.0001
19684TIP3    H280544   2.421   4.085   2.914 -0.3045  0.2430 -1.4235
19685TIP3   OH280545   0.755   5.274   5.427  0.3015 -0.0047  0.7918
19685TIP3    H180546   0.806   5.350   5.400 -0.0680 -0.0405 -0.0354
19685TIP3    H280547   0.699   5.306   5.497  1.9090 -0.1248  2.1914
19686TIP3   OH280548   3.906   1.393   6.363 -0.3261 -0.4746  0.3619
19686TIP3    H180549   3.966   1.382   6.436 -0.3021 -1.4178  0.2172
19686TIP3    H280550   3.923   1.481   6.330 -1.7308  0.7726  2.7081
19687TIP3   OH280551   6.302   4.449   1.736 -0.1655  0.4745  0.2021
19687TIP3    H180552   6.395   4.470   1.744  0.0095  0.0773 -0.7324
19687TIP3    H280553   6.300   4.360   1.702 -0.8733  0.7659 -0.5536
19688TIP3   OH280554   3.591   1.265   5.062 -0.2100  0.1080 -0.3725
19688TIP3    H180555   3.584   1.354   5.096  0.3508  0.7179 -1.8020
19688TIP3    H280556   3.561   1.209   5.135  0.4320  1.3826  0.9053
19689TIP3   OH280557   2.791   5.376   2.736  0.3659 -0.2154  0.4957
19689TIP3    H180558   2.884   5.353   2.727  0.0196 -1.9684  0.9861
19689TIP3    H280559   2.753   5.357   2.651  0.3238 -0.1815  0.5068
19690TIP3   OH280560   1.004   5.388  13.479 -0.1091  0.5873  0.1404
19690TIP3    H180561   0.963   5.341  13.551 -1.0794 -0.0483 -0.7841
19690TIP3    H280562   0.939   5.453  13.453 -0.0553  0.3645 -0.5836
19691TIP3   OH280563   6.355   6.566   1.486 -0.1022 -0.1206 -0.0974
19691TIP3    H180564   6.420   6.560   1.415 -0.7150 -1.2744 -0.5924
19691TIP3    H280565   6.407   6.564   1.566  0.4815 -1.3247 -0.4784
19692TIP3   OH280566   0.199   0.271   2.926  0.0055 -0.9840  0.1503
19692TIP3    H180567   0.208   0.354   2.878 -0.7207 -1.7720 -1.4262
19692TIP3    H280568   0.288   0.237   2.932  0.4204  0.2435  1.4925
19693TIP3   OH280569   2.342   6.050   0.238 -0.0526 -0.6445 -0.4697
19693TIP3    H180570   2.340   6.033   0.332  0.8296  1.7825  0.0784
19693TIP3    H280571   2.431   6.026   0.211  1.2942  2.7368  0.3630
19694TIP3   OH280572   0.694   6.302  11.744 -0.6393  0.1567  0.2701
19694TIP3    H180573   0.712   6.222  11.696  2.5355  0.1446  1.2410
19694TIP3    H280574   0.684   6.369  11.676  0.2604 -0.4601 -0.4914
19695TIP3   OH280575   6.704   1.666   2.122  0.1831 -0.3281  0.5588
19695TIP3    H180576   6.713   1.659   2.027  1.8203  1.4075  0.5361
19695TIP3    H280577   6.782   1.713   2.150 -1.3982  1.3334  2.4807
19696TIP3   OH280578   2.386   2.718  11.661 -0.1898 -0.5079  0.1921
19696TIP3    H180579   2.438   2.797  11.650 -0.5640 -0.5910 -3.2561
19696TIP3    H280580   2.451   2.647  11.664  0.0284 -0.3007  0.4490
19697TIP3   OH280581   5.145   1.522  14.079  0.4544 -0.3316 -0.5595
19697TIP3    H180582   5.082   1.557  14.142  1.1888 -0.8854  0.5087
19697TIP3    H280583   5.091   1.476  14.014 -0.2738 -0.3094  0.0200
19698TIP3   OH280584   0.575   1.376  16.032  0.0555 -0.2995  0.2947
19698TIP3    H180585   0.594   1.354  15.941 -0.3648  1.2045 -0.1868
19698TIP3    H280586   0.541   1.295  16.069  1.0634 -1.1918 -0.6226
19699TIP3   OH280587   1.084   0.140   3.418  0.5270  1.2208  0.0813
19699TIP3    H180588   1.173   0.123   3.387  0.0455 -0.7900 -0.3272
19699TIP3    H280589   1.095   0.210   3.483  2.0647  2.6945 -1.6502
19700TIP3   OH280590   1.851   5.787  10.822  0.5586  0.1349  0.5465
19700TIP3    H180591   1.894   5.706  10.851  0.0619 -0.4419 -0.2779
19700TIP3    H280592   1.845   5.778  10.727 -2.4916 -0.4072  0.6799
19701TIP3   OH280593   0.809   5.893  12.033  0.1895  0.5666  0.3316
19701TIP3    H180594   0.879   5.838  12.069 -0.5589 -2.2263 -2.0831
19701TIP3    H280595   0.851   5.938  11.959 -0.5681 -1.8662 -1.7528
19702TIP3   OH280596   6.792   1.910   1.337  0.0547 -0.1378 -0.2028
19702TIP3    H180597   6.824   1.926   1.248 -1.1813 -1.3282 -0.8951
19702TIP3    H280598   6.697   1.906   1.328 -0.2131  1.3551  1.4712
19703TIP3   OH280599   2.220   1.317  10.927 -0.0243  0.0113 -0.2241
19703TIP3    H180600   2.169   1.296  11.005 -2.7612  1.0739 -1.6008
19703TIP3    H280601   2.173   1.275  10.855  2.9189 -1.6932 -1.3145
19704TIP3   OH280602   3.121   4.171  11.900 -0.0097  0.0491 -0.0498
19704TIP3    H180603   3.152   4.142  11.815 -0.1308  0.6426 -0.3025
19704TIP3    H280604   3.044   4.224  11.881 -0.6859 -0.7040  0.5092
19705TIP3   OH280605   1.381   4.277  15.808 -0.0146  0.4693 -0.3102
19705TIP3    H180606   1.289   4.278  15.835  0.7106 -2.0106  2.9881
19705TIP3    H280607   1.424   4.337  15.868  0.6155  1.4102 -1.6582
19706TIP3   OH280608   3.248   2.489  16.993  0.1835 -0.4842  0.5985
19706TIP3    H180609   3.289   2.570  16.960 -1.4919 -0.0243 -0.4513
19706TIP3    H280610   3.262   2.493  17.088  2.0342 -0.0772  0.3610
19707TIP3   OH280611   2.769   3.578  13.175  0.0402 -0.0056 -0.0016
19707TIP3    H180612   2.812   3.652  13.218 -0.7541  0.2545  0.3550
19707TIP3    H280613   2.679   3.579  13.208  0.0060 -1.1033 -0.0255
19708TIP3   OH280614   6.531   5.635  12.385 -0.0812  0.0529 -0.3211
19708TIP3    H180615   6.530   5.597  12.473 -2.2454 -2.4368 -1.2971
19708TIP3    H280616   6.592   5.580  12.336  0.2269  0.6977 -0.6686
19709TIP3   OH280617   1.864   5.087   5.535 -0.6382 -0.1681 -0.2315
19709TIP3    H180618   1.824   5.119   5.615 -2.0154 -2.9666  0.3359
19709TIP3    H280619   1.839   5.150   5.468 -1.1186  1.1807  1.1689
19710TIP3   OH280620   4.884   2.554  14.144  0.2593  0.4057 -0.5765
19710TIP3    H180621   4.883   2.544  14.239 -0.4038  1.8201 -0.4141
19710TIP3    H280622   4.856   2.468  14.111  0.2876 -0.0360  0.5031
19711TIP3   OH280623   4.994   0.580   5.750  0.3284  0.0351  0.1064
19711TIP3    H180624   5.074   0.581   5.697  0.8141  1.6265  0.8100
19711TIP3    H280625   4.950   0.662   5.728 -0.8377 -0.5528  0.1621
19712TIP3   OH280626   6.343   3.844   4.363  0.0426  0.3165  0.2213
19712TIP3    H180627   6.309   3.791   4.291 -1.9052  1.8473 -0.0893
19712TIP3    H280628   6.322   3.794   4.442  0.7282 -0.6142 -0.1666
19713TIP3   OH280629   5.112   3.291   5.386  0.2289 -0.4121 -0.1764
19713TIP3    H180630   5.034   3.267   5.336 -1.7862  1.1501  2.0276
19713TIP3    H280631   5.115   3.387   5.382 -0.0197 -0.2122  2.5869
19714TIP3   OH280632   1.014   0.602   0.164 -0.3479  0.0777 -0.0382
19714TIP3    H180633   0.980   0.619   0.251 -0.9486  0.6346 -0.3723
19714TIP3    H280634   1.075   0.674   0.147  0.3327 -0.4264  0.2008
19715TIP3   OH280635   6.486   2.208   4.967 -0.0956  0.3650 -0.7576
19715TIP3    H180636   6.539   2.214   5.046  0.3950  0.4153 -1.0836
19715TIP3    H280637   6.477   2.298   4.937  0.4248  0.2773 -1.2073
19716TIP3   OH280638   1.494   1.589   3.856  0.1871  0.0046 -0.9754
19716TIP3    H180639   1.587   1.595   3.877  0.1136  0.9299 -0.8689
19716TIP3    H280640   1.479   1.496   3.836  0.6900 -0.5504  1.0253
19717TIP3   OH280641   1.139   3.720   3.034 -0.3975  0.0761  0.0228
19717TIP3    H180642   1.230   3.749   3.028 -0.3845  0.0049 -0.1160
19717TIP3    H280643   1.092   3.770   2.968 -0.4503  0.0745  0.0582
19718TIP3   OH280644   1.987   6.676  13.686  0.1439  0.3285 -0.9349
19718TIP3    H180645   2.019   6.698  13.774  0.8445  0.9308 -1.3320
19718TIP3    H280646   2.061   6.694  13.628  0.0411 -1.0697 -1.5388
19719TIP3   OH280647   4.846   2.810   6.005 -0.6690  0.3825  0.8238
19719TIP3    H180648   4.852   2.901   6.034 -0.3123  0.3293  0.9178
19719TIP3    H280649   4.798   2.815   5.922 -0.1949  0.7141  0.5588
19720TIP3   OH280650   0.579   4.063  15.104 -0.1320 -0.2950  0.0373
19720TIP3    H180651   0.636   4.037  15.032  1.5293 -0.6566  1.4144
19720TIP3    H280652   0.511   3.995  15.106 -0.9178  0.3670 -1.8798
19721TIP3   OH280653   5.193   6.079   5.914  0.4207  0.4236  0.6023
19721TIP3    H180654   5.132   6.128   5.970  0.9404  0.3391  1.2508
19721TIP3    H280655   5.253   6.037   5.975 -0.7810 -2.1033  0.1623
19722TIP3   OH280656   5.599   3.894   2.235  0.0029 -0.4430 -0.4841
19722TIP3    H180657   5.613   3.817   2.291 -0.2953 -0.8300 -0.9432
19722TIP3    H280658   5.522   3.873   2.183 -1.4021  1.0363  0.8899
19723TIP3   OH280659   6.376   3.847   3.070  0.7075 -0.2145  0.2693
19723TIP3    H180660   6.332   3.792   3.135 -0.6757 -0.9568 -1.1994
19723TIP3    H280661   6.428   3.786   3.018 -1.2245 -0.3445 -1.6894
19724TIP3   OH280662   3.673   0.899   1.745 -0.2727 -0.1413 -0.1264
19724TIP3    H180663   3.639   0.977   1.788 -1.5544 -0.9563  0.3787
19724TIP3    H280664   3.716   0.932   1.666 -1.2907  1.0295 -0.2172
19725TIP3   OH280665   4.225   0.260  14.361 -0.2108 -0.2063 -0.6184
19725TIP3    H180666   4.314   0.295  14.362 -0.5778  0.7748 -0.8093
19725TIP3    H280667   4.169   0.338  14.368 -1.0382 -0.9282  1.3797
19726TIP3   OH280668   2.004   1.290  11.120 -0.1134 -0.0421 -0.0356
19726TIP3    H180669   1.952   1.369  11.138 -1.4579 -1.1572  1.1369
19726TIP3    H280670   1.940   1.220  11.114  1.2469 -1.4589  1.3316
19727TIP3   OH280671   2.064   5.440  12.677  0.4056 -0.5545  0.0682
19727TIP3    H180672   2.110   5.372  12.628 -0.2202 -0.9208 -0.0263
19727TIP3    H280673   1.995   5.470  12.618  0.0012 -0.5990  0.5045
19728TIP3   OH280674   0.365   2.447   5.619  0.8513  0.3973  0.3466
19728TIP3    H180675   0.457   2.465   5.638  0.1740  2.1454  2.3608
19728TIP3    H280676   0.318   2.526   5.647 -1.3842 -0.8877  0.5255
19729TIP3   OH280677   6.301   4.837  15.237  0.6936 -0.4991  0.3938
19729TIP3    H180678   6.260   4.820  15.152 -2.1398  0.1948  1.4977
19729TIP3    H280679   6.341   4.924  15.228 -0.3584 -0.0392 -0.0172
19730TIP3   OH280680   2.025   6.549   2.839  0.3164  0.1436 -0.2893
19730TIP3    H180681   2.056   6.640   2.829  0.8983  0.2943  2.2582
19730TIP3    H280682   2.078   6.499   2.776  0.8490  1.3834 -0.8700
19731TIP3   OH280683   6.253   4.510   2.199 -0.2915  0.5753  0.6211
19731TIP3    H180684   6.242   4.506   2.294  1.7675 -0.0979  0.8713
19731TIP3    H280685   6.219   4.427   2.167 -1.0458  0.8281  0.7509
19732TIP3   OH280686   3.715   5.406  11.166 -0.1479  0.3810 -0.0972
19732TIP3    H180687   3.752   5.486  11.128 -1.9175  1.0477 -0.4819
19732TIP3    H280688   3.626   5.401  11.131  0.0617 -2.0203 -0.4759
19733TIP3   OH280689   6.551   1.217  11.016 -0.0779  0.4222  0.3954
19733TIP3    H180690   6.576   1.223  10.924  0.8903 -0.7589  0.5686
19733TIP3    H280691   6.529   1.125  11.030 -1.4499  0.8206  1.0550
19734TIP3   OH280692   2.970   5.592   1.648  0.0579  0.5483  0.2871
19734TIP3    H180693   3.060   5.587   1.681  0.3387  1.0604 -0.3807
19734TIP3    H280694   2.971   5.536   1.570 -0.1315  0.7697  0.1265
19735TIP3   OH280695   0.425   5.952  11.183 -0.2531  0.1025  0.0485
19735TIP3    H180696   0.518   5.970  11.169 -0.2618  0.0218 -0.1166
19735TIP3    H280697   0.381   6.034  11.158 -0.4649 -0.7373 -2.6927
19736TIP3   OH280698   2.011   3.057   2.743  0.4411 -0.0008  0.0178
19736TIP3    H180699   2.050   3.129   2.792  2.3635 -1.6791  1.1159
19736TIP3    H280700   1.953   3.013   2.806 -0.7083  0.5115 -0.6390
19737TIP3   OH280701   4.611   4.842  13.977  0.0153  0.2379  0.5898
19737TIP3    H180702   4.543   4.796  14.028 -0.3519  1.5096  1.3091
19737TIP3    H280703   4.564   4.914  13.936  1.2686  2.6335  3.0412
19738TIP3   OH280704   6.642   1.282   5.411 -0.4108 -0.1226  0.0142
19738TIP3    H180705   6.590   1.298   5.490 -0.2823  0.3648 -0.0014
19738TIP3    H280706   6.730   1.312   5.433 -0.5774  0.8900 -0.6222
19739TIP3   OH280707   1.454   0.507  10.924 -0.4526 -0.4942 -0.0382
19739TIP3    H180708   1.506   0.474  10.852 -0.7754 -1.3555  0.1083
19739TIP3    H280709   1.403   0.578  10.887 -1.2565 -1.4824 -0.8912
19740TIP3   OH280710   4.326   2.398   6.515 -0.1800 -0.2621 -0.7069
19740TIP3    H180711   4.303   2.320   6.465 -0.6576  0.4333 -1.5986
19740TIP3    H280712   4.243   2.428   6.553  0.3117 -1.3249  1.3527
19741TIP3   OH280713   4.450   4.518  11.900  0.0124 -0.7743  0.2380
19741TIP3    H180714   4.509   4.475  11.838 -1.0117 -0.9800 -0.6307
19741TIP3    H280715   4.486   4.497  11.986  0.7208 -1.5972 -0.2383
19742TIP3   OH280716   4.753   3.193  14.063 -0.5087  0.0418 -0.2637
19742TIP3    H180717   4.819   3.169  14.128 -1.2432  3.5104  1.9925
19742TIP3    H280718   4.802   3.244  13.998 -0.4491 -0.0074 -0.2573
19743TIP3   OH280719   5.910   3.543   1.436 -0.1032  0.5234  0.4373
19743TIP3    H180720   5.879   3.611   1.496  0.1249  1.6621 -0.7052
19743TIP3    H280721   5.967   3.589   1.375  0.9603 -0.9068  0.3064
19744TIP3   OH280722   4.372   2.113   3.766 -0.1490 -0.2918 -0.3711
19744TIP3    H180723   4.446   2.110   3.827 -0.9275 -0.6412  0.5789
19744TIP3    H280724   4.362   2.206   3.745  0.6331 -0.2557 -0.6114
19745TIP3   OH280725   3.215   6.477  15.535  0.3128  0.3869 -0.1138
19745TIP3    H180726   3.178   6.565  15.542  0.6292  0.4272  1.2016
19745TIP3    H280727   3.307   6.488  15.558  0.7703 -0.0182 -1.6190
19746TIP3   OH280728   6.398   4.418   1.370  0.3140 -0.1596  0.3757
19746TIP3    H180729   6.452   4.493   1.393 -1.6301  0.5957  2.9442
19746TIP3    H280730   6.335   4.452   1.306  0.3904  0.0071  0.3886
19747TIP3   OH280731   5.161   4.946   3.703  0.0705 -0.1182 -0.8797
19747TIP3    H180732   5.137   5.010   3.637  0.9207  0.4144 -0.6940
19747TIP3    H280733   5.209   4.996   3.769  1.6997 -1.0783 -1.2555
19748TIP3   OH280734   4.707   1.167  15.048 -0.8966 -0.3802  0.2827
19748TIP3    H180735   4.660   1.127  14.975 -0.2239  1.4596 -1.2252
19748TIP3    H280736   4.723   1.257  15.021  1.9489 -0.4168  1.4347
19749TIP3   OH280737   4.180   1.698  16.228  0.5401 -0.2742 -0.0756
19749TIP3    H180738   4.125   1.647  16.168 -0.6014  0.2121  0.5351
19749TIP3    H280739   4.221   1.764  16.172  0.7605 -0.8439 -0.5932
19750TIP3   OH280740   2.421   4.377   1.283 -0.1271 -0.0254  0.4672
19750TIP3    H180741   2.387   4.412   1.200 -2.5679  3.1425  2.5351
19750TIP3    H280742   2.378   4.292   1.293 -1.5742  0.5498 -0.5265
19751TIP3   OH280743   4.201   4.292  12.583 -0.1511 -0.9328 -0.4969
19751TIP3    H180744   4.153   4.320  12.505  0.6629 -1.4644 -1.2079
19751TIP3    H280745   4.292   4.288  12.555  0.2010 -0.7951  0.5861
19752TIP3   OH280746   3.357   0.382   4.556 -0.5763  0.0423  0.1344
19752TIP3    H180747   3.362   0.463   4.607 -1.4184  0.8284 -0.9770
19752TIP3    H280748   3.448   0.353   4.548 -0.4021  0.0090  1.8542
19753TIP3   OH280749   6.019   5.246  14.925  0.4297 -0.6819  0.6141
19753TIP3    H180750   5.974   5.326  14.899  0.3995 -1.0716 -0.6107
19753TIP3    H280751   5.949   5.187  14.955  0.3105 -0.6885  0.3236
19754TIP3   OH280752   3.951   1.527   2.240 -0.2750  0.2160 -0.3422
19754TIP3    H180753   4.037   1.567   2.256 -1.1999  1.6617  1.4699
19754TIP3    H280754   3.944   1.458   2.306 -0.8671  0.7539  0.1723
19755TIP3   OH280755   6.560   0.694   5.755 -0.1766  0.3242 -0.4946
19755TIP3    H180756   6.488   0.750   5.727  0.0380  0.8886  0.0579
19755TIP3    H280757   6.525   0.605   5.748 -0.9330  0.5914 -0.2207
19756TIP3   OH280758   5.136   1.763  15.443  0.0589  0.1043 -0.6296
19756TIP3    H180759   5.081   1.839  15.423  0.4183  0.2577 -1.0700
19756TIP3    H280760   5.225   1.792  15.421  0.1538 -0.5766 -1.1928
19757TIP3   OH280761   2.610   5.169   0.568 -0.0627 -0.1634  0.1727
19757TIP3    H180762   2.698   5.143   0.541  1.1241  1.9334  1.7678
19757TIP3    H280763   2.612   5.165   0.663 -1.5282  0.4885  0.2494
19758TIP3   OH280764   6.609   3.827   4.667 -0.4313 -0.0972  0.6245
19758TIP3    H180765   6.646   3.839   4.580 -1.6214  1.6203  0.3061
19758TIP3    H280766   6.543   3.758   4.655 -1.0126  0.5492  0.0084
19759TIP3   OH280767   0.101   5.802   2.509 -0.3560 -0.2040  0.2441
19759TIP3    H180768   0.159   5.835   2.578 -0.5277  2.1695 -0.6486
19759TIP3    H280769   0.029   5.760   2.556 -1.0109  2.2679  1.6703
19760TIP3   OH280770   0.657   1.836   1.110  0.4690 -0.1345 -0.1569
19760TIP3    H180771   0.614   1.757   1.078 -0.6495  1.0237 -1.6186
19760TIP3    H280772   0.748   1.810   1.124 -0.3976 -2.3849  2.0710
19761TIP3   OH280773   4.966   6.224  15.873  0.2724  0.2916  0.0550
19761TIP3    H180774   5.037   6.172  15.835 -1.2579 -1.9824  0.1190
19761TIP3    H280775   4.944   6.287  15.806 -0.5872 -1.9060 -1.8648
19762TIP3   OH280776   2.977   4.064   4.406  0.4347  0.3069  0.2333
19762TIP3    H180777   3.001   4.140   4.352 -1.5027 -0.5474 -2.0235
19762TIP3    H280778   2.885   4.048   4.385  0.2962 -1.6243  1.9956
19763TIP3   OH280779   0.375   4.105  16.260 -0.0072 -0.1623 -0.1229
19763TIP3    H180780   0.413   4.191  16.245 -2.5944  0.8256 -1.5490
19763TIP3    H280781   0.346   4.107  16.352  1.8730 -0.3777  0.5103
19764TIP3   OH280782   3.379   3.376  15.829 -0.5244  0.0439 -0.0383
19764TIP3    H180783   3.293   3.414  15.811  0.2289  0.9736 -2.0125
19764TIP3    H280784   3.371   3.284  15.801 -1.3114 -0.3180  1.3200
19765TIP3   OH280785   0.602   5.188   4.726 -0.4697 -0.4590 -0.2065
19765TIP3    H180786   0.591   5.194   4.821  1.6125  1.4909 -0.0049
19765TIP3    H280787   0.570   5.100   4.704 -1.9559 -0.6064  2.1070
19766TIP3   OH280788   5.968   3.513   0.839  0.4770  0.6159  0.0314
19766TIP3    H180789   5.910   3.456   0.789 -0.4855  0.8358  0.8899
19766TIP3    H280790   5.961   3.482   0.929  1.6503  0.6906  0.1667
19767TIP3   OH280791   0.508   2.639  12.792  0.1293 -0.6647 -0.3129
19767TIP3    H180792   0.435   2.680  12.840 -0.1200  0.8413 -1.9030
19767TIP3    H280793   0.516   2.552  12.832 -0.5245  0.2337  1.9554
19768TIP3   OH280794   4.234   2.175   2.441  0.2713 -0.0330 -0.1456
19768TIP3    H180795   4.223   2.135   2.527 -0.6908 -0.1674 -0.3204
19768TIP3    H280796   4.167   2.134   2.386  0.5872  0.3647 -0.8493
19769TIP3   OH280797   1.315   1.030  11.509 -0.7160  0.1356 -0.4949
19769TIP3    H180798   1.325   0.949  11.559 -1.8348  1.4116  2.0420
19769TIP3    H280799   1.331   1.006  11.418 -1.1182 -2.9222  0.1539
19770TIP3   OH280800   5.801   2.610  13.681  0.6322  0.1017 -0.4533
19770TIP3    H180801   5.829   2.700  13.663  0.1901  0.4697  0.6210
19770TIP3    H280802   5.839   2.590  13.767  0.2630 -0.5357 -0.4337
19771TIP3   OH280803   4.250   5.890  16.257  0.7896 -0.2487 -0.2801
19771TIP3    H180804   4.170   5.897  16.204  0.4416 -0.3043  0.2386
19771TIP3    H280805   4.305   5.828  16.209 -0.1769 -1.5427  0.2317
19772TIP3   OH280806   6.545   6.209   0.380  0.4579  0.4035 -0.2446
19772TIP3    H180807   6.559   6.253   0.464 -0.3357 -0.9579  0.6420
19772TIP3    H280808   6.602   6.133   0.383 -0.4520 -0.2995 -0.4136
19773TIP3   OH280809   5.556   1.529  14.808 -0.1272 -0.3337  0.0878
19773TIP3    H180810   5.537   1.438  14.828 -3.0071  0.6895  2.9155
19773TIP3    H280811   5.523   1.541  14.719 -0.5842 -1.7959  0.0308
19774TIP3   OH280812   1.010   3.285  16.783  0.3739  0.3972  0.5323
19774TIP3    H180813   1.007   3.202  16.829 -1.6684  0.3175  0.3818
19774TIP3    H280814   1.093   3.285  16.736  0.6386 -1.3150  0.9645
19775TIP3   OH280815   3.084   5.975  11.687 -0.6386 -0.2915  0.3492
19775TIP3    H180816   3.115   6.057  11.647  0.3473 -0.3777  0.9114
19775TIP3    H280817   3.018   6.004  11.750  0.8960  0.2706  1.7762
19776TIP3   OH280818   1.882   6.636  16.129  0.0027 -0.0585  0.1595
19776TIP3    H180819   1.958   6.587  16.162 -0.5832  0.1089  1.8346
19776TIP3    H280820   1.875   6.711  16.187 -1.4790 -0.1080  0.0696
19777TIP3   OH280821   4.273   1.925   1.305 -0.1290  0.0044 -0.1470
19777TIP3    H180822   4.202   1.907   1.366 -2.2251 -0.2203 -2.4802
19777TIP3    H280823   4.284   1.843   1.256  1.3872  0.2062 -0.2113
19778TIP3   OH280824   4.007   3.472  16.665 -0.1698  0.9052  1.0377
19778TIP3    H180825   4.010   3.398  16.605 -1.2656  1.2542  0.5334
19778TIP3    H280826   4.019   3.433  16.752 -0.8608  0.1134  0.7952
19779TIP3   OH280827   3.187   5.857  16.085 -0.3434 -0.1344 -0.5738
19779TIP3    H180828   3.150   5.831  16.169  0.8570 -2.3460 -0.6570
19779TIP3    H280829   3.233   5.939  16.102 -1.5579  0.3472  0.5016
19780TIP3   OH280830   3.113   3.475  15.879  0.4844 -0.1483 -0.5229
19780TIP3    H180831   3.127   3.569  15.879 -1.7647  0.2591 -1.8834
19780TIP3    H280832   3.055   3.458  15.953 -0.9313 -0.0990 -1.5915
19781TIP3   OH280833   5.654   3.096   2.579 -0.2368  0.1872 -0.0727
19781TIP3    H180834   5.663   3.001   2.587  0.0109  0.2442  0.3614
19781TIP3    H280835   5.611   3.122   2.660  1.4716  0.6698  0.7413
19782TIP3   OH280836   3.318   4.346  11.610  0.0008  0.1840  0.1191
19782TIP3    H180837   3.272   4.414  11.658 -0.5972  1.2693 -1.8663
19782TIP3    H280838   3.252   4.277  11.597  0.2676 -0.2722  1.1201
19783TIP3   OH280839   0.843   1.386   2.967  0.4617 -0.3912  0.0770
19783TIP3    H180840   0.805   1.300   2.987  0.2916 -0.6832 -1.4215
19783TIP3    H280841   0.784   1.449   3.009  1.1532 -0.9951  2.1035
19784TIP3   OH280842   2.212   6.259   3.086  0.0674 -0.6261  0.6966
19784TIP3    H180843   2.190   6.175   3.045 -1.0680 -0.1603  0.3106
19784TIP3    H280844   2.289   6.289   3.037 -3.0142  1.4426 -3.5713
19785TIP3   OH280845   0.090   4.167  14.864  0.5413 -0.2279  0.4101
19785TIP3    H180846   0.042   4.249  14.857  0.0486 -0.5900 -0.5247
19785TIP3    H280847   0.147   4.179  14.941  1.0202  1.2601 -0.1477
19786TIP3   OH280848   0.483   0.092   6.276 -0.8700  0.0649 -0.0380
19786TIP3    H180849   0.514   0.072   6.188 -2.4159  0.4228 -0.7102
19786TIP3    H280850   0.557   0.136   6.318  0.7417 -2.2242 -0.2868
19787TIP3   OH280851   0.385   2.842  10.825 -0.1722  0.1975  0.3528
19787TIP3    H180852   0.434   2.919  10.851 -0.5449  0.0039  1.6982
19787TIP3    H280853   0.448   2.788  10.778  0.5722  0.5176  0.9627
19788TIP3   OH280854   3.130   6.778   5.962  0.0600  0.4817 -0.3498
19788TIP3    H180855   3.226   6.778   5.964  0.0840 -0.8392 -0.7435
19788TIP3    H280856   3.105   6.842   6.028  1.2243  2.3766 -1.6235
19789TIP3   OH280857   6.711   1.807  15.411  0.4609 -0.0009 -0.0633
19789TIP3    H180858   6.618   1.795  15.428  0.1275  1.5451 -0.6524
19789TIP3    H280859   6.729   1.749  15.337 -0.9318  2.3269 -2.3824
19790TIP3   OH280860   4.429   3.002   6.033  0.0739  0.1241  0.2659
19790TIP3    H180861   4.336   3.008   6.055 -0.0896  1.7773 -0.7257
19790TIP3    H280862   4.472   3.061   6.095  0.6471 -1.4658  1.4547
19791TIP3   OH280863   0.532   4.001   5.150 -0.2910  0.3569 -0.1222
19791TIP3    H180864   0.571   3.978   5.066  3.8291 -1.5140  2.0412
19791TIP3    H280865   0.545   4.095   5.158  1.7039  0.1462 -0.5330
19792TIP3   OH280866   4.467   6.165   3.475  1.0850 -0.0474 -0.0210
19792TIP3    H180867   4.461   6.070   3.475  0.1194  0.0050  0.6077
19792TIP3    H280868   4.561   6.183   3.466  1.2874 -1.0529  0.0096
19793TIP3   OH280869   2.507   5.174  12.700 -0.0526 -0.0894  0.5445
19793TIP3    H180870   2.558   5.128  12.634  1.3625 -0.4018  1.7952
19793TIP3    H280871   2.415   5.156  12.677  0.4114 -3.2349  0.7104
19794TIP3   OH280872   4.106   0.731  16.560 -0.2985 -0.2240  0.1521
19794TIP3    H180873   4.196   0.698  16.562 -0.4997 -0.8218 -0.2737
19794TIP3    H280874   4.110   0.808  16.503 -0.3954 -1.3705 -1.4774
19795TIP3   OH280875   2.104   3.248  14.489 -0.0495 -0.4030 -0.0268
19795TIP3    H180876   2.084   3.163  14.528 -0.3600 -0.0370  0.6205
19795TIP3    H280877   2.137   3.227  14.402 -1.2790 -1.1269 -0.3387
19796TIP3   OH280878   1.890   5.017   2.731 -0.2944  0.0407  0.3645
19796TIP3    H180879   1.868   4.968   2.810  0.5252  0.8908  1.1490
19796TIP3    H280880   1.806   5.045   2.695 -0.6422  0.7684  1.6801
19797TIP3   OH280881   6.647   6.538   1.412 -0.0232  0.3307 -0.1636
19797TIP3    H180882   6.687   6.622   1.432  0.4721  0.3497 -1.1321
19797TIP3    H280883   6.616   6.547   1.322  0.9267 -0.8215 -0.6448
19798TIP3   OH280884   1.277   3.962  13.540  0.5308  0.6255  0.1252
19798TIP3    H180885   1.333   3.974  13.617 -0.3973 -3.3197  1.6463
19798TIP3    H280886   1.188   3.968  13.575  0.0805 -2.5024 -0.1983
19799TIP3   OH280887   0.684   2.299   5.491  0.3562  0.5393 -0.1334
19799TIP3    H180888   0.637   2.289   5.409 -2.0998  1.7505  1.0331
19799TIP3    H280889   0.733   2.217   5.501  0.2580  0.1175 -2.4522
19800TIP3   OH280890   5.467   6.439  16.958 -0.5073 -0.2553 -0.0439
19800TIP3    H180891   5.552   6.433  16.914 -0.2201 -3.9759  0.7096
19800TIP3    H280892   5.484   6.492  17.036  0.8220  0.0203 -0.5003
19801TIP3   OH280893   6.761   5.642  11.141 -0.1388  0.2197  0.0295
19801TIP3    H180894   6.678   5.611  11.106 -0.2960 -0.5760  1.0342
19801TIP3    H280895   6.826   5.582  11.103 -0.0558  0.6538 -0.5193
19802TIP3   OH280896   2.993   1.858   5.006  0.0567 -0.0675 -0.1832
19802TIP3    H180897   2.985   1.876   5.100 -1.8049 -1.7110  0.0516
19802TIP3    H280898   3.005   1.763   5.001 -2.1931 -0.3597 -1.6129
19803TIP3   OH280899   4.337   5.327  10.593 -0.1773 -0.1976 -0.1921
19803TIP3    H180900   4.385   5.371  10.664 -0.5512 -0.3299  0.1473
19803TIP3    H280901   4.270   5.390  10.567 -1.2033 -0.8449  0.8130
19804TIP3   OH280902   0.049   0.804  12.854  0.0807  0.4273  0.4871
19804TIP3    H180903   0.104   0.863  12.905  0.6603  0.0879  0.2614
19804TIP3    H280904   0.111   0.749  12.806 -0.4426 -0.4497  0.7901
19805TIP3   OH280905   3.877   5.531   1.845  0.0871 -0.4059 -0.4147
19805TIP3    H180906   3.963   5.490   1.835  0.3613 -0.2937  1.1719
19805TIP3    H280907   3.892   5.601   1.908 -1.4962 -1.4505  1.1983
19806TIP3   OH280908   5.351   5.907   3.234  0.3470 -0.3174 -0.0673
19806TIP3    H180909   5.261   5.938   3.224  0.1268 -0.6316  0.8266
19806TIP3    H280910   5.342   5.825   3.283  1.2223  0.4500  1.4410
19807TIP3   OH280911   4.808   6.669  11.464 -0.4864  0.0901  0.0778
19807TIP3    H180912   4.858   6.635  11.538 -0.2492 -0.9452 -0.5421
19807TIP3    H280913   4.871   6.723  11.415 -0.4925  0.3211  0.3242
19808TIP3   OH280914   6.721   2.541   0.519  0.5597  0.6368 -0.6582
19808TIP3    H180915   6.768   2.558   0.600 -1.2172  1.5384  0.2503
19808TIP3    H280916   6.650   2.606   0.518 -1.0639 -1.0353 -1.6036
19809TIP3   OH280917   6.526   5.405   4.543 -0.3868  0.5382  0.2920
19809TIP3    H180918   6.505   5.388   4.635 -2.6520  0.9704 -0.0981
19809TIP3    H280919   6.521   5.500   4.534  0.0190  0.5138 -0.2378
19810TIP3   OH280920   5.989   3.890  11.900 -0.1044  0.0237  0.5699
19810TIP3    H180921   5.937   3.823  11.854  1.2512  0.2179 -1.3704
19810TIP3    H280922   6.074   3.849  11.915  1.0564  1.5127 -1.4470
19811TIP3   OH280923   0.117   1.962   2.390  0.0707  0.1538 -0.2630
19811TIP3    H180924   0.038   1.995   2.346  0.4427 -0.7246 -1.6317
19811TIP3    H280925   0.103   1.983   2.482 -1.1613  1.2083 -0.6558
19812TIP3   OH280926   5.806   4.248   2.751  0.4645 -0.4657  0.1580
19812TIP3    H180927   5.855   4.330   2.747  1.4344 -0.8777  2.2264
19812TIP3    H280928   5.859   4.185   2.702  0.6821 -0.2947  0.1750
19813TIP3   OH280929   6.764   5.980  12.886 -0.6859  0.5552 -0.0210
19813TIP3    H180930   6.723   6.055  12.842  1.2256  1.4959 -0.2726
19813TIP3    H280931   6.840   5.959  12.832 -0.6987 -1.0317  0.5315
19814TIP3   OH280932   5.337   1.811   0.342 -0.1704 -0.6180  0.1229
19814TIP3    H180933   5.356   1.717   0.340  2.7918 -0.1193  0.2237
19814TIP3    H280934   5.419   1.853   0.315 -1.5133  1.9573 -0.2911
19815TIP3   OH280935   5.334   2.206  16.155 -0.6362 -0.1039  0.0611
19815TIP3    H180936   5.286   2.266  16.212 -0.4755 -1.8457  2.1327
19815TIP3    H280937   5.421   2.246  16.146 -1.5538  1.7093 -1.5414
19816TIP3   OH280938   0.811   1.185  14.326 -0.0859  0.0723  0.3429
19816TIP3    H180939   0.819   1.247  14.254  0.8565 -1.1215 -0.6084
19816TIP3    H280940   0.722   1.197  14.358 -0.9650 -0.2201 -1.8342
19817TIP3   OH280941   5.216   5.485  14.325  0.5135 -0.3780 -0.1440
19817TIP3    H180942   5.162   5.411  14.295 -0.7513  0.0065  1.0630
19817TIP3    H280943   5.179   5.561  14.279 -0.5587  0.0080  1.2801
19818TIP3   OH280944   3.839   0.671  12.737 -0.5364 -0.1936 -0.1456
19818TIP3    H180945   3.802   0.759  12.736 -0.8478 -0.2543  1.6365
19818TIP3    H280946   3.764   0.614  12.751 -0.1244 -0.5619  0.6458
19819TIP3   OH280947   2.162   6.193  16.604  0.4517 -0.2202 -0.1906
19819TIP3    H180948   2.227   6.197  16.674  1.6262  0.5261 -1.2805
19819TIP3    H280949   2.171   6.277  16.559 -2.2197  0.4942  0.4206
19820TIP3   OH280950   1.419   5.367  12.476 -0.1428  0.5154  0.0146
19820TIP3    H180951   1.396   5.278  12.501  1.2652  0.1135 -0.0455
19820TIP3    H280952   1.484   5.357  12.407 -1.3967  1.6109 -1.4229
19821TIP3   OH280953   1.820   3.816  11.156  0.3147  0.3929  0.6869
19821TIP3    H180954   1.786   3.792  11.070  1.6031  1.2031 -0.0877
19821TIP3    H280955   1.821   3.912  11.155 -0.4028  0.4415  1.9325
19822TIP3   OH280956   3.029   4.143   2.916 -0.1133 -0.0714  0.3207
19822TIP3    H180957   3.103   4.101   2.871 -1.0236  0.0421 -1.3343
19822TIP3    H280958   2.951   4.101   2.880 -0.9029  0.3223  1.5097
19823TIP3   OH280959   4.536   2.535   0.256 -0.3205 -0.4574 -0.0003
19823TIP3    H180960   4.473   2.550   0.185  0.4012  0.4984 -0.4502
19823TIP3    H280961   4.618   2.516   0.211  1.2062  4.0719  0.3779
19824TIP3   OH280962   3.922   1.953   4.826 -0.1645  0.1838 -0.4097
19824TIP3    H180963   3.957   2.027   4.776  0.9414 -1.2194 -1.7993
19824TIP3    H280964   3.908   1.988   4.914 -0.2574  2.1964 -1.1685
19825TIP3   OH280965   5.530   2.362   3.661  0.5128 -0.3916  0.2884
19825TIP3    H180966   5.516   2.394   3.750 -0.5491 -0.2898  0.0952
19825TIP3    H280967   5.579   2.281   3.671  0.9987 -0.0210  0.9254
19826TIP3   OH280968   0.564   4.339  12.958  0.3396 -0.7247  0.3900
19826TIP3    H180969   0.552   4.387  13.040  0.6197 -0.5547  0.3326
19826TIP3    H280970   0.599   4.254  12.984 -0.2132 -0.9263  0.4965
19827TIP3   OH280971   4.918   5.693  16.561 -0.0892  0.6019  0.4626
19827TIP3    H180972   4.908   5.600  16.537 -1.5828  0.6553  0.7693
19827TIP3    H280973   4.829   5.728  16.554  0.5517  2.1544 -0.1828
19828TIP3   OH280974   1.349   5.045   1.039  0.6546 -0.1352 -0.3242
19828TIP3    H180975   1.407   4.980   1.080  0.1486 -0.2870  0.1616
19828TIP3    H280976   1.264   5.002   1.035  0.0393  0.8907  1.0225
19829TIP3   OH280977   1.232   0.098  15.279 -0.0402  0.2636 -0.0334
19829TIP3    H180978   1.259   0.066  15.365 -0.9222 -0.6596 -0.0752
19829TIP3    H280979   1.308   0.147  15.246  1.0498 -1.0393  0.4405
19830TIP3   OH280980   0.450   0.174   5.706  0.3727 -0.1485 -0.2075
19830TIP3    H180981   0.404   0.197   5.786 -1.2539  2.1143 -1.6629
19830TIP3    H280982   0.535   0.216   5.713  0.1696  0.1833  0.2565
19831TIP3   OH280983   5.606   1.270  15.590 -0.7228  0.2970  0.8797
19831TIP3    H180984   5.644   1.207  15.530  1.4549  2.9235 -0.7363
19831TIP3    H280985   5.636   1.242  15.677  0.4685 -0.6730  0.1843
19832TIP3   OH280986   5.483   2.988  12.291  0.9388  0.5968 -0.2572
19832TIP3    H180987   5.535   2.948  12.361  0.7530  0.1994 -0.3473
19832TIP3    H280988   5.496   2.930  12.216 -1.8314 -1.0922  0.4285
19833TIP3   OH280989   0.121   3.153   0.379  0.1853  0.6315 -0.2647
19833TIP3    H180990   0.034   3.161   0.420 -0.6314  0.1135 -1.8161
19833TIP3    H280991   0.163   3.081   0.427 -0.7760 -0.0169 -0.3644
19834TIP3   OH280992   5.484   0.691  12.474  0.2292  0.0122  0.8803
19834TIP3    H180993   5.424   0.656  12.539 -0.9570  1.7310  0.7529
19834TIP3    H280994   5.565   0.642  12.488 -0.6659 -1.1768  2.1678
19835TIP3   OH280995   1.429   2.917   6.693 -0.2673 -0.0624 -0.0092
19835TIP3    H180996   1.421   3.004   6.732 -0.4980  0.5523 -1.3558
19835TIP3    H280997   1.479   2.866   6.757  0.6776  1.3239  0.3998
19836TIP3   OH280998   5.281   1.837  13.044  0.1485 -0.2209 -0.3806
19836TIP3    H180999   5.214   1.770  13.030 -0.2991  0.2120 -0.3312
19836TIP3    H281000   5.286   1.848  13.139 -1.3277  1.3447 -0.4432
19837TIP3   OH281001   4.853   4.167   1.317  0.1071  0.7354  0.1357
19837TIP3    H181002   4.799   4.105   1.268  0.9940 -0.8634  1.0849
19837TIP3    H281003   4.898   4.218   1.250  0.0062 -0.2264 -0.6942
19838TIP3   OH281004   1.613   2.673  12.579 -0.1537  0.0638 -0.9287
19838TIP3    H181005   1.571   2.729  12.513 -2.5221 -0.1601  0.2678
19838TIP3    H281006   1.682   2.727  12.616 -2.7175  2.6008  0.6046
19839TIP3   OH281007   3.247   5.864   6.273  0.5935  0.4063 -0.5245
19839TIP3    H181008   3.193   5.814   6.335  1.7335 -0.2419 -0.0291
19839TIP3    H281009   3.302   5.798   6.231  1.5131  1.1413 -0.4984
19840TIP3   OH281010   1.073   4.221   6.053 -0.3013  0.3605  0.1815
19840TIP3    H181011   1.088   4.315   6.048 -3.5596  0.9468 -1.2120
19840TIP3    H281012   1.014   4.210   6.128  1.0777 -0.8061  1.1622
19841TIP3   OH281013   6.696   5.273   2.846 -0.7793  0.0732  0.1884
19841TIP3    H181014   6.610   5.312   2.829 -0.5928  0.8851  1.0406
19841TIP3    H281015   6.682   5.179   2.831 -1.0476  0.4748 -2.5835
19842TIP3   OH281016   0.787   2.324  14.259 -0.4909  0.0164  0.0280
19842TIP3    H181017   0.724   2.256  14.234 -1.3067  0.1543  1.5707
19842TIP3    H281018   0.733   2.403  14.269 -0.4347 -0.1795  2.8287
19843TIP3   OH281019   4.258   0.562   1.192  0.2590 -0.2061 -0.3361
19843TIP3    H181020   4.344   0.532   1.220 -0.4931 -0.4694  1.9037
19843TIP3    H281021   4.197   0.523   1.255 -1.2485  2.0188 -0.3041
19844TIP3   OH281022   1.354   3.476   5.761  0.4686 -0.1382  0.1163
19844TIP3    H181023   1.406   3.557   5.763  0.5560 -0.2051  0.4660
19844TIP3    H281024   1.275   3.498   5.810 -0.5446  0.4520 -1.6738
19845TIP3   OH281025   5.152   5.747  13.014 -0.0565  0.1262  0.1128
19845TIP3    H181026   5.060   5.728  12.996 -0.9470  2.7701  1.2552
19845TIP3    H281027   5.155   5.761  13.109  1.7030 -0.6349  0.2015
19846TIP3   OH281028   4.937   0.560  16.431 -0.1970 -0.7799  0.0728
19846TIP3    H181029   4.966   0.511  16.508 -0.4224  1.0102  1.3427
19846TIP3    H281030   4.928   0.493  16.363  0.9572 -2.2749  1.3026
19847TIP3   OH281031   0.288   0.431  14.953 -0.1408  1.0415 -0.2350
19847TIP3    H181032   0.309   0.389  14.870 -0.9743  1.3806 -0.6340
19847TIP3    H281033   0.193   0.422  14.961 -0.0517  0.9016  0.7446
19848TIP3   OH281034   5.458   6.643  15.846  0.3021  1.0400 -0.1882
19848TIP3    H181035   5.429   6.662  15.757 -0.3912  0.0320 -0.1917
19848TIP3    H281036   5.462   6.728  15.889 -3.1601  1.2343 -0.0302
19849TIP3   OH281037   4.371   2.597  14.403 -0.0181 -0.3440  0.0467
19849TIP3    H181038   4.439   2.544  14.360  0.3465  1.0405 -1.1378
19849TIP3    H281039   4.289   2.555  14.379  0.3063 -0.8294 -0.2316
19850TIP3   OH281040   3.350   5.610  13.815  0.1864  0.0135 -0.2374
19850TIP3    H181041   3.441   5.580  13.818  0.2652  0.0810 -1.6135
19850TIP3    H281042   3.300   5.538  13.853  0.7653 -0.2145  0.1031
19851TIP3   OH281043   3.679   2.737   4.269  0.2841  0.8924 -0.0723
19851TIP3    H181044   3.763   2.691   4.265  0.8278  1.5313  2.3655
19851TIP3    H281045   3.696   2.822   4.230  0.2532  0.3870 -1.2329
19852TIP3   OH281046   2.152   0.032   0.761 -0.5958 -0.6145 -0.2649
19852TIP3    H181047   2.223   0.095   0.775  0.2742 -1.4749 -0.6951
19852TIP3    H281048   2.183  -0.049   0.802 -1.3857 -0.9715 -0.3432
19853TIP3   OH281049   2.817   3.220   6.027 -0.3447 -0.6198  0.2836
19853TIP3    H181050   2.797   3.132   5.995  0.8271 -0.9531  0.4269
19853TIP3    H281051   2.912   3.221   6.037 -0.3378  0.6907  0.2244
19854TIP3   OH281052   4.832   5.647  13.954 -0.3228  0.5775  0.5406
19854TIP3    H181053   4.843   5.697  13.873  0.3470 -0.7787 -0.2580
19854TIP3    H281054   4.738   5.649  13.971 -0.3193  2.0171  0.5066
19855TIP3   OH281055   1.035   2.464  16.359 -0.6398  0.4353  0.0807
19855TIP3    H181056   0.945   2.448  16.386 -0.9967  2.9538  0.6343
19855TIP3    H281057   1.081   2.487  16.440  0.3216 -0.0359 -0.3117
19856TIP3   OH281058   1.121   3.742  14.108  0.1226 -0.0551 -0.1149
19856TIP3    H181059   1.205   3.731  14.064  0.4967  0.2681  0.5026
19856TIP3    H281060   1.119   3.834  14.134 -1.4268  0.5555 -2.1122
19857TIP3   OH281061   3.036   5.563  17.075  0.6350  0.3384 -0.0291
19857TIP3    H181062   3.009   5.653  17.090 -2.6002 -0.1684 -1.8564
19857TIP3    H281063   2.993   5.513  17.145  2.1798  0.1321  0.8085
19858TIP3   OH281064   4.959   0.434   1.775  0.2942 -0.1641 -0.2589
19858TIP3    H181065   4.994   0.345   1.769 -2.2843 -1.3652  1.1730
19858TIP3    H281066   4.882   0.427   1.831 -0.8321  2.7494 -1.2333
19859TIP3   OH281067   3.581   1.486  13.748  0.0804  0.1921 -0.5528
19859TIP3    H181068   3.664   1.461  13.789  0.4915  0.2110 -1.3737
19859TIP3    H281069   3.566   1.419  13.681 -0.2023  0.5991 -0.8990
19860TIP3   OH281070   2.943   5.360  16.654  0.3844 -0.5789  0.1831
19860TIP3    H181071   2.944   5.324  16.742  2.2508 -1.2461 -0.0715
19860TIP3    H281072   3.012   5.426  16.653 -0.2409  0.0969 -0.5361
19861TIP3   OH281073   4.378   3.586  13.839  0.1361 -0.1755  0.0831
19861TIP3    H181074   4.446   3.563  13.902 -0.4326 -2.1005  0.0527
19861TIP3    H281075   4.330   3.658  13.881  0.5625 -0.5616  1.2799
19862TIP3   OH281076   2.973   2.759  15.860  0.2507  0.1433  0.0196
19862TIP3    H181077   2.986   2.669  15.830 -2.6657  0.1559 -1.6027
19862TIP3    H281078   2.924   2.750  15.942  0.5762  0.2758  0.2330
19863TIP3   OH281079   4.542   0.034  12.465 -0.3481  0.2028  0.1333
19863TIP3    H181080   4.542  -0.062  12.460 -0.4800  0.1621  0.8395
19863TIP3    H281081   4.453   0.059  12.443 -0.3567  0.1515  0.1090
19864TIP3   OH281082   5.919   2.286   1.315 -0.1695  0.2269  0.1321
19864TIP3    H181083   5.871   2.261   1.394 -0.5168  0.2995 -0.0552
19864TIP3    H281084   6.007   2.306   1.346  0.0679 -1.0202  0.3234
19865TIP3   OH281085   3.364   2.145  14.589 -0.7431  0.2904 -0.0794
19865TIP3    H181086   3.281   2.102  14.608  0.1437 -0.4044  2.7295
19865TIP3    H281087   3.430   2.075  14.598  0.2413  0.9893 -1.4667
19866TIP3   OH281088   5.618   5.001   2.007  0.4391 -0.4057  0.1213
19866TIP3    H181089   5.615   5.001   2.102 -2.0809 -1.2582  0.1138
19866TIP3    H281090   5.638   4.910   1.984  0.7136 -0.2739 -0.1707
19867TIP3   OH281091   4.992   4.129   4.434 -0.0383 -0.4854  0.3896
19867TIP3    H181092   5.050   4.101   4.363  0.2093  1.8912 -0.4364
19867TIP3    H281093   4.904   4.124   4.396  0.0194 -0.0240  0.1894
19868TIP3   OH281094   2.058   3.998   0.378  0.7244  0.2482  0.4939
19868TIP3    H181095   2.121   4.068   0.392 -1.2370  2.8048 -2.3974
19868TIP3    H281096   2.071   3.970   0.288 -1.6432  0.2927  0.0605
19869TIP3   OH281097   2.926   3.334  14.164 -0.0195  0.1126 -0.4523
19869TIP3    H181098   2.961   3.268  14.223 -2.1653 -1.2267 -0.5794
19869TIP3    H281099   2.879   3.285  14.097 -1.5991  1.7389 -0.6152
19870TIP3   OH281100   3.752   2.932  10.618 -0.2946  0.6102  1.0165
19870TIP3    H181101   3.692   2.909  10.547  0.0090  0.0381  0.9366
19870TIP3    H281102   3.696   2.943  10.694 -0.6068  1.0613  0.7299
19871TIP3   OH281103   2.084   5.686  13.122 -0.1497 -0.0244  0.5719
19871TIP3    H181104   2.169   5.643  13.132  0.9945  1.3214 -2.2738
19871TIP3    H281105   2.033   5.625  13.070 -0.8563 -0.6681  1.9683
19872TIP3   OH281106   1.722   4.669  15.495 -0.0477  0.5263  0.0219
19872TIP3    H181107   1.690   4.745  15.543  1.9859  0.6023  1.3666
19872TIP3    H281108   1.808   4.652  15.532 -0.6760 -2.8304  0.2095
19873TIP3   OH281109   5.972   5.805   0.694  0.1290 -0.4480 -0.2762
19873TIP3    H181110   5.931   5.719   0.684 -0.1872 -0.1947 -1.2767
19873TIP3    H281111   5.950   5.851   0.613 -0.0636  0.7272  0.4285
19874TIP3   OH281112   0.667   6.452  11.527  0.1647  0.3878  0.2868
19874TIP3    H181113   0.676   6.377  11.468 -0.3291 -0.1154  0.8446
19874TIP3    H281114   0.605   6.510  11.483 -1.3536 -0.6597  0.9543
19875TIP3   OH281115   1.617   1.203  13.449  0.7366  0.7781 -0.0895
19875TIP3    H181116   1.563   1.275  13.481 -0.6949 -0.6372  0.8121
19875TIP3    H281117   1.574   1.124  13.481  2.5421 -0.4867 -0.5916
19876TIP3   OH281118   0.933   1.718  11.466 -0.4849 -0.3552 -0.5575
19876TIP3    H181119   0.892   1.799  11.498 -0.2072 -0.8388  1.1273
19876TIP3    H281120   0.891   1.648  11.516  0.4521 -1.0999 -0.7795
19877TIP3   OH281121   6.815   4.202  13.737  0.4970  0.2100 -0.1258
19877TIP3    H181122   6.747   4.253  13.781 -0.1405  0.2350 -1.0962
19877TIP3    H281123   6.794   4.111  13.759  1.2350  0.3101  1.0529
19878TIP3   OH281124   0.813   4.514   0.311 -0.9509 -0.3545 -0.2163
19878TIP3    H181125   0.805   4.443   0.247 -0.5738  0.8432 -1.6490
19878TIP3    H281126   0.837   4.591   0.259  1.2727  0.2786  1.5842
19879TIP3   OH281127   4.603   3.251  15.514  0.0774  0.1852 -0.3264
19879TIP3    H181128   4.632   3.170  15.474 -1.1566  0.0007 -0.9109
19879TIP3    H281129   4.589   3.230  15.606 -1.0536 -0.5050 -0.6445
19880TIP3   OH281130   3.173   1.928   2.130  0.5192  0.5791  0.5320
19880TIP3    H181131   3.207   1.983   2.059 -1.0354  1.2964  0.2853
19880TIP3    H281132   3.095   1.886   2.092  0.1226  0.3464  1.5658
19881TIP3   OH281133   4.103   0.530   2.776 -0.3835  0.5450  0.0074
19881TIP3    H181134   4.132   0.447   2.815 -1.2277  0.4653  0.5197
19881TIP3    H281135   4.182   0.583   2.769 -0.1132  0.3785  1.4276
19882TIP3   OH281136   5.086   3.798  13.446 -0.0560  0.2195 -0.1982
19882TIP3    H181137   5.070   3.760  13.360  0.4538  1.4825 -0.8782
19882TIP3    H281138   5.005   3.846  13.466 -0.9903 -1.7298  0.9872
19883TIP3   OH281139   4.842   4.438   1.460 -0.0231 -0.2896  0.3526
19883TIP3    H181140   4.822   4.346   1.445 -0.3674  0.1365 -2.3696
19883TIP3    H281141   4.937   4.441   1.473  0.3323 -0.8731 -1.7568
19884TIP3   OH281142   2.924   1.645  16.534  0.6945 -0.4604 -0.1069
19884TIP3    H181143   2.880   1.728  16.513 -0.1610 -0.7608  0.4290
19884TIP3    H281144   2.884   1.581  16.476  2.5659 -0.2200 -1.7399
19885TIP3   OH281145   2.628   4.135  12.433  0.3706  0.3099 -0.0731
19885TIP3    H181146   2.636   4.148  12.527 -0.0447  1.1053 -0.1380
19885TIP3    H281147   2.690   4.065  12.413 -1.1135 -1.4461  1.1261
19886TIP3   OH281148   4.654   0.148   5.591  0.6283 -0.4186 -0.4671
19886TIP3    H181149   4.700   0.130   5.672  0.9364 -1.2082 -0.8071
19886TIP3    H281150   4.634   0.241   5.595 -0.1306 -0.6169  0.9041
19887TIP3   OH281151   2.321   0.801   1.767  0.3588 -0.1596  0.2938
19887TIP3    H181152   2.344   0.738   1.698 -3.2893 -0.1985 -1.1075
19887TIP3    H281153   2.319   0.885   1.722  1.2566  0.3991  1.2409
19888TIP3   OH281154   0.705   1.121   5.333 -0.0834  0.1781 -0.2050
19888TIP3    H181155   0.627   1.096   5.284 -0.7047  2.0376 -0.2303
19888TIP3    H281156   0.757   1.172   5.271  1.1118 -0.8929 -0.1367
19889TIP3   OH281157   5.082   4.799   3.924  0.5208 -0.0148  0.2304
19889TIP3    H181158   5.086   4.890   3.954 -0.3015  0.8413 -2.0530
19889TIP3    H281159   5.084   4.805   3.828  0.2314 -2.4052  0.0104
19890TIP3   OH281160   0.912   5.246  12.291  0.5348 -0.5668  0.2549
19890TIP3    H181161   0.997   5.218  12.258  1.4348  0.1224  1.8424
19890TIP3    H281162   0.933   5.300  12.368 -1.2834  0.7536 -0.0999
19891TIP3   OH281163   5.889   5.258  13.503 -0.4382  0.3802  0.1541
19891TIP3    H181164   5.805   5.298  13.526 -0.6953 -0.1243  0.1116
19891TIP3    H281165   5.866   5.184  13.447 -0.0759 -0.7181  1.4229
19892TIP3   OH281166   5.826   3.534  15.283  0.7956 -0.5066  0.3442
19892TIP3    H181167   5.746   3.527  15.336 -0.3407  0.3381 -1.1502
19892TIP3    H281168   5.797   3.580  15.204  2.6325 -0.8317 -0.5597
19893TIP3   OH281169   1.756   5.885   4.975  0.7610 -0.0466  0.4031
19893TIP3    H181170   1.694   5.816   4.951 -0.2544  0.5810  1.0983
19893TIP3    H281171   1.732   5.908   5.065  1.2343  1.0270  0.2756
19894TIP3   OH281172   1.053   5.148  14.970  0.7991 -0.7648  0.0960
19894TIP3    H181173   1.060   5.200  15.050  2.1381 -0.1423 -0.3941
19894TIP3    H281174   1.007   5.204  14.908 -2.6827 -2.2023  1.1301
19895TIP3   OH281175   4.907   1.855  11.774 -0.2212  0.1604  0.4145
19895TIP3    H181176   4.951   1.936  11.749  1.7631 -1.2601 -1.0063
19895TIP3    H281177   4.830   1.850  11.717 -1.7047  2.1109  2.1221
19896TIP3   OH281178   0.007   5.560  10.603 -0.3891  0.0882  0.2191
19896TIP3    H181179   0.007   5.465  10.613 -0.2860 -0.1524 -1.6899
19896TIP3    H281180   0.070   5.577  10.533 -1.9608  1.3466 -0.9961
19897TIP3   OH281181   4.391   4.250  15.851 -0.1132 -0.2923  0.3215
19897TIP3    H181182   4.351   4.336  15.864 -2.1358 -0.9336 -1.1978
19897TIP3    H281183   4.402   4.242  15.756  3.9707 -0.1019  0.6019
19898TIP3   OH281184   4.513   4.989  13.552  0.5278  0.1133  0.3164
19898TIP3    H181185   4.604   4.971  13.573  0.8652  0.4418 -0.8275
19898TIP3    H281186   4.515   5.071  13.502 -0.2159 -0.7753 -1.2213
19899TIP3   OH281187   6.155   6.809  10.999 -0.7092 -0.1190 -0.3191
19899TIP3    H181188   6.157   6.833  10.906 -1.0137 -0.2452 -0.3609
19899TIP3    H281189   6.224   6.861  11.039 -0.0264 -0.6790 -0.7613
19900TIP3   OH281190   6.530   3.114   3.229 -0.3273  0.3331  0.5985
19900TIP3    H181191   6.468   3.067   3.174 -0.7524  1.6090 -0.0509
19900TIP3    H281192   6.543   3.056   3.305  1.2315 -2.0339 -1.3228
19901TIP3   OH281193   1.691   1.888   1.084 -0.0822 -0.0910 -0.0420
19901TIP3    H181194   1.728   1.839   1.157  0.8164  0.7500  0.0907
19901TIP3    H281195   1.714   1.979   1.102  0.0176  0.1508 -1.2833
19902TIP3   OH281196   2.988   4.347  15.854 -0.4180 -0.3665  0.3878
19902TIP3    H181197   2.902   4.387  15.863 -0.4006 -0.0127 -0.8216
19902TIP3    H281198   2.971   4.257  15.827 -0.4141 -0.1061 -0.5146
19903TIP3   OH281199   4.698   3.131   4.574 -0.0761  0.3162 -0.0555
19903TIP3    H181200   4.604   3.125   4.594  0.1327 -0.0750  0.8353
19903TIP3    H281201   4.701   3.175   4.489 -1.0019  2.6372  0.9929
19904TIP3   OH281202   2.022   6.503  14.147  0.4197  0.2594  0.3159
19904TIP3    H181203   1.931   6.531  14.134  0.7761  0.9842 -0.7432
19904TIP3    H281204   2.017   6.409  14.162 -0.5003  0.2822  0.1893
19905TIP3   OH281205   6.829   1.991   4.418 -0.4760  0.5107  0.1586
19905TIP3    H181206   6.780   1.954   4.490 -1.6627  0.7372 -0.5065
19905TIP3    H281207   6.785   1.959   4.339  0.6190  0.4868 -0.4710
19906TIP3   OH281208   1.521   4.299  12.861 -0.1094 -0.6972 -0.3706
19906TIP3    H181209   1.568   4.342  12.790 -1.1323 -1.2345 -1.4035
19906TIP3    H281210   1.570   4.218  12.877 -0.0200 -0.6961 -0.6327
19907TIP3   OH281211   1.557   6.073  11.719 -0.0717  0.1672 -0.1789
19907TIP3    H181212   1.646   6.046  11.698  0.0138 -0.5201  1.0079
19907TIP3    H281213   1.526   6.008  11.781 -0.5238  1.7589  1.3600
19908TIP3   OH281214   6.089   6.184   1.561 -0.1356 -0.6181 -0.4832
19908TIP3    H181215   6.007   6.142   1.537  0.4914 -1.6260 -0.9229
19908TIP3    H281216   6.148   6.112   1.584  0.2045  0.1483  1.2257
19909TIP3   OH281217   6.507   5.648   2.330  0.2066  0.5997  0.1951
19909TIP3    H181218   6.414   5.658   2.311  1.0007  2.5250 -3.3946
19909TIP3    H281219   6.530   5.727   2.380  0.0536  0.3985  0.5895
19910TIP3   OH281220   4.897   3.993  13.825 -0.3567  0.1032  0.6289
19910TIP3    H181221   4.849   3.926  13.873  0.3242 -1.2720 -0.5108
19910TIP3    H281222   4.838   4.017  13.753 -0.1639 -0.0743  0.4112
19911TIP3   OH281223   0.790   5.527   4.459  0.1681  0.3577 -0.2910
19911TIP3    H181224   0.834   5.480   4.388 -0.8457  0.7679 -1.2226
19911TIP3    H281225   0.804   5.472   4.536 -0.9872 -1.5232 -1.3449
19912TIP3   OH281226   5.762   6.237  16.451 -0.7453 -0.3404  0.3000
19912TIP3    H181227   5.708   6.175  16.402  1.4149 -1.4926 -0.7418
19912TIP3    H281228   5.798   6.296  16.384 -1.7873  1.3396  1.1351
19913TIP3   OH281229   2.708   2.853  12.342  0.4110 -0.1810 -0.0838
19913TIP3    H181230   2.788   2.807  12.366  0.8491 -0.0475 -1.2516
19913TIP3    H281231   2.692   2.914  12.415  1.0347 -0.6277  0.4287
19914TIP3   OH281232   1.827   5.377   2.137  0.3734  0.3161  0.4628
19914TIP3    H181233   1.844   5.346   2.225 -0.1104 -0.2639  0.3621
19914TIP3    H281234   1.908   5.360   2.089 -0.3018 -2.0509  0.0765
19915TIP3   OH281235   3.138   3.974  15.339  0.1847 -0.1481 -0.5328
19915TIP3    H181236   3.096   3.928  15.267  0.0748  1.1630 -1.3333
19915TIP3    H281237   3.222   4.003  15.304 -0.7845  2.4632 -0.9497
19916TIP3   OH281238   4.411   0.802   4.392 -0.0753 -0.0866 -0.3982
19916TIP3    H181239   4.419   0.868   4.323  0.4427  1.2893  0.9177
19916TIP3    H281240   4.370   0.848   4.465 -0.3826 -1.4288  0.3151
19917TIP3   OH281241   6.657   0.184   0.927  0.9004 -0.3939 -0.2371
19917TIP3    H181242   6.581   0.216   0.879  0.0120  0.4810  1.6652
19917TIP3    H281243   6.635   0.093   0.949 -0.3072  0.2786  1.5577
19918TIP3   OH281244   3.685   0.670   4.145  0.1517 -0.0025 -0.1515
19918TIP3    H181245   3.634   0.594   4.117 -0.7279  0.6477 -0.3733
19918TIP3    H281246   3.687   0.726   4.067 -1.5350  1.4164  0.7477
19919TIP3   OH281247   0.764   3.273   5.687 -0.1416 -0.5288  0.7353
19919TIP3    H181248   0.681   3.229   5.702 -0.7446  0.3659  0.0746
19919TIP3    H281249   0.746   3.365   5.704  0.6925 -0.3124  0.4887
19920TIP3   OH281250   4.921   6.673  13.797 -0.1752 -0.1870  0.3353
19920TIP3    H181251   4.925   6.765  13.772 -0.5487 -0.2513  0.0363
19920TIP3    H281252   4.965   6.627  13.726  0.5667 -0.1894  0.7810
19921TIP3   OH281253   2.462   0.475  17.170 -0.1265  0.2074  0.2625
19921TIP3    H181254   2.394   0.426  17.123  0.4448 -0.2292 -0.1179
19921TIP3    H281255   2.453   0.565  17.138 -1.9591  0.6504  1.8343
19922TIP3   OH281256   5.231   4.570   6.950 -0.4950 -0.4201 -0.3099
19922TIP3    H181257   5.186   4.654   6.959  2.4115  1.4599 -1.7859
19922TIP3    H281258   5.263   4.569   6.860  2.5584 -1.4298  0.6738
19923TIP3   OH281259   4.287   5.551   1.605  0.2071 -0.4126 -0.2789
19923TIP3    H181260   4.309   5.462   1.579  0.7559  0.0330 -1.4336
19923TIP3    H281261   4.279   5.599   1.523  1.0948  0.8699  0.3375
19924TIP3   OH281262   4.056   3.955   2.600 -0.0019  0.2271 -0.1832
19924TIP3    H181263   4.018   3.979   2.684 -0.1079  0.9104 -0.4205
19924TIP3    H281264   4.145   3.992   2.602  0.6540 -1.3200  0.3523
19925TIP3   OH281265   1.492   5.840   5.810 -0.6469 -0.4239  0.0239
19925TIP3    H181266   1.472   5.755   5.850 -1.5299  0.2382  1.0207
19925TIP3    H281267   1.563   5.876   5.862 -1.0153 -0.0684  0.2836
19926TIP3   OH281268   0.395   1.866   4.717  0.0849  0.6147  0.3312
19926TIP3    H181269   0.476   1.904   4.684  0.0754  0.5155  0.1898
19926TIP3    H281270   0.344   1.846   4.638  1.7496 -3.4784  0.0372
19927TIP3   OH281271   2.019   0.509   2.683  0.4057  0.1061 -0.1786
19927TIP3    H181272   2.036   0.603   2.684 -0.2458  0.3821  4.0275
19927TIP3    H281273   2.102   0.469   2.659  0.4264  1.6451 -3.1265
19928TIP3   OH281274   2.421   1.834   4.020  0.2181  0.4202  0.8238
19928TIP3    H181275   2.448   1.830   4.112  0.3819  0.3622  0.7725
19928TIP3    H281276   2.332   1.797   4.020 -0.4326  1.8987  1.2152
19929TIP3   OH281277   4.540   0.312   0.182 -0.0047 -0.7269 -0.3778
19929TIP3    H181278   4.454   0.329   0.221  0.2834 -2.7063  1.2751
19929TIP3    H281279   4.581   0.398   0.177 -0.6865 -0.1712  2.2580
19930TIP3   OH281280   5.198   5.512   3.588  0.5226 -0.0965  0.0109
19930TIP3    H181281   5.210   5.550   3.675  1.2518 -0.0840 -0.0951
19930TIP3    H281282   5.277   5.461   3.573 -0.1247 -1.0866 -0.1516
19931TIP3   OH281283   0.166   1.501   5.129  0.0991 -0.3186 -0.1688
19931TIP3    H181284   0.170   1.495   5.225  1.0975 -0.6267 -0.2208
19931TIP3    H281285   0.102   1.435   5.103  1.2601 -1.6044  0.1637
19932TIP3   OH281286   1.077   3.915  10.821  0.6817  0.6923  0.0152
19932TIP3    H181287   1.091   3.858  10.745 -2.4194 -2.8272  1.7747
19932TIP3    H281288   1.145   3.888  10.884  0.7404  0.7066 -0.0417
19933TIP3   OH281289   4.510   3.552   2.300 -0.2444 -0.3861  0.4809
19933TIP3    H181290   4.525   3.608   2.224  2.3016 -0.3081  0.9361
19933TIP3    H281291   4.415   3.543   2.305 -0.5325 -0.0606 -2.4458
19934TIP3   OH281292   1.386   5.544  16.223  0.3092 -1.1969  0.0586
19934TIP3    H181293   1.360   5.491  16.148  1.3772 -1.4336 -0.1680
19934TIP3    H281294   1.477   5.567  16.205  1.0354 -2.3826  1.8964
19935TIP3   OH281295   3.040   1.965   1.348  0.2840  0.1079 -0.5911
19935TIP3    H181296   3.113   1.905   1.363  0.0605  0.0016  0.1083
19935TIP3    H281297   3.067   2.047   1.389 -0.5485 -0.3392  0.9415
19936TIP3   OH281298   2.861   4.905  15.208 -0.6285  0.1141 -0.5818
19936TIP3    H181299   2.862   4.900  15.113 -0.1540 -1.3418 -0.5302
19936TIP3    H281300   2.826   4.821  15.236 -1.5952  0.8607  0.5290
19937TIP3   OH281301   0.687   3.445   3.634 -0.2866 -0.1135 -0.0060
19937TIP3    H181302   0.724   3.372   3.584 -2.0411 -0.5849 -0.7014
19937TIP3    H281303   0.639   3.403   3.705  0.9116  0.4966  1.1881
19938TIP3   OH281304   6.245   1.491  13.601 -0.3000 -0.4470  0.2853
19938TIP3    H181305   6.240   1.402  13.637 -1.0159 -0.2432  0.7008
19938TIP3    H281306   6.311   1.535  13.653 -1.5249 -0.0632  1.5922
19939TIP3   OH281307   2.414   5.757   3.830  0.0631 -0.4345 -0.0480
19939TIP3    H181308   2.416   5.851   3.851 -0.2951 -0.6999  1.2714
19939TIP3    H281309   2.507   5.732   3.830  0.1977  0.0123 -0.9358
19940TIP3   OH281310   3.575   0.893   2.581  0.3588  0.2394  0.0870
19940TIP3    H181311   3.660   0.916   2.546  0.0014 -0.3835 -1.2771
19940TIP3    H281312   3.536   0.836   2.514 -2.8991  3.8496 -1.4916
19941TIP3   OH281313   0.206   1.290   0.544 -0.4673 -0.0273 -0.1016
19941TIP3    H181314   0.116   1.272   0.516 -0.2291 -1.4890  0.0114
19941TIP3    H281315   0.246   1.334   0.469 -0.5701 -1.6189 -1.1323
19942TIP3   OH281316   4.868   6.099  11.668  0.1027  0.4820  0.0431
19942TIP3    H181317   4.862   6.007  11.697 -0.6271 -0.1346 -1.8991
19942TIP3    H281318   4.779   6.133  11.679 -0.7121 -0.3507 -3.0748
19943TIP3   OH281319   2.319   5.131  11.404  0.2296 -0.2248  0.1576
19943TIP3    H181320   2.394   5.135  11.345 -1.2938  0.9336 -1.8472
19943TIP3    H281321   2.251   5.086  11.353 -1.7004  2.3288  0.2758
19944TIP3   OH281322   2.832   3.091  15.212 -0.3380  0.4289 -0.4819
19944TIP3    H181323   2.835   3.095  15.116 -0.0669  1.5706 -0.4390
19944TIP3    H281324   2.925   3.089  15.238 -0.4084  0.2974 -0.2381
19945TIP3   OH281325   2.269   0.346  17.018 -0.4583  0.4444  0.3590
19945TIP3    H181326   2.241   0.255  17.004  1.3483 -0.2448  0.8348
19945TIP3    H281327   2.314   0.369  16.937  1.8138 -0.2456  1.3374
19946TIP3   OH281328   5.475   5.243  11.900 -0.0262  0.0416  0.1007
19946TIP3    H181329   5.423   5.229  11.821  4.9132  0.9805 -3.8788
19946TIP3    H281330   5.476   5.159  11.944 -2.3027 -0.7972 -1.3021
19947TIP3   OH281331   1.473   2.176   0.884 -0.0851 -0.7691  0.5663
19947TIP3    H181332   1.449   2.169   0.977  0.0211 -2.2443  0.5064
19947TIP3    H281333   1.566   2.196   0.885 -0.4990  1.3509  0.7686
19948TIP3   OH281334   1.088   4.500  12.520 -0.6374  0.1071 -0.2491
19948TIP3    H181335   1.051   4.568  12.464 -0.2269 -1.1201 -2.0691
19948TIP3    H281336   1.011   4.455  12.555 -0.9161 -0.3799 -1.4431
19949TIP3   OH281337   2.094   5.858   0.098 -0.6862  0.1417  0.3123
19949TIP3    H181338   2.063   5.932   0.149 -0.3561  0.0013  0.7274
19949TIP3    H281339   2.165   5.821   0.150 -0.5280 -0.1753 -0.1179
19950TIP3   OH281340   3.822   1.995  11.931  0.1135 -1.0262 -0.0117
19950TIP3    H181341   3.841   2.031  12.018 -0.6459  0.0032 -0.2422
19950TIP3    H281342   3.908   1.971  11.896  0.5049 -0.7720  0.7374
19951TIP3   OH281343   1.685   3.133  13.613  0.4405  0.7574  0.4272
19951TIP3    H181344   1.779   3.148  13.631  0.2978  0.8417  1.1642
19951TIP3    H281345   1.675   3.038  13.618  0.1151  0.8369  2.5127
19952TIP3   OH281346   4.209   6.540  11.652 -0.3047 -0.4678  0.0124
19952TIP3    H181347   4.129   6.487  11.653 -0.3154 -0.4475  0.2457
19952TIP3    H281348   4.279   6.478  11.630 -0.6715 -0.0765 -2.6338
19953TIP3   OH281349   1.411   4.708   0.278 -0.3620 -0.3067  0.0749
19953TIP3    H181350   1.352   4.673   0.212 -1.0582  0.5137  0.2328
19953TIP3    H281351   1.422   4.800   0.254 -2.4656  0.6388  2.3082
19954TIP3   OH281352   1.792   6.668   0.628  0.1514 -0.4096  0.1861
19954TIP3    H181353   1.799   6.718   0.709  2.8348  1.8325 -1.2874
19954TIP3    H281354   1.739   6.722   0.570 -1.4187 -1.8175  0.2294
19955TIP3   OH281355   4.886   3.899   3.923 -0.4146 -0.1354  0.1504
19955TIP3    H181356   4.941   3.933   3.852 -1.2884 -1.5799 -1.2716
19955TIP3    H281357   4.940   3.907   4.002  0.6802  1.2448 -0.7063
19956TIP3   OH281358   0.326   2.734   3.971 -0.0930 -0.1192 -0.4570
19956TIP3    H181359   0.257   2.775   4.024 -0.8309  0.3370 -1.7175
19956TIP3    H281360   0.355   2.659   4.023 -2.8626 -1.4512 -0.6723
19957TIP3   OH281361   5.612   5.373   2.846 -0.2747  0.3260  0.3396
19957TIP3    H181362   5.563   5.434   2.901 -0.2638  1.7473 -1.1505
19957TIP3    H281363   5.565   5.371   2.764  1.4935  0.8577 -0.7460
19958TIP3   OH281364   0.260   6.324  11.391  0.0335  0.0938 -0.4261
19958TIP3    H181365   0.264   6.403  11.337  2.7595  1.1136  1.0369
19958TIP3    H281366   0.343   6.279  11.373 -1.0051 -1.9475 -0.4349
19959TIP3   OH281367   5.715   1.982  14.257  0.0878 -0.3239  0.2883
19959TIP3    H181368   5.714   2.030  14.340 -0.2212  0.1556  0.0153
19959TIP3    H281369   5.650   2.027  14.203 -0.8939 -1.6100  0.3365
19960TIP3   OH281370   5.593   5.629  13.177  0.1619  0.4743  0.4856
19960TIP3    H181371   5.658   5.677  13.228  1.0812  1.3958 -1.4050
19960TIP3    H281372   5.645   5.574  13.119 -0.7964  0.0180  0.0410
19961TIP3   OH281373   4.293   5.355   2.874  0.1629 -0.0098  0.3741
19961TIP3    H181374   4.345   5.312   2.942  1.0663  0.4610 -0.0061
19961TIP3    H281375   4.210   5.307   2.874  0.5755 -0.7539  1.0189
19962TIP3   OH281376   2.694   3.271  11.363 -0.2707  0.0617 -0.1054
19962TIP3    H181377   2.738   3.289  11.280  0.1753  0.1516  0.1466
19962TIP3    H281378   2.766   3.260  11.426 -0.6175  1.9653  0.6818
19963TIP3   OH281379   2.933   5.632   0.138  0.0063 -0.6192  0.4125
19963TIP3    H181380   2.899   5.676   0.216  1.3616 -0.3479  0.8822
19963TIP3    H281381   2.888   5.548   0.136  0.3441 -0.8494  1.7987
19964TIP3   OH281382   6.056   2.488  14.502  0.1813 -0.1266  0.0917
19964TIP3    H181383   6.073   2.532  14.419 -0.1781  0.8869  0.5443
19964TIP3    H281384   5.964   2.461  14.496  0.5973 -1.5441 -0.4930
19965TIP3   OH281385   3.363   4.435   3.014 -0.3744 -0.1250 -0.2497
19965TIP3    H181386   3.342   4.383   2.936  0.6565  0.9541 -1.2901
19965TIP3    H281387   3.377   4.370   3.083 -2.2811 -1.0675 -0.6813
19966TIP3   OH281388   2.677   6.047   1.695 -0.2996 -0.2044  0.1544
19966TIP3    H181389   2.616   6.043   1.622  0.2532 -1.7282 -0.2672
19966TIP3    H281390   2.642   6.116   1.752 -1.9067 -0.4278 -0.5067
19967TIP3   OH281391   5.145   4.244   1.925  0.4773  0.1979  0.1414
19967TIP3    H181392   5.177   4.222   2.013 -0.6550 -0.8568  0.3082
19967TIP3    H281393   5.097   4.167   1.896 -1.2263  1.3882 -0.4115
19968TIP3   OH281394   6.021   1.585  12.989  0.2070  0.1974 -0.2815
19968TIP3    H181395   6.084   1.608  12.922 -0.1923  1.3260 -0.2926
19968TIP3    H281396   6.049   1.634  13.066  2.3885 -3.2376  1.3794
19969TIP3   OH281397   0.241   0.848  11.729  0.2737 -0.0129 -0.1006
19969TIP3    H181398   0.211   0.773  11.781 -1.2477  0.7691  0.2036
19969TIP3    H281399   0.259   0.812  11.642  0.4794 -0.8927  0.2993
19970TIP3   OH281400   6.274   6.581  16.493  0.0645  0.1409 -0.1676
19970TIP3    H181401   6.240   6.579  16.404 -0.1602  1.0369 -0.1085
19970TIP3    H281402   6.354   6.634  16.487 -0.2548  0.6860  0.2546
19971TIP3   OH281403   0.468   6.196   3.668  0.0699 -0.3450  0.4935
19971TIP3    H181404   0.523   6.274   3.678  0.3409 -0.4489 -0.1117
19971TIP3    H281405   0.428   6.206   3.581 -0.5850 -0.4479  0.7799
19972TIP3   OH281406   6.433   2.177  13.707  0.1192 -0.4529  0.0602
19972TIP3    H181407   6.460   2.191  13.798  2.0060  2.6923 -0.8349
19972TIP3    H281408   6.342   2.207  13.705 -0.1699 -1.2100  1.0212
19973TIP3   OH281409   5.531   2.565  13.690  0.1126 -0.2655 -0.1527
19973TIP3    H181410   5.617   2.606  13.680 -0.6854  1.2699 -0.9896
19973TIP3    H281411   5.487   2.581  13.606 -1.2350 -0.4681  0.4960
19974TIP3   OH281412   4.713   4.755   5.880  0.6368  0.3037  0.2808
19974TIP3    H181413   4.635   4.772   5.932  1.1165 -1.3395  1.6151
19974TIP3    H281414   4.685   4.691   5.815  0.8037 -0.1168  0.6174
19975TIP3   OH281415   2.437   6.036   3.770  0.1234  0.2425 -0.3506
19975TIP3    H181416   2.481   6.073   3.694  1.9605  0.9474  0.9704
19975TIP3    H281417   2.506   6.030   3.837 -1.1150 -1.5727  0.8552
19976TIP3   OH281418   1.843   4.954  15.892  0.1467 -0.1247 -0.1454
19976TIP3    H181419   1.747   4.958  15.902  0.0660 -1.8997  0.0155
19976TIP3    H281420   1.860   5.009  15.816 -1.0348  0.0483 -0.3153
19977TIP3   OH281421   0.550   3.159   6.136  0.2987  0.6351 -0.0174
19977TIP3    H181422   0.543   3.083   6.078 -1.0792 -0.3803  1.3816
19977TIP3    H281423   0.508   3.131   6.218 -0.2651  2.9005  0.5508
19978TIP3   OH281424   6.733   2.581  13.653 -0.4877  0.2395  0.5850
19978TIP3    H181425   6.717   2.674  13.666 -0.4454  0.1464  1.3881
19978TIP3    H281426   6.646   2.541  13.654 -1.0041  0.6960 -4.1768
19979TIP3   OH281427   3.731   6.639   2.164 -0.2974 -0.0034 -0.1264
19979TIP3    H181428   3.741   6.633   2.259  0.2213  1.7803 -0.0382
19979TIP3    H281429   3.810   6.598   2.129 -1.1480 -2.0048  0.1203
19980TIP3   OH281430   1.690   1.712   3.307 -0.1040 -0.5882  0.1296
19980TIP3    H181431   1.668   1.799   3.275  2.0289  0.6878  1.8318
19980TIP3    H281432   1.619   1.690   3.367 -2.0318 -1.2783 -2.2423
19981TIP3   OH281433   0.688   2.361  15.586  0.2920  0.0050 -0.0457
19981TIP3    H181434   0.727   2.423  15.647  1.3371 -1.9332  1.3792
19981TIP3    H281435   0.731   2.380  15.502 -0.1635  1.8112  0.0917
19982TIP3   OH281436   1.195   0.215   6.408 -0.4096  0.0592  0.4578
19982TIP3    H181437   1.220   0.149   6.344 -0.1464  0.4006  0.2080
19982TIP3    H281438   1.112   0.182   6.445 -0.6289 -0.0749 -0.1465
19983TIP3   OH281439   4.716   5.322   2.557  0.0930 -0.3739  0.2214
19983TIP3    H181440   4.723   5.399   2.500 -1.0285 -1.8346 -2.0535
19983TIP3    H281441   4.623   5.317   2.579  0.2464 -0.7861  0.7807
19984TIP3   OH281442   0.714   1.584   1.351 -0.3414 -0.0530  0.6550
19984TIP3    H181443   0.765   1.610   1.274  0.2093 -0.6852  0.8035
19984TIP3    H281444   0.654   1.658   1.366  0.7578  0.8570  0.6884
19985TIP3   OH281445   0.098   4.156   2.320  0.6026  0.3945 -0.0234
19985TIP3    H181446   0.036   4.142   2.249 -0.4738  0.2575  0.9102
19985TIP3    H281447   0.119   4.068   2.352 -0.4043  0.5136  1.0372
19986TIP3   OH281448   6.408   3.364   3.397  0.2363  0.0227  0.9021
19986TIP3    H181449   6.365   3.422   3.459  0.0599 -1.1333  1.8982
19986TIP3    H281450   6.360   3.281   3.403  1.2387 -0.6220  0.4423
19987TIP3   OH281451   4.995   3.682  14.347 -0.5418 -0.0885  0.2056
19987TIP3    H181452   4.928   3.615  14.336 -2.8528  1.9399  1.1219
19987TIP3    H281453   5.070   3.635  14.383 -2.0178 -2.2054  0.6610
19988TIP3   OH281454   6.169   2.709   0.141 -0.0895  0.4822  0.5303
19988TIP3    H181455   6.126   2.794   0.151 -1.1779 -0.0520  0.4952
19988TIP3    H281456   6.184   2.700   0.047  1.0407  1.1033  0.6289
19989TIP3   OH281457   5.953   0.208   1.161 -0.0868 -0.0072  0.6577
19989TIP3    H181458   5.912   0.121   1.161 -0.4495  0.1569  1.5332
19989TIP3    H281459   5.889   0.265   1.203  0.8074  0.3726  1.5279
19990TIP3   OH281460   1.142   4.183   5.016  0.6527  0.5693  0.2429
19990TIP3    H181461   1.137   4.174   4.921 -0.4717  1.7681  0.1586
19990TIP3    H281462   1.163   4.095   5.047  0.0158 -0.0697 -1.0474
19991TIP3   OH281463   2.342   5.408   1.674 -0.6627 -0.9210 -0.1117
19991TIP3    H181464   2.371   5.382   1.587  1.6227 -0.8086  0.5489
19991TIP3    H281465   2.328   5.502   1.667 -2.1846 -1.1627 -0.7500
19992TIP3   OH281466   2.957   4.285   4.593 -0.3832  0.1855  0.1561
19992TIP3    H181467   2.974   4.192   4.604 -2.7236 -0.1511  1.6441
19992TIP3    H281468   2.992   4.326   4.672 -0.3216  0.4279  0.0053
19993TIP3   OH281469   1.878   6.090   3.064 -0.4276 -0.6706 -0.4763
19993TIP3    H181470   1.820   6.164   3.085  0.8681  0.4531 -0.7693
19993TIP3    H281471   1.925   6.117   2.985  2.4560 -0.3517  1.2007
19994TIP3   OH281472   2.663   0.205  16.818  0.3535  0.6533  0.4065
19994TIP3    H181473   2.715   0.277  16.782 -0.2240  0.6653 -0.4282
19994TIP3    H281474   2.667   0.218  16.913  0.4997  1.6125  0.2801
19995TIP3   OH281475   6.453   2.680   0.483  0.1341 -0.6195 -0.2041
19995TIP3    H181476   6.466   2.688   0.389 -0.4516 -0.3347 -0.2597
19995TIP3    H281477   6.400   2.755   0.507  0.2177 -0.7314  0.3454
19996TIP3   OH281478   4.925   5.053  14.235 -0.7478 -0.1314  0.2747
19996TIP3    H181479   4.936   5.106  14.156  0.9752 -0.5924  0.1662
19996TIP3    H281480   4.942   5.114  14.307 -1.4906  0.0877  0.2765
19997TIP3   OH281481   0.482   5.676  11.638  0.1275 -0.2308  0.7254
19997TIP3    H181482   0.523   5.671  11.724 -1.7527  0.4794  1.7167
19997TIP3    H281483   0.554   5.695  11.578  1.1252  2.1897  2.5289
19998TIP3   OH281484   1.103   0.980   6.745 -0.0632  0.2993  0.3666
19998TIP3    H181485   1.041   0.929   6.694  0.8683  0.7509 -1.2970
19998TIP3    H281486   1.081   1.072   6.726  0.0922  0.4927  1.0652
19999TIP3   OH281487   3.124   1.902   3.292  0.1750 -0.6333 -0.1210
19999TIP3    H181488   3.101   1.985   3.251 -1.4053 -1.1021 -0.2353
19999TIP3    H281489   3.187   1.863   3.231  0.8653  0.4205 -0.1097
20000TIP3   OH281490   6.202   1.898  17.025 -0.4601  0.1099  0.4260
20000TIP3    H181491   6.126   1.942  16.986 -0.3978  1.6804  1.9213
20000TIP3    H281492   6.232   1.959  17.093  1.5768 -0.8951  0.5068
20001TIP3   OH281493   0.645   5.317  12.342 -0.1588 -0.4777 -0.3711
20001TIP3    H181494   0.638   5.403  12.384 -0.1218 -0.4887 -0.3424
20001TIP3    H281495   0.736   5.312  12.312 -0.4374 -0.0718 -1.3129
20002TIP3   OH281496   4.231   4.502   0.070 -0.3839  0.1561 -0.5425
20002TIP3    H181497   4.173   4.551   0.129  0.9006  1.5483 -0.3815
20002TIP3    H281498   4.319   4.528   0.097  0.3261 -1.6453 -1.0094
20003TIP3   OH281499   1.792   5.378  10.986 -0.6118  0.6020 -0.3239
20003TIP3    H181500   1.791   5.392  10.891  0.7010 -1.2806 -0.6628
20003TIP3    H281501   1.880   5.407  11.012 -1.5795  2.8601  0.6737
20004TIP3   OH281502   3.466   5.838   4.671 -0.1480 -0.3236 -0.2011
20004TIP3    H181503   3.416   5.783   4.610  0.4982  0.2772 -1.2891
20004TIP3    H281504   3.468   5.787   4.752  0.0966 -1.7312 -1.0596
20005TIP3   OH281505   3.537   6.464   2.072 -0.3517 -0.4738  0.6114
20005TIP3    H181506   3.585   6.547   2.074 -0.9998 -0.0915  1.1628
20005TIP3    H281507   3.518   6.445   2.164  0.4631 -1.6531  0.5529
20006TIP3   OH281508   6.185   0.432  16.027 -0.2326 -0.7691  0.5524
20006TIP3    H181509   6.223   0.519  16.043 -0.9688 -0.3613  0.1134
20006TIP3    H281510   6.104   0.450  15.979 -0.0852 -1.7392 -0.0680
20007TIP3   OH281511   4.867   1.762  15.813 -0.0966  0.3909 -0.2131
20007TIP3    H181512   4.938   1.710  15.776 -0.3670  0.0356 -0.2429
20007TIP3    H281513   4.884   1.762  15.907 -0.5197 -0.4184 -0.1232
20008TIP3   OH281514   6.235   2.043   4.465  0.0159  0.1198  0.3954
20008TIP3    H181515   6.178   1.990   4.410  0.7181 -0.3060  0.0676
20008TIP3    H281516   6.295   1.980   4.505  1.5597  0.7606 -0.8315
20009TIP3   OH281517   5.761   2.892  14.939 -0.6486  0.7692  0.4284
20009TIP3    H181518   5.736   2.800  14.948 -0.0531  0.6406  0.7750
20009TIP3    H281519   5.845   2.890  14.893 -1.0505  1.1833 -0.3420
20010TIP3   OH281520   1.988   5.112  13.353 -0.8558 -0.6589 -0.4288
20010TIP3    H181521   2.049   5.175  13.315 -0.7103  0.9577  2.2280
20010TIP3    H281522   1.913   5.112  13.294 -0.0991  0.6461 -1.4240
20011TIP3   OH281523   2.850   6.715   4.322  0.4331 -0.1991  0.6230
20011TIP3    H181524   2.882   6.710   4.232  1.2229  1.6015  0.7468
20011TIP3    H281525   2.777   6.654   4.325  0.7029 -0.6713 -1.0914
20012TIP3   OH281526   0.371   3.328  13.178 -0.1306 -0.0548  0.6882
20012TIP3    H181527   0.321   3.316  13.098 -0.0404  2.1735  0.2396
20012TIP3    H281528   0.442   3.263  13.172 -1.8305 -2.0049  0.4917
20013TIP3   OH281529   5.063   1.670   4.820 -0.6142 -0.0956 -0.5083
20013TIP3    H181530   5.016   1.668   4.737 -2.3869 -0.5333  0.4616
20013TIP3    H281531   5.130   1.602   4.812 -0.0862  0.5542 -1.9246
20014TIP3   OH281532   3.552   3.020   1.826  0.0322  0.4677  0.4140
20014TIP3    H181533   3.499   3.028   1.905 -1.4760 -1.3367 -0.3407
20014TIP3    H281534   3.506   2.956   1.772  0.6345  2.1369 -2.2638
20015TIP3   OH281535   4.391   1.866   5.197 -0.4369 -0.7873 -0.3369
20015TIP3    H181536   4.349   1.938   5.152  0.0036 -1.6084 -2.1542
20015TIP3    H281537   4.458   1.835   5.136  0.2011 -1.9490  0.8961
20016TIP3   OH281538   3.863   2.767  13.727 -0.4710 -0.3736  0.1931
20016TIP3    H181539   3.847   2.815  13.646 -1.1829 -0.0774  0.4973
20016TIP3    H281540   3.865   2.675  13.700 -0.5844 -0.2678 -0.1834
20017TIP3   OH281541   4.362   2.312  13.440  0.0134  0.2250  0.0417
20017TIP3    H181542   4.287   2.350  13.395  1.3838  2.3318 -0.6281
20017TIP3    H281543   4.381   2.232  13.392 -1.7182 -0.3162  0.1820
20018TIP3   OH281544   0.136   3.295  15.862  0.1059 -0.0839  0.3158
20018TIP3    H181545   0.150   3.254  15.776  1.1982  0.9186 -0.0122
20018TIP3    H281546   0.204   3.256  15.918  0.2604  0.2651  0.3699
20019TIP3   OH281547   0.237   1.314   1.737  0.5095 -0.0727  0.3357
20019TIP3    H181548   0.192   1.313   1.821  0.2521  1.5098  0.2439
20019TIP3    H281549   0.230   1.224   1.705 -0.8809 -0.3067  1.2100
20020TIP3   OH281550   4.799   2.253   0.786 -0.1888 -0.0093 -0.2115
20020TIP3    H181551   4.728   2.316   0.798 -0.8511 -0.9669  1.1373
20020TIP3    H281552   4.846   2.284   0.708 -0.4573  2.1588  0.4326
20021TIP3   OH281553   4.962   5.426   4.050 -0.1414  0.0495 -0.4395
20021TIP3    H181554   4.921   5.350   4.009  0.1933  0.4636 -1.5724
20021TIP3    H281555   5.020   5.390   4.116 -1.1750 -0.6037  0.1451
20022TIP3   OH281556   6.278   6.348   4.135  0.3434 -1.0032 -0.3680
20022TIP3    H181557   6.372   6.362   4.139 -0.0423  2.0851 -0.1352
20022TIP3    H281558   6.267   6.254   4.150  3.3027 -1.2905  0.5470
20023TIP3   OH281559   2.941   6.803  16.780 -0.5069 -0.3877  0.4064
20023TIP3    H181560   2.968   6.892  16.757  2.2016 -1.0759  0.6209
20023TIP3    H281561   2.890   6.773  16.705 -1.4086  1.2559  0.2924
20024TIP3   OH281562   1.877   6.466   5.020 -0.5104 -0.1342 -0.3745
20024TIP3    H181563   1.877   6.552   5.060 -5.7514  0.1797 -0.3847
20024TIP3    H281564   1.855   6.482   4.928 -2.0806 -1.4112 -0.2671
20025TIP3   OH281565   5.986   4.444   2.469 -0.0514  0.1976 -0.3003
20025TIP3    H181566   5.922   4.431   2.399  0.7976  0.4958 -1.1340
20025TIP3    H281567   6.014   4.535   2.460  1.2772 -0.2237 -0.6126
20026TIP3   OH281568   4.201   2.780   1.440  0.6358 -0.1863  0.4019
20026TIP3    H181569   4.216   2.701   1.493 -0.4381 -0.6968 -0.0285
20026TIP3    H281570   4.117   2.814   1.471  0.1824 -0.2703 -0.6717
20027TIP3   OH281571   6.191   1.988  16.117 -0.7203  0.3503  0.2561
20027TIP3    H181572   6.097   1.990  16.134 -0.6324 -1.4485  1.1572
20027TIP3    H281573   6.229   2.042  16.187 -1.1129  1.8202 -0.6286
20028TIP3   OH281574   0.412   4.413   0.085 -0.3629 -0.1698  0.0615
20028TIP3    H181575   0.440   4.436  -0.004  1.1691 -1.6855  0.0975
20028TIP3    H281576   0.348   4.343   0.072  0.1227 -0.6327  0.1647
20029TIP3   OH281577   3.511   3.620   4.335 -0.5664  0.2908  0.3702
20029TIP3    H181578   3.567   3.652   4.263  1.1520 -0.1948  1.4293
20029TIP3    H281579   3.515   3.690   4.400 -2.0291  0.6788  0.0685
20030TIP3   OH281580   4.993   4.134  16.696  0.3387  0.3782  0.1273
20030TIP3    H181581   4.995   4.153  16.603 -0.5545 -0.0230  0.0150
20030TIP3    H281582   4.924   4.069  16.706  0.6192  0.1971  1.0332
20031TIP3   OH281583   6.162   0.210  12.799  0.0807  0.3299  0.4713
20031TIP3    H181584   6.096   0.140  12.800  1.2119 -0.7593  0.6632
20031TIP3    H281585   6.120   0.280  12.749 -0.8246 -0.7373 -0.3563
20032TIP3   OH281586   0.648   6.189   4.398  0.3671 -0.3882  0.2434
20032TIP3    H181587   0.731   6.143   4.385  0.9888  0.9038 -0.5857
20032TIP3    H281588   0.581   6.128   4.367  1.0427 -1.2610  0.4853
20033TIP3   OH281589   1.608   1.849   4.131 -0.4890 -0.3983 -0.6991
20033TIP3    H181590   1.684   1.800   4.163 -0.6640 -0.3021 -0.1247
20033TIP3    H281591   1.611   1.838   4.036  0.0278 -0.7098 -0.6517
20034TIP3   OH281592   1.402   6.403   4.757 -0.4391  0.3636 -0.2974
20034TIP3    H181593   1.436   6.325   4.801 -0.6180  1.2961  1.6080
20034TIP3    H281594   1.324   6.373   4.711 -0.5300 -0.5919  0.4495
20035TIP3   OH281595   2.942   4.932   0.681  0.3820 -0.3464  0.4547
20035TIP3    H181596   2.918   5.012   0.634 -1.8707 -3.1841 -3.9316
20035TIP3    H281597   2.863   4.907   0.728  1.1598  0.0009  2.0266
20036TIP3   OH281598   2.708   1.954   1.511 -0.4218 -0.7332  0.0259
20036TIP3    H181599   2.678   2.032   1.464 -0.3706 -1.5047 -1.3234
20036TIP3    H281600   2.667   1.961   1.597 -0.6726  0.6189 -0.1741
20037TIP3   OH281601   0.303   3.515   4.980  0.2292  0.4952 -0.5382
20037TIP3    H181602   0.363   3.464   4.925 -0.8284 -1.4918  0.0401
20037TIP3    H281603   0.216   3.484   4.956 -0.3252  0.4169  1.3954
20038TIP3   OH281604   1.775   6.449   0.804  0.2196 -0.0010 -0.1907
20038TIP3    H181605   1.828   6.399   0.743 -2.6076 -0.6910 -2.3199
20038TIP3    H281606   1.753   6.529   0.756 -0.0187  0.6237  0.9194
20039TIP3   OH281607   0.974   3.950  13.517  0.0073 -0.5329 -0.0818
20039TIP3    H181608   0.944   3.860  13.505  1.3338 -0.8750 -0.9805
20039TIP3    H281609   0.935   3.997  13.443 -2.2203  0.0857  1.3783
20040TIP3   OH281610   6.727   2.808   3.386 -0.1832 -0.1818  0.1445
20040TIP3    H181611   6.798   2.753   3.418  0.5028  0.8298  0.4088
20040TIP3    H281612   6.744   2.818   3.292 -1.2719 -1.7884 -0.2732
20041TIP3   OH281613   1.249   1.021   4.376  0.2188  0.1017  0.0648
20041TIP3    H181614   1.192   1.098   4.369 -0.0936 -0.2004 -1.0162
20041TIP3    H281615   1.232   0.986   4.463 -0.7689  0.3978  0.0071
20042TIP3   OH281616   6.151   2.020   3.742 -0.5346 -0.4947  0.7256
20042TIP3    H181617   6.066   2.016   3.785 -0.8413  0.3897  0.2497
20042TIP3    H281618   6.146   2.100   3.688  1.4524  0.9260  2.5048
20043TIP3   OH281619   3.306   3.101   5.858 -1.0118 -0.5183 -0.3890
20043TIP3    H181620   3.332   3.120   5.949 -0.2221  1.9700 -1.0582
20043TIP3    H281621   3.231   3.158   5.842  0.4518  1.0470 -2.0345
20044TIP3   OH281622   5.269   1.586   0.002 -0.4951  0.3038 -0.8087
20044TIP3    H181623   5.293   1.522   0.069 -1.3946  1.7656  0.9883
20044TIP3    H281624   5.207   1.540  -0.054  0.0601 -0.8609 -0.4955
20045TIP3   OH281625   2.382   3.068  15.394  0.0404  0.4254 -0.1092
20045TIP3    H181626   2.470   3.102  15.412  0.6693 -0.0297 -2.0278
20045TIP3    H281627   2.391   2.973  15.402 -0.3640  0.3947  0.0086
20046TIP3   OH281628   5.816   2.317  15.914  0.1640 -0.1978  0.0117
20046TIP3    H181629   5.848   2.362  15.992 -0.9479  0.7061 -0.0267
20046TIP3    H281630   5.881   2.249  15.897  0.5943 -0.2078  1.5350
20047TIP3   OH281631   1.464   5.651  10.731  0.5427  0.0434 -0.0278
20047TIP3    H181632   1.464   5.741  10.764 -2.4060  1.1093 -2.4156
20047TIP3    H281633   1.498   5.659  10.641 -0.1337 -1.1374 -0.4144
20048TIP3   OH281634   6.216   0.406  11.301  0.2980  0.4949 -0.0027
20048TIP3    H181635   6.189   0.497  11.284 -2.9101 -0.5361 -1.2822
20048TIP3    H281636   6.219   0.365  11.215  1.8103 -0.6523  0.5397
20049TIP3   OH281637   5.479   0.549   5.815  0.0381  0.0593  0.8354
20049TIP3    H181638   5.442   0.617   5.759  0.4068 -0.3846  0.0367
20049TIP3    H281639   5.430   0.469   5.793  0.4578 -0.2077  0.8566
20050TIP3   OH281640   6.602   6.610  15.380  0.1689  0.5226 -0.3408
20050TIP3    H181641   6.662   6.652  15.442 -0.1752  1.0054 -0.3299
20050TIP3    H281642   6.561   6.539  15.431  0.3196  0.5437 -0.1881
20051TIP3   OH281643   4.205   3.759  14.040 -0.6505 -0.2066  0.0218
20051TIP3    H181644   4.140   3.829  14.037 -0.2539  0.1916  0.4867
20051TIP3    H281645   4.261   3.782  14.114  0.1134 -0.4494 -0.4665
20052TIP3   OH281646   6.391   4.800  12.544  0.1887  0.6987  0.5600
20052TIP3    H181647   6.363   4.746  12.471  1.3050  1.2323 -0.2961
20052TIP3    H281648   6.346   4.764  12.620  0.0907 -0.7471 -0.1585
20053TIP3   OH281649   2.459   1.740  11.140  0.3612 -0.3076  0.2613
20053TIP3    H181650   2.516   1.721  11.214  0.1853  0.5830  0.6390
20053TIP3    H281651   2.469   1.834  11.125 -1.8911  0.1193  1.1119
20054TIP3   OH281652   2.765   0.271   2.424  0.2572  0.2844 -0.1828
20054TIP3    H181653   2.812   0.312   2.351  0.9383  0.0923  0.1409
20054TIP3    H281654   2.778   0.330   2.498  1.6656 -0.7134  0.4166
20055TIP3   OH281655   1.744   1.414   3.273 -0.3349  0.1184  0.1825
20055TIP3    H181656   1.740   1.501   3.233 -0.5371 -1.0150 -2.4794
20055TIP3    H281657   1.757   1.354   3.200 -3.9641 -2.4928  1.3372
20056TIP3   OH281658   1.164   1.466   4.125  0.8032  0.0604 -0.4848
20056TIP3    H181659   1.126   1.420   4.050  0.9848  2.6392 -2.2777
20056TIP3    H281660   1.256   1.480   4.100  0.3854  2.7217 -0.7931
20057TIP3   OH281661   5.834   6.332  12.273 -0.3635  0.5985 -0.4986
20057TIP3    H181662   5.792   6.246  12.272  0.7935  0.0116 -0.1722
20057TIP3    H281663   5.884   6.336  12.192 -1.4145  1.5020 -1.1314
20058TIP3   OH281664   0.333   1.795   1.209 -0.2434  0.3166  0.0636
20058TIP3    H181665   0.309   1.888   1.211 -0.6013  0.2274  1.7461
20058TIP3    H281666   0.406   1.788   1.271 -1.1364 -0.7249  1.0581
20059TIP3   OH281667   4.406   4.340   0.433  0.4298  0.3013  0.2210
20059TIP3    H181668   4.344   4.409   0.408 -1.1251 -1.5595 -1.4101
20059TIP3    H281669   4.483   4.356   0.379  0.2699  1.0167  0.1945
20060TIP3   OH281670   4.690   1.541  12.463 -0.3335 -0.0140  0.2889
20060TIP3    H181671   4.700   1.627  12.504  0.4427  0.5482 -1.0253
20060TIP3    H281672   4.726   1.480  12.528  1.7909  0.9527  0.1126
20061TIP3   OH281673   4.087   4.177  16.712 -0.3523 -0.2649  0.0112
20061TIP3    H181674   4.165   4.123  16.725  0.6697  0.4865 -2.5121
20061TIP3    H281675   4.032   4.126  16.652 -0.9030  0.0671  0.2272
20062TIP3   OH281676   1.488   1.371  15.480 -0.1154  0.3087 -0.4223
20062TIP3    H181677   1.479   1.333  15.568  0.3282 -1.8357 -1.2527
20062TIP3    H281678   1.403   1.354  15.439 -0.0706  0.6536 -0.6546
20063TIP3   OH281679   5.380   3.934  14.732 -0.2140  0.2075  0.2514
20063TIP3    H181680   5.332   4.015  14.716 -1.3982 -0.8668 -2.1688
20063TIP3    H281681   5.386   3.892  14.646  1.5285 -1.6590  1.1907
20064TIP3   OH281682   5.148   1.986   2.091 -0.0528  0.1662  0.1112
20064TIP3    H181683   5.215   2.048   2.120  0.5796 -0.6172  0.3283
20064TIP3    H281684   5.147   1.995   1.995  2.7175 -2.1530 -0.2419
20065TIP3   OH281685   3.005   4.976   5.425  0.0517 -0.0737  0.3048
20065TIP3    H181686   3.015   5.069   5.443 -2.1996 -0.0033  1.5897
20065TIP3    H281687   3.011   4.968   5.330 -3.9134  2.1122 -0.3522
20066TIP3   OH281688   0.368   3.159  15.961  0.3789 -0.5575 -0.2803
20066TIP3    H181689   0.405   3.071  15.958 -0.0084 -0.6942 -1.4161
20066TIP3    H281690   0.433   3.213  15.916  0.3941 -0.3452 -0.0042
20067TIP3   OH281691   0.205   2.816   1.363 -0.4485  0.0794  0.1462
20067TIP3    H181692   0.278   2.877   1.376 -1.6335  1.3737  1.0505
20067TIP3    H281693   0.158   2.850   1.287 -2.4470  1.7661  2.0177
20068TIP3   OH281694   3.755   3.695   3.899  0.1342  0.1212 -0.8322
20068TIP3    H181695   3.804   3.614   3.885 -0.0670 -0.3771  1.1205
20068TIP3    H281696   3.781   3.724   3.986 -1.0155  1.2973 -0.8539
20069TIP3   OH281697   1.289   0.362   6.053  0.3176  0.1386  0.7212
20069TIP3    H181698   1.214   0.400   6.008  1.0311  0.6776 -0.0577
20069TIP3    H281699   1.352   0.434   6.059  1.4279 -0.7094 -0.1820
20070TIP3   OH281700   0.675   1.535  14.507  0.0387  0.3874 -0.2845
20070TIP3    H181701   0.681   1.505  14.598  2.1860 -0.6165 -0.7003
20070TIP3    H281702   0.641   1.460  14.459  0.2225  0.4499 -0.5144
20071TIP3   OH281703   6.211   6.171  13.769  0.2216 -0.3875  0.3384
20071TIP3    H181704   6.170   6.121  13.839  0.6093  0.3847  1.1367
20071TIP3    H281705   6.303   6.146  13.772  0.2315 -0.3923  0.0641
20072TIP3   OH281706   4.890   2.154   3.288  0.2498 -0.1993 -0.1381
20072TIP3    H181707   4.954   2.135   3.220  0.2015  0.0968 -0.2685
20072TIP3    H281708   4.930   2.223   3.340 -0.1319  0.2809 -0.4687
20073TIP3   OH281709   1.635   1.959   3.222 -0.4201  0.0255 -0.2242
20073TIP3    H181710   1.640   2.055   3.212 -0.5820  0.0593  0.0037
20073TIP3    H281711   1.572   1.931   3.156 -0.2834  0.0636 -0.3703
20074TIP3   OH281712   4.213   2.665   1.930  0.2285  0.4765  0.5358
20074TIP3    H181713   4.152   2.594   1.950 -2.2929  2.0617 -0.9933
20074TIP3    H281714   4.169   2.744   1.959  2.3296  1.6032  0.8775
20075TIP3   OH281715   0.183   3.730  11.846  0.2814 -0.3725 -0.4139
20075TIP3    H181716   0.262   3.714  11.897  0.1830  0.0241 -0.1309
20075TIP3    H281717   0.131   3.651  11.857 -0.4529  0.2950  1.4336
20076TIP3   OH281718   4.865   2.609   4.512  0.1501 -0.4162 -0.0335
20076TIP3    H181719   4.826   2.697   4.510 -0.4352 -0.6161  1.3953
20076TIP3    H281720   4.947   2.618   4.463 -1.1582  0.2587 -2.2398
20077TIP3   OH281721   0.252   0.680   3.752  0.4268  0.3998  0.4800
20077TIP3    H181722   0.182   0.618   3.731  1.4499 -0.9886  1.0322
20077TIP3    H281723   0.332   0.639   3.718  1.1199  1.4502  0.7878
20078TIP3   OH281724   2.061   0.216   2.673  0.5983  0.0104  0.9399
20078TIP3    H181725   1.990   0.224   2.609  0.2890 -1.0209  1.1283
20078TIP3    H281726   2.124   0.283   2.647 -0.6890  1.3314  1.1126
20079TIP3   OH281727   0.014   1.548   5.734 -0.0993  0.0165  0.3057
20079TIP3    H181728   0.050   1.499   5.808  0.4878 -1.6305 -1.0033
20079TIP3    H281729   0.043   1.638   5.747  0.5609 -0.3839  1.7123
20080TIP3   OH281730   5.194   5.068   5.274 -0.5388  0.2844 -0.4894
20080TIP3    H181731   5.129   5.100   5.211 -0.8223  1.0867  0.1816
20080TIP3    H281732   5.161   5.098   5.359  0.1927 -0.1729 -0.0353
20081TIP3   OH281733   5.301   0.724   0.415  0.3287 -0.2867 -0.4704
20081TIP3    H181734   5.265   0.668   0.347 -0.4648  1.2941 -1.3953
20081TIP3    H281735   5.395   0.725   0.399  0.3088 -1.0131 -0.6712
20082TIP3   OH281736   4.641   3.955  15.322 -0.1640  0.4363 -0.1334
20082TIP3    H181737   4.696   4.032  15.304  0.7250 -0.6966 -2.7332
20082TIP3    H281738   4.701   3.892  15.360 -0.1384 -0.0214 -0.9058
20083TIP3   OH281739   6.773   6.151  13.108 -0.2053  0.0182 -0.1015
20083TIP3    H181740   6.770   6.075  13.051  1.2911  2.0545 -3.1857
20083TIP3    H281741   6.683   6.185  13.108  0.1935  1.4384 -3.6274
20084TIP3   OH281742   1.067   2.154   5.218  0.3031 -0.3544 -0.4185
20084TIP3    H181743   0.989   2.118   5.177  0.7063  0.1097 -1.6486
20084TIP3    H281744   1.139   2.126   5.162  1.0818 -1.0477  0.8704
20085TIP3   OH281745   4.873   0.150   1.583 -0.2094 -0.2823 -0.8009
20085TIP3    H181746   4.849   0.057   1.574  0.0298 -0.7208  2.0584
20085TIP3    H281747   4.965   0.153   1.557 -0.0021 -1.0445 -0.2192
20086TIP3   OH281748   1.033   4.521   6.063  0.1528 -0.4131  0.0672
20086TIP3    H181749   0.999   4.609   6.079  0.0652 -0.5322  0.5565
20086TIP3    H281750   1.096   4.506   6.134  0.3874 -0.6317 -0.1851
20087TIP3   OH281751   5.931   3.396  11.916  0.2039 -0.3773 -0.4640
20087TIP3    H181752   5.928   3.300  11.909  1.6927 -0.5351  0.5647
20087TIP3    H281753   5.995   3.413  11.985  0.1180  1.3784 -0.7712
20088TIP3   OH281754   5.403   1.406   2.442 -0.0449 -0.1527 -0.3390
20088TIP3    H181755   5.423   1.446   2.526 -0.3520  0.2872 -0.4676
20088TIP3    H281756   5.443   1.319   2.445  0.6075  0.1545 -0.0373
20089TIP3   OH281757   4.139   6.711   0.280  0.1284 -0.0457  0.2347
20089TIP3    H181758   4.065   6.650   0.278 -0.5250  0.7382 -0.3946
20089TIP3    H281759   4.142   6.742   0.370  1.0457 -1.6718  0.7950
20090TIP3   OH281760   0.754   4.151   2.552  0.0462 -0.8650 -0.1631
20090TIP3    H181761   0.727   4.226   2.605 -0.8703 -1.5863  0.4214
20090TIP3    H281762   0.702   4.158   2.472  1.3228  0.1408 -0.9526
20091TIP3   OH281763   5.336   2.151   3.554 -0.1635  0.2236  0.4372
20091TIP3    H181764   5.403   2.084   3.538  0.2680  0.0860  2.5679
20091TIP3    H281765   5.385   2.230   3.574 -0.6780  0.9210 -0.9344
20092TIP3   OH281766   5.935   0.800   0.362 -0.4156  0.1704  0.6244
20092TIP3    H181767   5.938   0.837   0.450 -3.0016 -1.4758  1.5368
20092TIP3    H281768   5.902   0.711   0.375 -0.8028 -0.1532 -2.0078
20093TIP3   OH281769   5.289   6.661   4.792  0.7447 -0.2021  0.1925
20093TIP3    H181770   5.217   6.600   4.775 -0.1120  0.3514  1.6864
20093TIP3    H281771   5.283   6.725   4.721  1.0379 -1.2592 -0.8266
20094TIP3   OH281772   5.549   5.799   5.086  0.5179 -0.1673  0.0659
20094TIP3    H181773   5.554   5.848   5.004  0.3232 -2.5676 -1.4895
20094TIP3    H281774   5.621   5.834   5.140  0.3790  1.7525 -0.9125
20095TIP3   OH281775   5.877   5.921   0.471 -0.0707 -0.3449  0.1705
20095TIP3    H181776   5.931   5.941   0.394  1.6832 -1.9557  0.8931
20095TIP3    H281777   5.797   5.972   0.459  1.4968  1.9718 -1.0920
20096TIP3   OH281778   3.503   4.519  13.273  0.5592  0.0384  0.2809
20096TIP3    H181779   3.513   4.610  13.303  1.1772 -0.0786  0.4493
20096TIP3    H281780   3.409   4.502  13.280  0.6597  0.0067  2.2123
20097TIP3   OH281781   2.015   6.446  13.434 -0.3557  0.2625  1.1560
20097TIP3    H181782   2.065   6.503  13.492  1.9237 -1.3958  0.9777
20097TIP3    H281783   1.971   6.385  13.493 -0.2448  0.2722  1.2509
20098TIP3   OH281784   3.385   0.559   4.294  0.5457 -0.1405 -0.4803
20098TIP3    H181785   3.293   0.535   4.284 -0.4499  2.5473  1.1324
20098TIP3    H281786   3.410   0.525   4.380  0.5343  0.5385 -0.2019
20099TIP3   OH281787   2.518   3.985  16.190  0.1552  0.2708  0.2958
20099TIP3    H181788   2.434   3.943  16.170  0.1227  1.4928 -2.6798
20099TIP3    H281789   2.503   4.029  16.273 -1.6200 -0.8170  0.6185
20100TIP3   OH281790   5.003   3.458   6.270  0.0409 -0.2287 -0.8331
20100TIP3    H181791   4.943   3.532   6.256 -0.9416 -0.6456  0.9320
20100TIP3    H281792   5.003   3.412   6.186 -2.2486 -0.2850 -0.8806
20101TIP3   OH281793   1.622   5.606   0.857  0.3214 -0.2280 -1.0145
20101TIP3    H181794   1.580   5.535   0.809 -0.0105 -0.8654  0.1795
20101TIP3    H281795   1.580   5.606   0.943 -0.7211  2.3598 -1.4019
20102TIP3   OH281796   0.104   2.814  15.811 -0.0062  0.1569 -0.9207
20102TIP3    H181797   0.034   2.859  15.764 -0.8299 -0.5918 -0.4344
20102TIP3    H281798   0.137   2.749  15.748  1.4121  1.5901 -1.7442
20103TIP3   OH281799   6.045   2.082  14.790 -0.5618 -0.2941  0.3423
20103TIP3    H181800   6.014   2.040  14.710  0.2954 -1.1579  0.4388
20103TIP3    H281801   6.011   2.171  14.785  0.9065  0.2414 -1.8674
20104TIP3   OH281802   0.237   5.135  15.647  0.3168 -0.1161 -0.1064
20104TIP3    H181803   0.184   5.077  15.703  1.4316 -1.0999 -0.0312
20104TIP3    H281804   0.295   5.076  15.599  2.4858  1.0035  0.9957
20105TIP3   OH281805   4.899   0.927   2.530  0.6831 -0.4098  0.3060
20105TIP3    H181806   4.869   0.950   2.442 -0.1946 -0.5283  0.5662
20105TIP3    H281807   4.885   1.007   2.581 -0.9656 -1.0087  0.8608
20106TIP3   OH281808   0.787   5.075   4.967  0.4783 -0.4565  0.3139
20106TIP3    H181809   0.765   5.020   4.892 -1.1908 -1.8371  1.7061
20106TIP3    H281810   0.858   5.131   4.937  0.6461 -1.7637 -1.9106
20107TIP3   OH281811   2.265   5.368   5.223 -0.0813  0.0282  0.4283
20107TIP3    H181812   2.359   5.379   5.235  0.2080 -2.1700  0.5004
20107TIP3    H281813   2.231   5.458   5.221  1.6755  0.8423  2.8435
20108TIP3   OH281814   1.434   2.809  13.140  0.5231 -0.2447  0.8348
20108TIP3    H181815   1.340   2.805  13.157  0.7609 -1.8508  2.0118
20108TIP3    H281816   1.468   2.870  13.205  0.1970  1.0924 -0.2166
20109TIP3   OH281817   5.114   1.953  13.307  0.1667 -0.9699  0.4631
20109TIP3    H181818   5.141   1.893  13.377  1.8630 -0.4449  0.3013
20109TIP3    H281819   5.173   2.027  13.314 -0.8349 -0.0548 -0.3867
20110TIP3   OH281820   3.398   2.634  15.861 -0.2886 -0.2063  0.0900
20110TIP3    H181821   3.338   2.698  15.822 -1.1517 -1.1775 -0.2249
20110TIP3    H281822   3.348   2.595  15.932  0.6154  0.2127  0.9818
20111TIP3   OH281823   0.771   4.507   5.554 -0.1105  0.1207  1.0194
20111TIP3    H181824   0.771   4.476   5.463 -2.3838  1.2841  0.5568
20111TIP3    H281825   0.775   4.427   5.606  1.5647 -0.5507 -0.0638
20112TIP3   OH281826   4.357   6.698  16.341  0.0034  0.0383  0.3957
20112TIP3    H181827   4.406   6.705  16.260  0.7365 -0.4578  0.7815
20112TIP3    H281828   4.423   6.678  16.407 -0.5493  0.6508  1.1540
20113TIP3   OH281829   0.968   0.287  10.923 -0.2387 -0.3772  0.5159
20113TIP3    H181830   0.953   0.193  10.913  0.3365 -0.2895 -1.6142
20113TIP3    H281831   1.062   0.298  10.910 -0.1946  0.4331  1.4067
20114TIP3   OH281832   2.217   6.752  15.354 -0.5714  0.0407 -0.1369
20114TIP3    H181833   2.153   6.746  15.425 -0.0420 -0.4512  0.3108
20114TIP3    H281834   2.298   6.718  15.392 -0.4843 -1.0336 -1.2245
20115TIP3   OH281835   2.823   4.934  16.758 -0.7302  0.4412  0.2402
20115TIP3    H181836   2.868   4.983  16.689 -0.0221 -0.3449  0.1268
20115TIP3    H281837   2.768   4.999  16.801  0.4419  1.4167  0.3164
20116TIP3   OH281838   3.619   5.560  13.349  0.5797 -0.0008  0.9208
20116TIP3    H181839   3.665   5.495  13.296 -1.5297  0.5536 -1.7880
20116TIP3    H281840   3.659   5.644  13.325 -1.0319  0.3662 -0.6784
20117TIP3   OH281841   4.000   4.014   5.501 -0.2866  0.4307  1.1083
20117TIP3    H181842   4.038   4.102   5.497 -0.4357  0.4823  0.6900
20117TIP3    H281843   4.058   3.961   5.447 -1.3267  0.7236 -0.3778
20118TIP3   OH281844   1.756   3.857  12.498  0.2238 -0.0492  0.0599
20118TIP3    H181845   1.670   3.814  12.497  0.8106 -1.3331  0.9460
20118TIP3    H281846   1.816   3.790  12.466  0.9844  0.6339  0.0288
20119TIP3   OH281847   3.795   1.795  12.899 -0.3406 -0.2321 -0.1729
20119TIP3    H181848   3.701   1.777  12.906 -0.8243  2.1390  0.2480
20119TIP3    H281849   3.813   1.793  12.804 -0.9350 -0.1637 -0.2896
20120TIP3   OH281850   1.769   2.014   0.034 -0.2975  0.0340 -0.7803
20120TIP3    H181851   1.691   2.059   0.003 -1.0711 -0.3070  0.6099
20120TIP3    H281852   1.738   1.952   0.100  1.1921  0.2617  0.1935
20121TIP3   OH281853   0.536   1.294   0.030 -0.3989 -1.0065 -0.2970
20121TIP3    H181854   0.450   1.314   0.069 -0.9798 -1.5689 -1.2702
20121TIP3    H281855   0.519   1.224  -0.032  0.4793 -0.0373 -1.6866
20122TIP3   OH281856   0.933   0.513  15.968 -0.2668  0.3009 -0.0711
20122TIP3    H181857   0.963   0.579  15.906 -1.0926 -1.2064 -2.2110
20122TIP3    H281858   1.013   0.476  16.004  0.2753  0.6139 -0.9253
20123TIP3   OH281859   4.613   1.692   5.290 -0.2779 -0.7937  0.7361
20123TIP3    H181860   4.561   1.639   5.229  0.4008  0.2623 -0.8363
20123TIP3    H281861   4.695   1.642   5.300  0.2762 -0.2037 -0.5754
20124TIP3   OH281862   4.932   1.184   3.068 -0.1189  0.3618  0.2464
20124TIP3    H181863   4.979   1.263   3.041  0.1643 -0.1636 -0.8428
20124TIP3    H281864   5.001   1.123   3.094 -0.3693  0.7407  1.9276
20125TIP3   OH281865   6.634   0.184   1.209 -0.2690 -0.4298  0.4375
20125TIP3    H181866   6.603   0.249   1.272 -0.1188  0.5334 -0.4732
20125TIP3    H281867   6.632   0.228   1.125 -0.4652 -1.7072 -0.2551
20126TIP3   OH281868   3.246   2.782  12.580  0.8846 -0.1047  0.1373
20126TIP3    H181869   3.335   2.782  12.545  0.8940  1.8383  0.0605
20126TIP3    H281870   3.236   2.868  12.621 -0.7431 -0.5333  0.7074
20127TIP3   OH281871   0.505   2.175  12.418  0.0092 -0.4276  0.1316
20127TIP3    H181872   0.586   2.196  12.372  0.4177  1.8798  1.7383
20127TIP3    H281873   0.526   2.187  12.510 -2.0369 -0.2679  0.6248
20128TIP3   OH281874   0.218   3.931  12.684  0.3764 -0.4095 -0.6775
20128TIP3    H181875   0.171   3.932  12.767 -0.6712  1.1556 -1.2489
20128TIP3    H281876   0.295   3.876  12.701 -0.3501 -0.9801  1.0015
20129TIP3   OH281877   5.859   0.525  13.484  0.5110 -0.1717  0.4735
20129TIP3    H181878   5.942   0.571  13.470 -0.1487  0.8221 -0.2726
20129TIP3    H281879   5.793   0.594  13.488 -0.4566 -1.0152 -0.2525
20130TIP3   OH281880   5.775   4.075   4.226 -0.4615 -0.5741  0.2716
20130TIP3    H181881   5.690   4.105   4.195 -0.9875 -2.2681 -0.0583
20130TIP3    H281882   5.837   4.106   4.159 -0.3487  2.9431  1.8176
20131TIP3   OH281883   4.627   6.574   1.427  0.1862 -0.2108 -0.0557
20131TIP3    H181884   4.622   6.521   1.347 -0.9189  0.1791 -0.2667
20131TIP3    H281885   4.545   6.623   1.428  0.0834 -0.3637  1.4349
20132TIP3   OH281886   1.004   1.533   5.776 -0.3343 -0.6588  0.5237
20132TIP3    H181887   1.024   1.569   5.689  0.7359 -0.5421  0.8060
20132TIP3    H281888   1.089   1.522   5.817 -0.7875 -1.4369  1.2808
20133TIP3   OH281889   6.728   5.063  11.461  0.4877  0.3164 -0.4654
20133TIP3    H181890   6.810   5.112  11.467  1.1534 -0.9265  2.9953
20133TIP3    H281891   6.668   5.109  11.521 -0.1889 -0.7432 -0.2984
20134TIP3   OH281892   1.711   6.355   5.717  0.3449  0.3524 -0.9203
20134TIP3    H181893   1.659   6.435   5.726  0.2500  0.2738 -0.7709
20134TIP3    H281894   1.691   6.323   5.629  0.4959  0.5723 -1.0377
20135TIP3   OH281895   4.400   1.465  17.118 -0.5053 -0.2545  0.8132
20135TIP3    H181896   4.324   1.433  17.167 -0.4484 -1.0839  0.3690
20135TIP3    H281897   4.391   1.561  17.121 -0.3025 -0.2428  2.7771
20136TIP3   OH281898   4.037   6.739  15.847  0.4368 -0.3565 -0.1437
20136TIP3    H181899   4.053   6.826  15.884  0.2896  0.7227 -2.4330
20136TIP3    H281900   4.117   6.720  15.797  0.2016 -1.2734 -0.1858
20137TIP3   OH281901   2.369   1.974  12.137  1.3055  0.3732  0.1775
20137TIP3    H181902   2.392   1.928  12.218  0.2003  1.1316  0.9498
20137TIP3    H281903   2.314   2.046  12.165  1.0874  0.7939 -1.2454
20138TIP3   OH281904   4.958   5.377   5.361  0.7549  0.0092  0.1116
20138TIP3    H181905   5.053   5.371   5.354  1.1429  0.8664  3.1290
20138TIP3    H281906   4.940   5.470   5.372 -0.4466 -0.1493 -0.2994
20139TIP3   OH281907   3.072   3.051  13.871 -0.0853  0.2317  0.1664
20139TIP3    H181908   3.129   3.094  13.934  0.7546 -0.9043  0.2073
20139TIP3    H281909   2.983   3.071  13.901  0.2870 -0.5134  1.8883
20140TIP3   OH281910   3.599   6.406   4.465 -0.3209 -0.0780  0.2694
20140TIP3    H181911   3.544   6.332   4.442 -0.0157 -0.5470  1.0340
20140TIP3    H281912   3.681   6.390   4.419  0.7321 -1.6410  2.4946
20141TIP3   OH281913   3.641   5.076   1.915 -0.7310  0.2564 -0.4871
20141TIP3    H181914   3.698   5.002   1.896 -0.9237  0.0834 -0.3835
20141TIP3    H281915   3.702   5.149   1.929 -0.4532 -0.1942  0.8591
20142TIP3   OH281916   6.661   1.817   0.501 -0.2986 -0.2607  0.8341
20142TIP3    H181917   6.670   1.766   0.421 -3.1785  1.1897 -0.5794
20142TIP3    H281918   6.570   1.804   0.528  0.3117  0.1100  3.3550
20143TIP3   OH281919   6.397   2.683   2.870 -0.2563  0.0113  0.2626
20143TIP3    H181920   6.306   2.681   2.898  0.1479  0.7624  1.7664
20143TIP3    H281921   6.402   2.758   2.811 -0.8618 -0.8201 -0.8812
20144TIP3   OH281922   5.122   6.043   1.473  0.5229  0.6967  0.4033
20144TIP3    H181923   5.194   6.050   1.411  0.0544  0.6058 -0.1618
20144TIP3    H281924   5.111   6.132   1.508  1.5936  0.4922  1.2896
20145TIP3   OH281925   6.828   1.294   1.938  0.0075 -0.0161  0.1739
20145TIP3    H181926   6.851   1.317   2.028  0.5886  0.7584 -0.1594
20145TIP3    H281927   6.775   1.215   1.946 -1.2244  0.8867  1.3026
20146TIP3   OH281928   3.322   4.793  13.913  0.5987 -0.6654 -0.1154
20146TIP3    H181929   3.280   4.866  13.869  0.9205  0.6170  1.6007
20146TIP3    H281930   3.256   4.723  13.913 -0.0997 -0.0215 -0.8488
20147TIP3   OH281931   5.843   3.911   6.691  0.3021 -0.2241  0.3632
20147TIP3    H181932   5.935   3.887   6.700  0.2605  0.5671  4.5383
20147TIP3    H281933   5.795   3.835   6.723 -0.4673 -0.0043 -0.2228
20148TIP3   OH281934   2.622   4.239  14.088 -0.5524 -0.7290 -0.1775
20148TIP3    H181935   2.601   4.155  14.129  0.0916 -0.2811  1.1404
20148TIP3    H281936   2.716   4.250  14.103 -0.3978 -0.2960 -1.3571
20149TIP3   OH281937   3.799   0.422  13.424 -0.3021 -0.3076 -0.0658
20149TIP3    H181938   3.801   0.405  13.518 -1.7923 -0.1864  0.0107
20149TIP3    H281939   3.843   0.346  13.385  0.2288 -0.4083  0.7117
20150TIP3   OH281940   0.482   1.728  13.082  0.3520 -0.0355 -0.0175
20150TIP3    H181941   0.512   1.692  12.998 -0.0121 -0.1888 -0.0873
20150TIP3    H281942   0.423   1.799  13.058  1.8128  1.2698  0.1276
20151TIP3   OH281943   3.430   0.373  14.791  0.4596  0.4541 -0.7283
20151TIP3    H181944   3.361   0.364  14.725  2.2903 -0.6621 -2.5765
20151TIP3    H281945   3.444   0.284  14.822  2.1576  0.3946 -1.5752
20152TIP3   OH281946   3.754   1.777  14.013 -0.2797 -0.0508  0.4158
20152TIP3    H181947   3.790   1.763  13.925  0.7890 -0.0518  0.8435
20152TIP3    H281948   3.768   1.693  14.058  0.3465  0.3498  0.9823
20153TIP3   OH281949   5.222   1.937  12.589 -0.0333  0.0028  0.1109
20153TIP3    H181950   5.141   1.912  12.543 -0.6974 -0.0433  1.2735
20153TIP3    H281951   5.288   1.942  12.519 -0.7548 -1.1708 -0.6978
20154TIP3   OH281952   2.812   6.384  12.175  0.0446 -0.5882  0.4586
20154TIP3    H181953   2.750   6.311  12.183  0.6684 -1.0404  1.4853
20154TIP3    H281954   2.776   6.452  12.232 -0.4803 -0.1202 -0.4148
20155TIP3   OH281955   4.633   2.445   2.304  0.4814  0.1040  0.3210
20155TIP3    H181956   4.600   2.394   2.230  2.4731  0.8557 -1.1584
20155TIP3    H281957   4.566   2.512   2.319  0.2097  0.1683 -1.0534
20156TIP3   OH281958   1.654   5.611   2.059  0.1295 -0.6608  0.4346
20156TIP3    H181959   1.697   5.531   2.028  0.8327 -0.2463  0.3150
20156TIP3    H281960   1.726   5.666   2.091 -0.4078 -0.3144  1.0607
20157TIP3   OH281961   4.480   2.452  14.986  0.4105  0.1264  0.3569
20157TIP3    H181962   4.515   2.518  15.046 -1.6329  1.1189  0.5160
20157TIP3    H281963   4.401   2.419  15.030  1.7819 -3.0982  0.7003
20158TIP3   OH281964   2.630   3.145  13.535 -0.0826 -0.4764  0.0958
20158TIP3    H181965   2.591   3.072  13.584 -0.9958 -0.2882 -0.3287
20158TIP3    H281966   2.610   3.126  13.443  0.3894 -0.1108 -0.0839
20159TIP3   OH281967   4.302   1.215  12.654 -0.6535 -0.2625  0.1941
20159TIP3    H181968   4.314   1.126  12.686  0.5363 -0.5471 -0.9709
20159TIP3    H281969   4.207   1.224  12.642 -0.9405 -0.8235  1.7559
20160TIP3   OH281970   3.150   1.424   1.532  0.9025  0.0134 -0.1073
20160TIP3    H181971   3.100   1.440   1.451 -1.8351 -1.8447  1.0775
20160TIP3    H281972   3.174   1.512   1.562  1.1553  0.8040 -2.3867
20161TIP3   OH281973   3.710   1.439   5.477  0.6308 -0.5236 -0.3316
20161TIP3    H181974   3.767   1.363   5.467 -0.2185 -1.2927  0.5031
20161TIP3    H281975   3.683   1.436   5.568  0.8891  1.0195 -0.1818
20162TIP3   OH281976   0.153   2.227  15.614  0.4568 -0.0225 -0.1886
20162TIP3    H181977   0.120   2.197  15.699 -0.3545  0.7266 -0.2226
20162TIP3    H281978   0.110   2.170  15.550 -0.2048  0.4624 -0.1859
20163TIP3   OH281979   4.255   1.765  17.027 -0.5584  0.1316 -0.5303
20163TIP3    H181980   4.186   1.750  16.963 -0.9614 -1.4255  0.2262
20163TIP3    H281981   4.226   1.720  17.106  0.5326  0.8996  0.3527
20164TIP3   OH281982   4.836   6.246  11.091  0.0585 -0.2504 -0.3881
20164TIP3    H181983   4.792   6.250  11.006  1.8867  1.1397 -1.3325
20164TIP3    H281984   4.927   6.225  11.071  0.3966 -0.5846  1.2971
20165TIP3   OH281985   6.520   0.657   0.964  0.6005  0.1943 -0.1017
20165TIP3    H181986   6.556   0.612   0.888 -1.5264  0.1970 -1.1879
20165TIP3    H281987   6.536   0.750   0.947 -2.1444  0.4518 -1.9734
20166TIP3   OH281988   6.042   0.015  11.419 -0.2668 -0.2691 -0.4490
20166TIP3    H181989   6.097   0.038  11.493  1.1647 -0.9286 -1.2610
20166TIP3    H281990   6.083  -0.063  11.382 -1.6258 -0.6548 -1.2365
20167TIP3   OH281991   0.046   4.435  15.680 -0.0842  0.2990  0.3675
20167TIP3    H181992  -0.008   4.508  15.648 -0.5237  0.1841  0.8299
20167TIP3    H281993   0.084   4.397  15.601  0.0288  0.9335  0.1114
20168TIP3   OH281994   2.401   5.838  16.523  0.8338 -0.4680 -0.4385
20168TIP3    H181995   2.399   5.742  16.526 -0.2561 -0.4494 -0.0830
20168TIP3    H281996   2.324   5.865  16.573  1.1731  0.5978 -0.4782
20169TIP3   OH281997   2.118   0.288   5.708 -0.1919 -0.5193 -0.2733
20169TIP3    H181998   2.169   0.211   5.733 -1.2042 -0.4563  2.2799
20169TIP3    H281999   2.124   0.347   5.783 -1.2866  0.9183 -1.2552
20170TIP3   OH282000   0.765   2.089  11.919 -0.2160 -0.4348  0.8855
20170TIP3    H182001   0.816   2.107  11.840 -1.6592 -0.7378 -0.1469
20170TIP3    H282002   0.727   2.173  11.942 -1.9403 -0.8328 -0.3291
20171TIP3   OH282003   5.231   4.367  16.072  0.4219 -0.1923 -1.0568
20171TIP3    H182004   5.194   4.351  15.985 -2.1546 -1.2473  0.1539
20171TIP3    H282005   5.171   4.430  16.112  0.3345 -1.3483  0.7110
20172TIP3   OH282006   5.012   2.419  13.121  0.7934  0.0369  0.1856
20172TIP3    H182007   4.934   2.449  13.074  1.3761  0.3219 -0.6294
20172TIP3    H282008   4.987   2.334  13.157  0.0929  0.1501 -0.0237
20173TIP3   OH282009   3.526   4.230  10.633 -0.5198 -0.3410 -0.3937
20173TIP3    H182010   3.474   4.164  10.587 -2.4778  0.5021  0.4980
20173TIP3    H282011   3.466   4.304  10.643  0.2756  0.0172  2.2432
20174TIP3   OH282012   0.712   4.712   1.203  0.7361 -0.4702  1.1250
20174TIP3    H182013   0.620   4.688   1.193  1.2739 -1.6242 -2.4259
20174TIP3    H282014   0.713   4.807   1.188  0.2603 -0.7539 -1.1813
20175TIP3   OH282015   2.427   2.131   0.390 -0.8985 -0.1388  0.4414
20175TIP3    H182016   2.379   2.049   0.389  0.1436 -0.8061 -1.3994
20175TIP3    H282017   2.360   2.199   0.398 -1.8905 -1.1252  0.6547
20176TIP3   OH282018   4.802   0.910  13.159 -0.0172 -0.0995 -0.1151
20176TIP3    H182019   4.744   0.906  13.235  0.7275  1.7071  0.5962
20176TIP3    H282020   4.827   0.819  13.143 -0.6848 -0.5822  1.4091
20177TIP3   OH282021   5.949   6.647   5.622  0.4696  0.5330  0.0654
20177TIP3    H182022   5.884   6.648   5.552  0.7072 -0.5891 -0.1900
20177TIP3    H282023   6.004   6.724   5.605  0.8185  0.0187 -1.2750
20178TIP3   OH282024   3.832   1.592  11.782  0.0946 -0.2643 -0.3483
20178TIP3    H182025   3.799   1.524  11.723 -1.3995  0.5894 -0.5407
20178TIP3    H282026   3.861   1.662  11.724  1.2239 -0.5315 -0.1346
20179TIP3   OH282027   1.613   1.486   2.205 -0.1796  0.2493 -0.2829
20179TIP3    H182028   1.628   1.577   2.179 -1.2226  0.6592  0.4780
20179TIP3    H282029   1.607   1.438   2.122 -0.5070  1.0262 -0.7140
20180TIP3   OH282030   1.657   3.209  12.324  0.3950  0.4801 -0.4319
20180TIP3    H182031   1.567   3.233  12.301 -1.3873 -3.7317  1.0745
20180TIP3    H282032   1.671   3.250  12.409 -0.4343  0.5112 -0.2992
20181TIP3   OH282033   3.451   1.304   2.098 -0.4109 -0.2335  0.1943
20181TIP3    H182034   3.398   1.328   2.022  1.7543  1.4100 -0.8994
20181TIP3    H282035   3.490   1.220   2.073  0.3173  0.3140 -0.5585
20182TIP3   OH282036   5.670   2.355  16.422  0.3297  0.2127 -0.5404
20182TIP3    H182037   5.633   2.283  16.473 -0.7820 -0.8188 -2.6330
20182TIP3    H282038   5.646   2.434  16.469  0.8078 -0.7143  1.3567
20183TIP3   OH282039   0.063   6.345  11.163  0.0030  0.4147  0.0570
20183TIP3    H182040   0.128   6.404  11.201  0.0574  0.2651  0.1981
20183TIP3    H282041   0.042   6.384  11.078  1.5904 -0.4669 -0.7760
20184TIP3   OH282042   2.926   1.237   1.908  0.4388 -0.6991  0.1983
20184TIP3    H182043   2.995   1.264   1.969 -1.3432 -0.8759  2.4085
20184TIP3    H282044   2.879   1.168   1.955 -2.4090  0.7058 -0.3854
20185TIP3   OH282045   6.135   0.808   1.028 -0.5755 -0.0962  0.2533
20185TIP3    H182046   6.065   0.830   0.967 -1.3566 -1.4942  0.5892
20185TIP3    H282047   6.118   0.717   1.052 -0.4803  0.4818  2.8112
20186TIP3   OH282048   3.602   2.665   5.169 -0.1739 -1.0044 -0.2943
20186TIP3    H182049   3.627   2.679   5.261  0.2064  0.5103 -0.5984
20186TIP3    H282050   3.573   2.751   5.139  0.5419 -1.2770 -1.8487
20187TIP3   OH282051   5.474   5.884  11.473  0.3325 -0.5339  0.1981
20187TIP3    H182052   5.547   5.942  11.450 -0.0512 -0.5912 -1.2604
20187TIP3    H282053   5.503   5.840  11.553  0.5066  1.8814  1.5762
20188TIP3   OH282054   0.798   2.802   0.684 -0.1283 -0.3204 -0.2309
20188TIP3    H182055   0.822   2.772   0.771  0.5496  0.2438 -0.2114
20188TIP3    H282056   0.772   2.722   0.637 -1.8497 -0.4578  0.8836
20189TIP3   OH282057   1.449   4.435  12.483 -0.2569  0.5468  0.0169
20189TIP3    H182058   1.424   4.393  12.565  1.0650  1.3607  0.8738
20189TIP3    H282059   1.422   4.526  12.494  0.7655  0.8676 -0.0518
20190TIP3   OH282060   5.095   5.146   0.233 -0.2676  0.3524  0.5243
20190TIP3    H182061   5.067   5.123   0.145  1.7910  0.1081 -0.1142
20190TIP3    H282062   5.107   5.062   0.278 -0.1806  0.4387  0.6640
20191TIP3   OH282063   0.044   6.085  16.715 -0.6943 -0.5326  0.2800
20191TIP3    H182064  -0.022   6.030  16.759 -1.4298  0.0361 -0.0832
20191TIP3    H282065   0.028   6.173  16.748  0.4232 -0.5083  0.7891
20192TIP3   OH282066   3.378   2.544   1.098 -0.1067 -0.4231  0.2305
20192TIP3    H182067   3.346   2.629   1.066 -0.7472 -0.3855  0.9450
20192TIP3    H282068   3.400   2.496   1.018 -2.2292 -0.5641 -0.3331
20193TIP3   OH282069   6.232   5.393  14.990 -0.0527  0.1721 -0.1143
20193TIP3    H182070   6.151   5.351  14.959 -0.4623  1.4577 -0.8753
20193TIP3    H282071   6.293   5.385  14.917 -0.3349  1.3951 -0.5037
20194TIP3   OH282072   1.745   5.642   6.208 -0.3186 -0.2356 -0.0282
20194TIP3    H182073   1.768   5.728   6.242 -0.4002 -0.2744  0.1230
20194TIP3    H282074   1.665   5.617   6.254  0.0592 -0.6749  0.4097
20195TIP3   OH282075   6.298   4.207   0.413  0.4617  0.4043 -0.2451
20195TIP3    H182076   6.332   4.172   0.330 -1.2197 -0.9009 -0.4503
20195TIP3    H282077   6.203   4.200   0.405  0.2461 -0.6514  2.1286
20196TIP3   OH282078   6.813   3.275  13.327  0.0431  0.2881  0.8688
20196TIP3    H182079   6.846   3.308  13.411  0.8587  0.1043  0.6270
20196TIP3    H282080   6.860   3.194  13.312 -1.1754 -0.4541  0.9297
20197TIP3   OH282081   5.568   0.613  11.795 -0.4109  0.1304  0.4334
20197TIP3    H182082   5.561   0.706  11.815 -2.4545  0.0533  0.3185
20197TIP3    H282083   5.602   0.610  11.705  0.8173  0.7110  0.8715
20198TIP3   OH282084   5.977   6.769   0.735 -0.1310  0.7721 -0.5484
20198TIP3    H182085   6.056   6.734   0.778 -0.2960  2.1561  0.9582
20198TIP3    H282086   5.939   6.693   0.691  0.5733 -0.5349  0.9936
20199TIP3   OH282087   3.022   1.921  11.289  0.0144  0.2105  0.1752
20199TIP3    H182088   3.006   1.829  11.269  0.3928  0.2099 -0.1568
20199TIP3    H282089   3.117   1.926  11.304  0.2228  0.7793 -1.1757
20200TIP3   OH282090   1.793   5.461  16.132 -0.4906  0.9330  0.1594
20200TIP3    H182091   1.719   5.519  16.110 -2.5290 -1.4660  0.1950
20200TIP3    H282092   1.812   5.480  16.223  0.6554  3.2985 -0.5013
20201TIP3   OH282093   0.815   3.988  16.827 -0.0619 -0.2047  0.1490
20201TIP3    H182094   0.837   4.002  16.919  1.0144  0.4837 -0.1972
20201TIP3    H282095   0.896   3.953  16.789  0.1759  1.4913 -0.9703
20202TIP3   OH282096   0.476   6.526  12.782  0.0638 -0.0789 -0.7099
20202TIP3    H182097   0.432   6.531  12.867  0.4613 -0.0122 -0.5024
20202TIP3    H282098   0.561   6.567  12.797  0.9112 -1.7630 -0.6224
20203TIP3   OH282099   0.060   1.069  10.438 -0.8995  0.1830 -0.0149
20203TIP3    H182100   0.034   0.988  10.394  1.0271 -0.3535 -0.2480
20203TIP3    H282101   0.002   1.075  10.514 -0.9875 -1.5089  0.0874
20204TIP3   OH282102   4.382   0.143   2.450  0.2795 -0.1030 -0.5106
20204TIP3    H182103   4.360   0.179   2.536  1.0563  0.1060 -0.3873
20204TIP3    H282104   4.474   0.168   2.436  0.2039 -0.2391 -1.3463
20205TIP3   OH282105   5.118   2.118   1.588 -0.3246  0.3507 -0.5371
20205TIP3    H182106   5.127   2.143   1.680  0.9955  2.7771 -1.2229
20205TIP3    H282107   5.028   2.087   1.580 -0.3652 -0.2194  1.6145
20206TIP3   OH282108   2.479   2.312   2.725 -0.2668  0.1260  0.4089
20206TIP3    H182109   2.527   2.300   2.643 -1.8390  0.7686 -0.6625
20206TIP3    H282110   2.515   2.392   2.763 -0.1209  0.3059 -0.1007
20207TIP3   OH282111   5.916   4.853   2.809  0.4844  0.5493  0.0713
20207TIP3    H182112   5.875   4.776   2.770 -0.6731  1.5052 -0.6533
20207TIP3    H282113   5.945   4.824   2.896 -2.5881  0.0458  1.0405
20208TIP3   OH282114   5.025   4.616   3.387  0.3478 -0.3264 -0.0261
20208TIP3    H182115   5.027   4.554   3.314  2.3634 -0.3480 -0.0198
20208TIP3    H282116   5.114   4.650   3.392 -0.7925  3.0415 -0.3787
20209TIP3   OH282117   4.028   1.175   3.639  0.2349  0.5055  0.1640
20209TIP3    H182118   4.091   1.106   3.660  0.6435  1.2536  1.5503
20209TIP3    H282119   4.082   1.247   3.605 -0.0457  0.6161 -0.0543
20210TIP3   OH282120   2.661   0.542  14.081 -0.1708  0.3943 -0.3018
20210TIP3    H182121   2.701   0.456  14.089 -0.1008  0.4196 -0.3753
20210TIP3    H282122   2.663   0.578  14.169  1.3824  1.0236 -0.5704
20211TIP3   OH282123   0.871   1.123  16.169 -0.2995 -0.2203 -0.5137
20211TIP3    H182124   0.906   1.198  16.218  0.4822 -1.4788  0.9532
20211TIP3    H282125   0.790   1.101  16.215 -0.3814 -0.4464 -0.7638
20212TIP3   OH282126   5.015   2.646   2.462  0.0747  0.1923  0.1149
20212TIP3    H182127   5.078   2.648   2.535  0.2307 -1.3793  0.0600
20212TIP3    H282128   5.030   2.728   2.415 -0.0066  1.2377  1.8210
20213TIP3   OH282129   0.306   6.145   3.979 -0.3663 -0.1182 -0.4287
20213TIP3    H182130   0.261   6.227   3.958  0.7562  0.3157 -1.2374
20213TIP3    H282131   0.280   6.085   3.909 -0.9486 -0.3679 -0.0038
20214TIP3   OH282132   6.590   1.219   2.182  0.1620 -0.1178 -0.4119
20214TIP3    H182133   6.581   1.167   2.103  1.9252 -0.1168 -0.6564
20214TIP3    H282134   6.546   1.302   2.162 -0.8778 -0.7407 -0.7541
20215TIP3   OH282135   2.467   1.418  10.463 -0.4475  0.5720  0.8581
20215TIP3    H182136   2.469   1.400  10.557  0.7055 -0.9912  0.5669
20215TIP3    H282137   2.432   1.339  10.424 -0.5803  1.0755 -0.0637
20216TIP3   OH282138   2.039   0.296  11.643 -0.1377 -0.2100  0.0943
20216TIP3    H182139   1.979   0.326  11.711  1.3843  0.1400  1.3378
20216TIP3    H282140   2.055   0.204  11.664  0.5237 -0.0374  0.3736
20217TIP3   OH282141   0.051   6.435  14.174 -0.0702 -0.1865  0.1529
20217TIP3    H182142   0.065   6.458  14.082 -0.6878 -0.4559 -0.0153
20217TIP3    H282143  -0.035   6.471  14.195  0.4765  0.7130  0.9126
20218TIP3   OH282144   5.519   3.476  16.341 -0.3039 -0.3820 -0.1522
20218TIP3    H182145   5.583   3.457  16.273 -0.5447  0.2014 -0.5504
20218TIP3    H282146   5.531   3.569  16.361 -0.4947 -0.4544  0.3262
20219TIP3   OH282147   5.467   4.054   5.326 -0.1050 -0.1031  0.2115
20219TIP3    H182148   5.417   4.032   5.404  1.0583  0.3766  1.1166
20219TIP3    H282149   5.548   4.002   5.334 -0.5375 -1.0934 -1.3666
20220TIP3   OH282150   1.978   3.132  15.692  0.1253  0.3882  0.2578
20220TIP3    H182151   2.011   3.153  15.605 -0.4640  0.7295  0.1141
20220TIP3    H282152   1.892   3.173  15.696  0.4230  0.9536  1.2512
20221TIP3   OH282153   0.923   2.963   2.224  0.3161 -0.7813  0.1002
20221TIP3    H182154   0.879   2.994   2.303  0.3213  0.6569 -0.4279
20221TIP3    H282155   0.909   2.869   2.224 -1.0931 -0.5999  0.9685
20222TIP3   OH282156   5.747   0.803   6.099 -0.3546 -0.0757 -0.3312
20222TIP3    H182157   5.798   0.848   6.032 -0.1454 -0.5027 -0.4636
20222TIP3    H282158   5.812   0.769   6.161 -0.6191  1.4980  0.8526
20223TIP3   OH282159   4.070   4.418  16.502  0.2352  0.6101  0.1869
20223TIP3    H182160   4.053   4.376  16.587  0.0558  2.0178  0.8654
20223TIP3    H282161   4.164   4.437  16.503  0.4776 -0.4490 -0.4581
20224TIP3   OH282162   4.767   1.398   2.889  0.3446 -0.2362  0.3013
20224TIP3    H182163   4.831   1.418   2.958 -1.0699  2.8411  0.8938
20224TIP3    H282164   4.807   1.429   2.808  0.8623 -1.3113  0.1198
20225TIP3   OH282165   1.549   0.013   4.179 -0.0003 -0.0881  0.2714
20225TIP3    H182166   1.625   0.066   4.156 -1.0115  2.8359  2.8470
20225TIP3    H282167   1.580  -0.043   4.250  0.1393  0.0468  0.3194
20226TIP3   OH282168   0.069   6.574  16.419  0.0191  0.3239 -0.6192
20226TIP3    H182169   0.098   6.509  16.483  0.5464 -0.0769 -1.2667
20226TIP3    H282170  -0.025   6.556  16.407  0.8126 -2.8068 -3.5911
20227TIP3   OH282171   6.667   0.988  16.654 -0.1875  0.0253  0.2230
20227TIP3    H182172   6.621   0.905  16.639 -0.2085 -0.0755  0.7978
20227TIP3    H282173   6.598   1.054  16.653 -0.0357  0.1889 -1.3606
20228TIP3   OH282174   5.424   0.696  13.334 -0.4057 -0.2955 -0.1895
20228TIP3    H182175   5.405   0.615  13.286 -0.0360 -0.4080 -0.1544
20228TIP3    H282176   5.520   0.698  13.340 -0.4353 -0.1795  0.3581
20229TIP3   OH282177   0.441   1.167  14.540 -0.0325 -0.0064  0.1622
20229TIP3    H182178   0.491   1.108  14.598  1.0859 -0.7191 -1.4322
20229TIP3    H282179   0.352   1.133  14.542 -0.2071  0.4435  2.0037
20230TIP3   OH282180   5.097   2.961   4.123 -0.6609 -0.6002 -0.3110
20230TIP3    H182181   5.034   2.912   4.070 -0.5094 -0.6478 -0.4475
20230TIP3    H282182   5.067   3.052   4.118 -0.5047 -0.5694 -0.6817
20231TIP3   OH282183   4.702   2.597   1.852 -0.3723  0.0606  0.3786
20231TIP3    H182184   4.647   2.519   1.857 -0.8840  0.4736  1.6263
20231TIP3    H282185   4.653   2.664   1.899 -0.2608  1.3568 -1.2316
20232TIP3   OH282186   6.196   3.387  12.893 -0.2127 -0.5138  0.2931
20232TIP3    H182187   6.167   3.296  12.903  1.8557 -1.1496  0.9734
20232TIP3    H282188   6.235   3.390  12.805 -0.4698 -0.2286  0.1887
20233TIP3   OH282189   3.781   2.122   3.634  0.1662  0.2227  0.5383
20233TIP3    H182190   3.709   2.185   3.634  0.5716  0.7629  2.7559
20233TIP3    H282191   3.807   2.116   3.541 -2.1765  0.5943 -0.2001
20234TIP3   OH282192   0.829   3.260   2.860 -0.1415  0.7683  0.0883
20234TIP3    H182193   0.807   3.171   2.887 -2.4907  1.5736  1.0902
20234TIP3    H282194   0.892   3.290   2.926 -1.7602  0.8879  1.6349
20235TIP3   OH282195   5.059   6.541   4.627 -0.5370  0.5076 -0.2602
20235TIP3    H182196   5.039   6.594   4.551 -0.8036 -2.3230 -2.3306
20235TIP3    H282197   5.137   6.491   4.602 -1.6927 -1.8322  0.5223
20236TIP3   OH282198   6.585   1.042   1.968 -0.6078 -0.0406 -0.5001
20236TIP3    H182199   6.585   0.957   2.012 -2.1647  1.2749  2.2676
20236TIP3    H282200   6.640   1.029   1.891  0.5327 -3.1055  0.6920
20237TIP3   OH282201   4.611   1.771   3.391 -0.2033 -0.0703  0.2137
20237TIP3    H182202   4.700   1.738   3.378 -0.4088  0.0966 -2.0432
20237TIP3    H282203   4.623   1.858   3.429  0.4952 -0.7690  1.6656
20238TIP3   OH282204   0.060   0.217  15.946  0.0057 -0.0375 -0.2519
20238TIP3    H182205   0.036   0.231  15.854 -0.5215 -1.5863 -0.3711
20238TIP3    H282206   0.155   0.229  15.947 -0.0920  0.8823 -0.8122
20239TIP3   OH282207   5.312   0.123  15.050  0.2059 -0.5183  0.0828
20239TIP3    H182208   5.279   0.207  15.081  0.9323 -0.6166  1.1952
20239TIP3    H282209   5.234   0.073  15.025 -0.5314 -0.7551  2.6158
20240TIP3   OH282210   3.843   5.924  11.773  0.1924  0.1524  0.4478
20240TIP3    H182211   3.866   6.011  11.742 -2.1113  0.0483 -1.8470
20240TIP3    H282212   3.750   5.930  11.796 -0.5127 -2.0309 -1.4278
20241TIP3   OH282213   5.134   6.101   3.241 -0.1502 -0.0778  0.7910
20241TIP3    H182214   5.059   6.093   3.299 -1.5504  1.9363 -0.6358
20241TIP3    H282215   5.182   6.177   3.274 -0.5600  0.6356 -0.2134
20242TIP3   OH282216   5.304   2.555  12.373 -0.6537 -1.3152 -0.2004
20242TIP3    H182217   5.273   2.546  12.463  0.8239 -1.1692  0.3642
20242TIP3    H282218   5.265   2.482  12.326 -2.3941 -0.7215  0.2563
20243TIP3   OH282219   3.049   1.722   2.524 -0.3233 -0.3017  0.0543
20243TIP3    H182220   3.124   1.780   2.541 -0.0242 -0.8944  0.8106
20243TIP3    H282221   2.992   1.773   2.467  1.0025 -0.1078 -1.1556
20244TIP3   OH282222   2.029   4.918   1.804 -0.8461  1.0253  0.4455
20244TIP3    H182223   2.068   4.988   1.856  0.2692  1.0568 -0.3922
20244TIP3    H282224   1.937   4.916   1.831 -0.7091  2.2503  1.0726
20245CLA    CLA82225   6.608   1.563   0.332  0.3226  0.1409 -0.2117
20246LIG     O182226   3.496   3.285  16.714  0.0617  0.6684  0.2665
20246LIG     O282227   3.269   3.541  16.486  0.6046  0.2079  0.3386
20246LIG     O382228   3.109   3.680  16.638 -0.1239 -0.1986  0.1559
20246LIG     O482229   3.103   3.453  16.355 -0.2929  0.5880 -0.6485
20246LIG      N82230   3.557   3.415  16.518 -0.1469 -0.0664 -0.3740
20246LIG     C182231   3.504   3.512  16.416  0.0778  0.3039  0.2569
20246LIG     C282232   3.588   3.277  16.468 -0.6570  0.0853 -0.1454
20246LIG     C382233   3.684   3.484  16.562  0.2669  0.4375  0.4672
20246LIG     C482234   3.457   3.397  16.639 -1.2725  0.0200 -0.6004
20246LIG     C582235   3.356   3.497  16.376  0.3502  0.8488  0.0375
20246LIG     C682236   3.677   3.264  16.349  0.4233  0.2325  1.1555
20246LIG     C782237   3.676   3.601  16.660  0.6503 -0.3188  0.5127
20246LIG     C882238   3.054   3.560  16.570 -0.3423  0.2813 -0.4417
20246LIG     C982239   3.141   3.513  16.455  0.9926 -0.6296 -0.5434
20246LIG    C1082240   3.395   3.227  16.794  0.4179 -0.1859 -0.1563
20246LIG    C1182241   3.041   3.443  16.677 -0.2807 -0.3262 -0.1741
20246LIG    C1282242   2.916   3.599  16.497 -0.4342  0.3462  0.0069
20246LIG    C1382243   3.011   3.467  16.818 -0.1629 -0.2866  0.3621
20246LIG    C1482244   2.889   3.731  16.476 -0.5231  0.3345 -0.1301
20246LIG    C1582245   3.034   3.306  16.631 -0.4918  0.0076  0.1683
20246LIG    C1682246   2.814   3.510  16.467 -0.6994  0.6831  1.2018
20246LIG    C1782247   2.995   3.365  16.913 -0.3412  0.4092  0.0356
20246LIG    C1882248   2.768   3.773  16.420 -0.3757 -0.8972 -0.1347
20246LIG    C1982249   3.012   3.204  16.726  0.5078 -0.2163  0.3145
20246LIG    C2082250   2.690   3.547  16.420 -0.6183  0.2420  0.3518
20246LIG    C2182251   2.994   3.232  16.862  0.1628 -0.0782  0.2767
20246LIG    C2282252   2.667   3.682  16.392  0.4012 -0.4780  0.6164
20246LIG     H182253   3.574   3.521  16.334  0.9974  2.5273  1.1913
20246LIG     H282254   3.515   3.614  16.451  2.3417  0.1375  0.2002
20246LIG     H382255   3.491   3.232  16.449 -0.6213 -1.1526  2.2912
20246LIG     H482256   3.633   3.222  16.549 -0.7481 -0.5332 -0.5071
20246LIG     H582257   3.737   3.513  16.473 -0.6523 -0.9925 -0.5785
20246LIG     H682258   3.751   3.411  16.606 -0.0266  0.1412  0.4260
20246LIG     H782259   3.447   3.485  16.700 -0.7803 -1.7092  2.1813
20246LIG     H882260   3.361   3.376  16.593 -0.8867  0.2954 -1.5557
20246LIG     H982261   3.336   3.559  16.286  1.1625  0.4009 -0.4651
20246LIG    H1082262   3.338   3.390  16.355 -0.8933  1.1207 -0.3957
20246LIG    H1182263   3.782   3.296  16.366  0.3529 -0.5481  3.3612
20246LIG    H1282264   3.635   3.321  16.263 -0.2354 -1.3972  0.3444
20246LIG    H1382265   3.683   3.164  16.301 -0.6955  1.5436 -1.9698
20246LIG    H1482266   3.628   3.564  16.753  1.6607 -1.4334  0.6229
20246LIG    H1582267   3.625   3.689  16.616  1.6192  0.2683  0.5467
20246LIG    H1682268   3.778   3.633  16.691  1.7068 -3.0889  0.1895
20246LIG    H1782269   3.433   3.143  16.857  0.4348 -0.9611 -1.1797
20246LIG    H1882270   3.304   3.190  16.743  1.3103 -1.4287 -0.9035
20246LIG    H1982271   3.363   3.308  16.864 -1.8784 -1.1432 -0.0280
20246LIG    H2082272   3.203   3.670  16.654 -0.0182 -0.2503 -0.4677
20246LIG    H2182273   3.011   3.567  16.858  0.5517 -1.1305  2.6754
20246LIG    H2282274   2.969   3.801  16.493 -0.6080  0.1372  1.1727
20246LIG    H2382275   3.051   3.270  16.531 -0.0760 -2.4180  1.0375
20246LIG    H2482276   2.822   3.405  16.490 -1.5799  0.2033 -0.4735
20246LIG    H2582277   2.974   3.382  17.017 -0.1277  0.8202  0.0110
20246LIG    H2682278   2.741   3.875  16.399  1.2682 -0.2590  0.6412
20246LIG    H2782279   3.009   3.104  16.684  1.9426 -0.4358  0.6720
20246LIG    H2882280   2.614   3.473  16.398 -1.9170  1.4807  0.5032
20246LIG    H2982281   2.966   3.158  16.935 -1.1494 -1.4263 -1.5309
20246LIG    H3082282   2.566   3.708  16.361 -0.5106 -1.6177  2.4728
   6.84217   6.84217  17.21876
